Title
82276
    1SAPS     N    1   6.390   4.828  11.105 -0.1606  0.0081 -0.2654
    1SAPS   HN1    2   6.295   4.858  11.134  0.7428  2.4133  0.3593
    1SAPS   HN2    3   6.455   4.907  11.121 -0.5710 -0.1497  2.5946
    1SAPS   HN3    4   6.373   4.810  11.003 -1.4197 -2.0523  0.2364
    1SAPS   C12    5   6.435   4.690  11.152  0.5938 -0.7218  0.1416
    1SAPS  H12A    6   6.508   4.652  11.082  0.4512  0.0231 -0.4238
    1SAPS   C13    7   6.485   4.693  11.302 -0.7862 -0.1834  0.0492
    1SAPS  O13A    8   6.473   4.795  11.373 -0.3373  0.1023 -0.0221
    1SAPS  O13B    9   6.494   4.583  11.364 -0.1450 -0.2241  0.8423
    1SAPS   C11   10   6.319   4.584  11.142  0.2386 -0.3044  0.2934
    1SAPS  H11A   11   6.235   4.588  11.216 -1.0277 -0.8478 -1.0794
    1SAPS  H11B   12   6.379   4.492  11.160  1.1543  0.0094 -1.0320
    1SAPS     P   13   6.284   4.479  10.900 -0.2659 -0.3539 -0.0470
    1SAPS   O13   14   6.407   4.516  10.829  0.5126  0.7231  0.4084
    1SAPS   O14   15   6.277   4.352  10.973  0.2886  0.1084 -0.3178
    1SAPS   O12   16   6.256   4.591  11.011 -0.3759  0.0889  0.1572
    1SAPS   O11   17   6.160   4.483  10.801 -0.2070  0.2524  0.3228
    1SAPS    C1   18   6.113   4.615  10.765 -0.3295  0.0707 -0.1749
    1SAPS    HA   19   6.007   4.621  10.797  0.0493  3.8190  0.7661
    1SAPS    HB   20   6.160   4.697  10.823 -0.9793  1.0493 -1.0038
    1SAPS    C2   21   6.127   4.641  10.617 -0.1334  0.0401  0.0321
    1SAPS    HS   22   6.074   4.736  10.594  1.1924  0.6459 -0.6546
    1SAPS   O21   23   6.062   4.532  10.542 -0.2188  0.6428  0.7914
    1SAPS   C21   24   5.927   4.531  10.559 -0.4619  0.0728  0.2133
    1SAPS   O22   25   5.862   4.608  10.628  0.6246  0.2549 -0.4830
    1SAPS   C22   26   5.866   4.425  10.465 -0.1047 -0.6039  1.1769
    1SAPS   H2R   27   5.895   4.458  10.363 -0.8738  1.5823  1.6163
    1SAPS   H2S   28   5.905   4.323  10.482 -0.4148 -1.2512 -1.5193
    1SAPS    C3   29   6.276   4.648  10.584 -0.6128 -0.7159 -0.0681
    1SAPS    HX   30   6.321   4.547  10.587  0.4299 -0.3062 -1.2469
    1SAPS    HY   31   6.332   4.703  10.663  2.8955 -1.5803 -1.7818
    1SAPS   O31   32   6.289   4.708  10.448  0.6075  0.2287  0.2440
    1SAPS   C31   33   6.421   4.727  10.425 -0.1210 -0.3357 -0.9119
    1SAPS   O32   34   6.509   4.701  10.504 -0.2828 -0.1711 -0.0082
    1SAPS   C32   35   6.440   4.785  10.285  0.0548  0.0215 -0.0396
    1SAPS   H2X   36   6.433   4.895  10.291 -0.6166  0.0279 -0.7409
    1SAPS   H2Y   37   6.360   4.746  10.218  1.4711 -0.9342 -1.2426
    1SAPS   C23   38   5.711   4.415  10.478  0.2298  0.8407  0.6181
    1SAPS   H3R   39   5.657   4.508  10.451 -1.1624  0.5218  2.1648
    1SAPS   H3S   40   5.691   4.394  10.585 -0.1634  1.7287  0.7264
    1SAPS   C24   41   5.659   4.304  10.383 -0.5750  0.1926 -0.1825
    1SAPS   H4R   42   5.677   4.213  10.444 -0.8603 -0.8524 -1.6197
    1SAPS   H4S   43   5.711   4.291  10.285 -2.1309 -2.4839 -0.7419
    1SAPS   C25   44   5.510   4.302  10.373 -0.2115  0.3142  0.6454
    1SAPS   H5R   45   5.462   4.285  10.471  0.8541  1.3620  1.3761
    1SAPS   C26   46   5.431   4.323  10.268 -0.1165  0.2357  0.0766
    1SAPS   H6R   47   5.322   4.317  10.277  0.0661 -0.7963  2.2216
    1SAPS   C27   48   5.467   4.340  10.128 -0.5389 -0.9047  0.3124
    1SAPS   H7R   49   5.374   4.364  10.072 -0.2347  2.4147  1.0862
    1SAPS   H7S   50   5.503   4.238  10.100  2.6365 -0.3315  1.9057
    1SAPS   C28   51   5.570   4.446  10.095 -0.1316  0.1615  0.0505
    1SAPS   H8R   52   5.594   4.516  10.176 -0.5158  0.7872 -0.3657
    1SAPS   C29   53   5.634   4.466   9.974  0.3838 -0.9677 -0.0707
    1SAPS   H9R   54   5.702   4.553   9.969  1.7323 -1.9654  0.3673
    1SAPS  C210   55   5.609   4.385   9.841 -0.6902 -0.1889  1.2836
    1SAPS  H10R   56   5.549   4.294   9.863  1.7349 -2.4560 -0.6870
    1SAPS  H10S   57   5.705   4.347   9.798 -0.4441  0.2224  1.4653
    1SAPS  C211   58   5.543   4.481   9.738 -0.7599  0.3888  0.5651
    1SAPS  H11R   59   5.498   4.568   9.787 -1.1783 -0.1356  1.1369
    1SAPS  C212   60   5.553   4.473   9.609  0.2626  0.0319  0.7366
    1SAPS  H12R   61   5.499   4.547   9.548 -2.1607 -0.7485  1.7996
    1SAPS  C213   62   5.624   4.368   9.528  0.3954 -0.2806  0.1554
    1SAPS  H13R   63   5.560   4.315   9.454  1.8874 -1.1863 -0.5309
    1SAPS  H13S   64   5.648   4.283   9.596 -3.9257 -1.2460  0.7892
    1SAPS  C214   65   5.744   4.421   9.453 -0.1779 -0.2477  0.9907
    1SAPS  H14R   66   5.828   4.460   9.512  1.8175  1.4397 -2.6447
    1SAPS  C215   67   5.770   4.402   9.319 -0.5923  0.1338 -0.3182
    1SAPS  H15R   68   5.869   4.433   9.282  0.3710 -1.6597  0.5927
    1SAPS  C216   69   5.678   4.341   9.217 -0.3011  0.0896  0.3868
    1SAPS  H16R   70   5.700   4.381   9.116 -1.9958  2.1761  0.7552
    1SAPS  H16S   71   5.576   4.379   9.240 -0.8035 -1.7957  1.5560
    1SAPS  C217   72   5.680   4.188   9.208 -0.8698  0.0081  0.0348
    1SAPS  H17R   73   5.618   4.153   9.123  0.3652 -3.2940  0.3172
    1SAPS  H17S   74   5.655   4.149   9.309  1.0268  1.1521  0.9958
    1SAPS  C218   75   5.822   4.138   9.184 -0.1786  0.4120 -0.2230
    1SAPS  H18R   76   5.894   4.180   9.257 -1.0705  1.1335  0.2615
    1SAPS  H18S   77   5.867   4.156   9.084  2.2147 -0.8837  0.5180
    1SAPS  C219   78   5.834   3.986   9.201  0.3857 -0.3073 -0.1318
    1SAPS  H19R   79   5.799   3.954   9.302  1.2054 -1.4407 -0.1854
    1SAPS  H19S   80   5.940   3.953   9.193  0.3315 -1.4319  2.6516
    1SAPS  C220   81   5.747   3.893   9.105  0.3260  0.4003  0.0415
    1SAPS  H20R   82   5.769   3.925   9.000  2.0256  0.8855  0.5074
    1SAPS  H20S   83   5.639   3.901   9.127 -0.1033 -0.7760 -1.4714
    1SAPS  H20T   84   5.769   3.784   9.106  0.5537  0.4468  0.1357
    1SAPS   C33   85   6.585   4.749  10.232  0.9390 -0.1612  0.7761
    1SAPS   H3X   86   6.615   4.642  10.230  0.2801 -0.3821 -2.2305
    1SAPS   H3Y   87   6.654   4.805  10.299 -1.1636  0.9364  2.1327
    1SAPS   C34   88   6.612   4.798  10.084  0.5761 -0.1196 -0.2964
    1SAPS   H4X   89   6.658   4.899  10.075 -0.9038  0.4372 -2.5671
    1SAPS   H4Y   90   6.512   4.805  10.037 -0.8416 -0.5357  2.4409
    1SAPS   C35   91   6.709   4.706  10.004  0.3757  0.3472 -0.9954
    1SAPS   H5X   92   6.722   4.749   9.903 -0.3246  1.4815 -0.6227
    1SAPS   H5Y   93   6.667   4.603   9.998 -0.6619  0.7807 -1.2382
    1SAPS   C36   94   6.854   4.696  10.063 -0.3059  0.2688 -0.5527
    1SAPS   H6X   95   6.840   4.643  10.160  2.1387  0.2778 -0.1270
    1SAPS   H6Y   96   6.892   4.797  10.091  1.5267 -0.3766 -0.5308
    1SAPS   C37   97   6.957   4.624   9.975  0.0910 -0.3840  0.0869
    1SAPS   H7X   98   6.907   4.537   9.928  1.7532 -0.4256 -1.7310
    1SAPS   H7Y   99   7.044   4.596  10.038  0.7341  0.5230 -0.3655
    1SAPS   C38  100   7.010   4.718   9.869 -0.0078 -0.1002 -0.4402
    1SAPS   H8X  101   7.066   4.803   9.914 -3.5671  2.8688 -1.1854
    1SAPS   H8Y  102   6.932   4.768   9.808 -1.4730 -0.1869  1.2741
    1SAPS   C39  103   7.103   4.649   9.773  0.5902 -0.4104 -0.5193
    1SAPS   H9X  104   7.126   4.719   9.690 -1.2894  1.6708  0.5981
    1SAPS   H9Y  105   7.056   4.559   9.728  1.8302 -1.0759 -0.5133
    1SAPS  C310  106   7.235   4.608   9.824 -0.4327  0.4169 -0.0367
    1SAPS  H10X  107   7.238   4.546   9.917  0.7196  0.4430 -0.0457
    1SAPS  H10Y  108   7.277   4.707   9.852  0.5780 -0.1971  0.7219
    1SAPS  C311  109   7.314   4.546   9.715 -0.9835  0.0389  0.0761
    1SAPS  H11X  110   7.319   4.623   9.634  0.0741 -0.9760 -0.8618
    1SAPS  H11Y  111   7.249   4.469   9.667 -1.8272 -0.2058  1.5645
    1SAPS  C312  112   7.466   4.501   9.744  0.6375 -0.6102 -0.4329
    1SAPS  H12X  113   7.519   4.598   9.756 -2.5967  1.4457 -1.5125
    1SAPS  H12Y  114   7.503   4.445   9.656 -0.3283  0.6597 -1.6811
    1SAPS  C313  115   7.486   4.441   9.884 -0.3335  0.1193  0.4463
    1SAPS  H13X  116   7.431   4.345   9.896  0.1950 -0.1332  0.9115
    1SAPS  H13Y  117   7.470   4.512   9.968 -0.2180 -0.5310  1.0348
    1SAPS  C314  118   7.637   4.393   9.888  0.4707  0.1107  0.5823
    1SAPS  H14X  119   7.705   4.478   9.867 -0.1912  0.1414 -1.7073
    1SAPS  H14Y  120   7.664   4.312   9.816  3.7273  1.5675  0.0046
    1SAPS  C315  121   7.668   4.345  10.030  0.0640 -0.7178 -0.0767
    1SAPS  H15X  122   7.588   4.278  10.069  1.3510 -2.6746 -0.6630
    1SAPS  H15Y  123   7.672   4.431  10.100  3.8881 -1.6003  1.0477
    1SAPS  C316  124   7.796   4.260  10.047  0.0452  0.9517 -0.3706
    1SAPS  H16X  125   7.865   4.320   9.985 -1.6799  1.9629 -1.4137
    1SAPS  H16Y  126   7.783   4.159  10.003 -1.0672  1.3255 -0.9504
    1SAPS  C317  127   7.841   4.248  10.189  0.4216 -0.0628  0.2458
    1SAPS  H17X  128   7.783   4.174  10.248  0.3007 -0.2464 -0.1023
    1SAPS  H17Y  129   7.819   4.349  10.230  0.8741  0.7303 -1.3790
    1SAPS  C318  130   7.984   4.216  10.211  0.5125 -0.1863  0.0959
    1SAPS  H18X  131   8.046   4.307  10.193  1.4319 -0.7001  0.5990
    1SAPS  H18Y  132   8.008   4.133  10.140  1.2165  0.5375 -0.5443
    1SAPS  H18Z  133   8.008   4.192  10.317 -1.5505  0.0289  0.6455
    2SAPS     N  134   4.933   4.874  11.091 -0.0067  0.5247 -0.8120
    2SAPS   HN1  135   4.974   4.908  11.002 -0.8784 -0.6343 -1.6886
    2SAPS   HN2  136   4.985   4.895  11.178 -1.0375 -1.9938  0.5255
    2SAPS   HN3  137   4.920   4.772  11.077  0.5522  0.0638  1.5512
    2SAPS   C12  138   4.805   4.946  11.085  0.8450  0.1038  0.4038
    2SAPS  H12A  139   4.731   4.875  11.049  2.0383 -1.3524  0.7417
    2SAPS   C13  140   4.756   5.001  11.220 -0.5514  0.3928 -0.8902
    2SAPS  O13A  141   4.796   4.946  11.325 -0.1360  0.0587  0.5585
    2SAPS  O13B  142   4.673   5.094  11.227  0.7400 -0.0864  0.1864
    2SAPS   C11  143   4.822   5.052  10.976 -0.2889 -0.2768 -0.6350
    2SAPS  H11A  144   4.888   5.130  11.019 -0.8394  0.0955 -0.4524
    2SAPS  H11B  145   4.730   5.099  10.935  0.5795  0.1280 -2.2086
    2SAPS     P  146   4.993   5.068  10.777 -0.2641 -0.1583  0.0637
    2SAPS   O13  147   5.104   5.120  10.856  0.4462  0.2205  0.1232
    2SAPS   O14  148   5.033   4.979  10.662 -0.3249  0.2189 -0.8517
    2SAPS   O12  149   4.894   4.984  10.871 -0.0713 -0.3641  0.5000
    2SAPS   O11  150   4.904   5.180  10.716 -0.5031 -0.0146 -0.2976
    2SAPS    C1  151   4.767   5.170  10.677  0.6313 -0.3453 -0.1509
    2SAPS    HA  152   4.725   5.067  10.684 -1.5128  0.5431  1.1170
    2SAPS    HB  153   4.698   5.212  10.754 -0.8515  1.2833 -2.2426
    2SAPS    C2  154   4.725   5.240  10.546 -0.1456  0.2937 -0.5674
    2SAPS    HS  155   4.619   5.215  10.524 -0.1118  1.4566 -2.2784
    2SAPS   O21  156   4.805   5.193  10.432  0.2033  0.1690  0.4099
    2SAPS   C21  157   4.829   5.065  10.410  0.0665  0.2385  0.1731
    2SAPS   O22  158   4.771   4.972  10.466 -0.0938  0.0003 -0.0472
    2SAPS   C22  159   4.935   5.051  10.302 -1.0163  0.3481 -0.6726
    2SAPS   H2R  160   5.014   5.123  10.333 -0.5841 -0.5210  0.2887
    2SAPS   H2S  161   4.987   4.954  10.313  2.1322  1.9114 -0.5724
    2SAPS    C3  162   4.734   5.393  10.545  0.0940  0.5263  0.1204
    2SAPS    HX  163   4.832   5.408  10.594  1.4673 -3.0654 -1.2028
    2SAPS    HY  164   4.656   5.438  10.610  0.7807  0.2103  1.1832
    2SAPS   O31  165   4.725   5.446  10.412 -0.2680 -0.4002  0.0023
    2SAPS   C31  166   4.838   5.478  10.354 -1.0041 -0.5862 -0.4642
    2SAPS   O32  167   4.945   5.492  10.408  0.5835 -0.3401 -0.0104
    2SAPS   C32  168   4.808   5.499  10.207 -0.5487 -0.0629  0.4818
    2SAPS   H2X  169   4.790   5.399  10.164  0.2294  0.2355 -0.5619
    2SAPS   H2Y  170   4.900   5.540  10.161  0.1243 -0.4897  1.4121
    2SAPS   C23  171   4.881   5.076  10.160  0.3655  0.3723 -0.0633
    2SAPS   H3R  172   4.860   5.180  10.125 -2.3609 -0.7714 -2.1412
    2SAPS   H3S  173   4.787   5.021  10.137 -0.4105  2.0677 -1.1848
    2SAPS   C24  174   4.974   5.014  10.050 -0.2033 -0.0128  0.4384
    2SAPS   H4R  175   4.938   5.037   9.948 -1.8090 -0.0444  0.9784
    2SAPS   H4S  176   4.951   4.906  10.061  0.0305 -0.0944  0.1330
    2SAPS   C25  177   5.120   5.045  10.051  0.7424  0.8400 -0.8984
    2SAPS   H5R  178   5.172   5.034  10.147  1.5277  0.5584 -1.3485
    2SAPS   C26  179   5.196   5.074   9.947 -0.0059 -0.6889 -0.1145
    2SAPS   H6R  180   5.304   5.087   9.959 -0.1039  2.7677 -1.7189
    2SAPS   C27  181   5.148   5.080   9.800 -0.1738  0.0610  0.6528
    2SAPS   H7R  182   5.050   5.029   9.788 -1.4607  1.9102  2.5385
    2SAPS   H7S  183   5.222   5.025   9.738  0.1507  0.0867  1.0171
    2SAPS   C28  184   5.119   5.216   9.742  0.3784  0.4943  0.3303
    2SAPS   H8R  185   5.093   5.290   9.819  3.0619  0.5984  1.2511
    2SAPS   C29  186   5.135   5.257   9.615  0.2650  0.6664 -0.1469
    2SAPS   H9R  187   5.103   5.362   9.601 -0.6951  0.6126  1.3808
    2SAPS  C210  188   5.174   5.178   9.494 -0.2631  0.2766 -0.6654
    2SAPS  H10R  189   5.085   5.120   9.463  0.8179 -1.5007 -0.6197
    2SAPS  H10S  190   5.248   5.099   9.519 -2.3536 -1.7467 -0.5518
    2SAPS  C211  191   5.229   5.256   9.384  0.6100 -0.6165  0.3499
    2SAPS  H11R  192   5.243   5.365   9.397  0.2940 -0.5078 -0.2162
    2SAPS  C212  193   5.249   5.206   9.262  0.2415 -0.2352  0.0934
    2SAPS  H12R  194   5.276   5.279   9.184 -1.5746  1.2299  0.7584
    2SAPS  C213  195   5.219   5.069   9.213  0.5819  0.1864 -0.1759
    2SAPS  H13R  196   5.186   5.006   9.298 -1.0935  2.1690  0.7344
    2SAPS  H13S  197   5.304   5.005   9.181  0.0068 -0.6796 -0.0062
    2SAPS  C214  198   5.110   5.064   9.113 -0.6779  0.0002 -0.1938
    2SAPS  H14R  199   5.014   5.070   9.166 -1.6046  2.6480 -1.9165
    2SAPS  C215  200   5.102   5.036   8.981 -0.1367  0.1911  0.8992
    2SAPS  H15R  201   5.007   5.054   8.928  0.9940  0.7197 -1.0274
    2SAPS  C216  202   5.215   5.017   8.885 -0.4214 -0.7154  0.0028
    2SAPS  H16R  203   5.295   5.088   8.915 -0.5326  0.0860 -1.5017
    2SAPS  H16S  204   5.186   5.056   8.785  0.0648  0.8576  0.4503
    2SAPS  C217  205   5.274   4.880   8.880  0.0042  0.4470 -0.4317
    2SAPS  H17R  206   5.320   4.864   8.980  1.9036  1.2951 -1.1292
    2SAPS  H17S  207   5.365   4.873   8.817  0.4323  2.5867 -0.1321
    2SAPS  C218  208   5.174   4.771   8.835 -0.2073 -0.0619  0.0379
    2SAPS  H18R  209   5.150   4.806   8.732  0.8688 -3.8539 -1.6774
    2SAPS  H18S  210   5.091   4.775   8.909 -0.5511  2.5253 -0.3686
    2SAPS  C219  211   5.234   4.632   8.832 -0.7452 -0.0271  0.6561
    2SAPS  H19R  212   5.260   4.598   8.934  1.6437 -2.1504 -0.5600
    2SAPS  H19S  213   5.332   4.644   8.782  0.5426 -2.0919  2.5071
    2SAPS  C220  214   5.139   4.534   8.754  0.2891 -0.1226 -0.1241
    2SAPS  H20R  215   5.055   4.520   8.825  1.1230 -1.7020  0.6132
    2SAPS  H20S  216   5.186   4.433   8.746 -1.1595 -1.1448  2.7632
    2SAPS  H20T  217   5.118   4.568   8.651  1.5845  2.8626  0.4769
    2SAPS   C33  218   4.686   5.583  10.190  0.4981 -1.0094  0.0756
    2SAPS   H3X  219   4.686   5.664  10.266  1.7533 -0.6179 -0.3007
    2SAPS   H3Y  220   4.603   5.512  10.210  1.0146 -1.9122 -0.8713
    2SAPS   C34  221   4.672   5.636  10.046 -0.1428  0.1117  0.0280
    2SAPS   H4X  222   4.565   5.663  10.035  0.0129  0.4435 -0.7235
    2SAPS   H4Y  223   4.686   5.554   9.973 -0.2916  0.3201 -0.2353
    2SAPS   C35  224   4.751   5.762  10.007  0.6288 -0.0504  0.0171
    2SAPS   H5X  225   4.858   5.736  10.017  0.3933 -0.8257  0.6241
    2SAPS   H5Y  226   4.725   5.840  10.082  0.0999 -1.2600  1.1262
    2SAPS   C36  227   4.707   5.826   9.873  0.2591  0.1337 -0.1539
    2SAPS   H6X  228   4.738   5.932   9.884 -0.0319  0.3713 -1.4733
    2SAPS   H6Y  229   4.598   5.824   9.847 -0.0387 -0.0381  1.0543
    2SAPS   C37  230   4.795   5.786   9.766 -0.7705 -0.3903  0.0249
    2SAPS   H7X  231   4.882   5.735   9.813  0.2839  0.4452 -0.9720
    2SAPS   H7Y  232   4.838   5.872   9.711 -2.3855  1.2262  1.1709
    2SAPS   C38  233   4.743   5.681   9.671  0.1069  0.0765 -1.1689
    2SAPS   H8X  234   4.642   5.708   9.633 -0.3922 -0.2271 -0.1277
    2SAPS   H8Y  235   4.736   5.579   9.716 -1.4112  0.3915 -0.6290
    2SAPS   C39  236   4.826   5.653   9.554  0.2258 -0.1794  0.5552
    2SAPS   H9X  237   4.915   5.596   9.587  2.6819  0.8317 -3.5670
    2SAPS   H9Y  238   4.864   5.750   9.516 -0.1147  0.5257  1.9619
    2SAPS  C310  239   4.771   5.582   9.430  0.3992  0.2669  0.2510
    2SAPS  H10X  240   4.705   5.658   9.382 -0.1157  0.5106  1.3045
    2SAPS  H10Y  241   4.713   5.492   9.461  0.9360 -0.3009 -0.3747
    2SAPS  C311  242   4.880   5.546   9.333  0.0780  0.4254  0.2717
    2SAPS  H11X  243   4.961   5.486   9.378  1.0145  0.3144 -1.4857
    2SAPS  H11Y  244   4.925   5.639   9.294  3.3233 -1.0420  0.2251
    2SAPS  C312  245   4.830   5.463   9.211  0.8069 -0.2787 -0.5116
    2SAPS  H12X  246   4.769   5.538   9.155 -0.1364 -1.3219 -0.9152
    2SAPS  H12Y  247   4.755   5.384   9.232  0.2650  0.8320  2.1218
    2SAPS  C313  248   4.928   5.431   9.099 -0.3620 -0.7199 -0.3998
    2SAPS  H13X  249   4.985   5.339   9.123  0.5373 -0.8205 -2.6794
    2SAPS  H13Y  250   4.999   5.516   9.098 -1.4060  0.1758 -1.4014
    2SAPS  C314  251   4.871   5.412   8.961  0.6597  0.3265  0.3944
    2SAPS  H14X  252   4.783   5.345   8.961  2.2937 -2.0199 -1.8911
    2SAPS  H14Y  253   4.952   5.368   8.899  0.9672  0.3719  0.7662
    2SAPS  C315  254   4.840   5.546   8.902 -0.1571  0.8220  0.1413
    2SAPS  H15X  255   4.941   5.592   8.888 -0.4528  1.8303  1.1923
    2SAPS  H15Y  256   4.785   5.617   8.967 -0.1789  0.9799 -0.0456
    2SAPS  C316  257   4.776   5.536   8.761 -0.4203  0.0068 -0.8364
    2SAPS  H16X  258   4.683   5.477   8.776 -1.8829  2.1867 -0.9341
    2SAPS  H16Y  259   4.849   5.470   8.708 -2.2869 -1.8588 -1.2192
    2SAPS  C317  260   4.752   5.664   8.681  0.5326 -0.4216 -0.6163
    2SAPS  H17X  261   4.848   5.720   8.682  0.5556 -0.4530  0.5323
    2SAPS  H17Y  262   4.691   5.735   8.741  1.6107  1.3941 -1.5822
    2SAPS  C318  263   4.688   5.639   8.545 -0.7102  0.7284  0.1196
    2SAPS  H18X  264   4.719   5.721   8.478  0.5629  0.2949  0.1568
    2SAPS  H18Y  265   4.579   5.619   8.558 -0.1172 -2.6110  0.9872
    2SAPS  H18Z  266   4.749   5.553   8.511  0.0613  0.8385  1.1703
    3SAPS     N  267   4.573   6.516  10.801  0.2138 -0.7856  0.2366
    3SAPS   HN1  268   4.551   6.481  10.706 -2.2905 -0.5382  0.6481
    3SAPS   HN2  269   4.643   6.591  10.789 -0.4887 -0.4240 -1.8790
    3SAPS   HN3  270   4.602   6.444  10.871 -0.6143 -0.5156  0.8788
    3SAPS   C12  271   4.440   6.578  10.854 -0.5632  0.2451 -0.2817
    3SAPS  H12A  272   4.400   6.619  10.763  1.9957  2.1187 -0.6762
    3SAPS   C13  273   4.338   6.480  10.907 -0.0876 -0.0649  0.5538
    3SAPS  O13A  274   4.367   6.358  10.934  0.2381  0.0935 -0.2815
    3SAPS  O13B  275   4.221   6.526  10.932  0.2211  0.3532 -0.2702
    3SAPS   C11  276   4.462   6.677  10.973  0.3666 -0.3041 -0.6048
    3SAPS  H11A  277   4.507   6.620  11.058 -0.4017  0.3871  0.2896
    3SAPS  H11B  278   4.370   6.727  11.011 -0.7043 -2.4327 -0.2485
    3SAPS     P  279   4.534   6.926  10.894 -0.1418 -0.5396 -0.4105
    3SAPS   O13  280   4.455   6.993  10.995  0.0777 -0.1923 -0.3656
    3SAPS   O14  281   4.662   6.988  10.864 -0.2726 -0.2094  0.2931
    3SAPS   O12  282   4.563   6.773  10.942  0.1751 -0.5399  0.3962
    3SAPS   O11  283   4.449   6.910  10.767  0.7825  0.1888  0.7274
    3SAPS    C1  284   4.508   6.903  10.636 -0.4080  0.3101 -0.4033
    3SAPS    HA  285   4.616   6.878  10.630 -0.4120 -0.0082  0.6522
    3SAPS    HB  286   4.453   6.819  10.588 -0.9611  1.4599 -1.8445
    3SAPS    C2  287   4.487   7.035  10.554 -0.3782  0.7178 -0.8476
    3SAPS    HS  288   4.518   7.121  10.617  0.0941  1.0859 -1.5639
    3SAPS   O21  289   4.351   7.053  10.503  0.9122  0.2162 -0.2539
    3SAPS   C21  290   4.339   7.166  10.434  0.2724  0.0802 -0.4410
    3SAPS   O22  291   4.417   7.260  10.437  0.5065  0.0397  0.2990
    3SAPS   C22  292   4.200   7.167  10.361 -0.5119 -0.1644  0.2449
    3SAPS   H2R  293   4.172   7.065  10.329  0.5042 -0.2080 -0.5563
    3SAPS   H2S  294   4.130   7.202  10.441  1.4981  0.9129  1.6087
    3SAPS    C3  295   4.595   7.035  10.443 -0.1025  0.0422  0.9537
    3SAPS    HX  296   4.691   6.998  10.485  1.4555  0.7388 -1.7363
    3SAPS    HY  297   4.621   7.141  10.421  0.7386 -0.6230 -1.5979
    3SAPS   O31  298   4.554   6.945  10.334 -0.2236  0.2110 -0.1850
    3SAPS   C31  299   4.635   6.909  10.238  0.0371 -0.0857  0.5491
    3SAPS   O32  300   4.758   6.924  10.240  0.5881  0.2814  0.4358
    3SAPS   C32  301   4.556   6.839  10.121 -0.7332  0.2069 -0.1681
    3SAPS   H2X  302   4.467   6.902  10.099 -0.5382  0.0720 -1.4445
    3SAPS   H2Y  303   4.528   6.739  10.161 -2.2445  0.5305 -0.3314
    3SAPS   C23  304   4.206   7.271  10.250 -0.8099  0.4976  0.1771
    3SAPS   H3R  305   4.303   7.258  10.197 -0.9114  2.4373 -0.5497
    3SAPS   H3S  306   4.209   7.371  10.298 -0.7678 -0.9968  3.6314
    3SAPS   C24  307   4.092   7.264  10.148 -0.0200  0.4390 -0.3092
    3SAPS   H4R  308   4.114   7.347  10.077  0.1606  0.6660  0.0083
    3SAPS   H4S  309   4.002   7.289  10.209 -0.7401 -2.4238 -0.0665
    3SAPS   C25  310   4.077   7.133  10.070  0.3967  0.5597  0.2365
    3SAPS   H5R  311   4.057   7.044  10.132  1.6466  0.5854  0.6975
    3SAPS   C26  312   4.084   7.122   9.934 -0.2948 -0.0343  0.0575
    3SAPS   H6R  313   4.073   7.023   9.887 -1.3318  1.8040 -3.9806
    3SAPS   C27  314   4.112   7.240   9.841  0.5238  0.5139 -0.0712
    3SAPS   H7R  315   4.219   7.267   9.853  1.1281 -1.9895  0.7182
    3SAPS   H7S  316   4.037   7.321   9.853 -0.4944 -0.0060 -2.4575
    3SAPS   C28  317   4.091   7.181   9.698 -0.9286 -0.4417 -0.0315
    3SAPS   H8R  318   4.092   7.073   9.681  1.1429 -0.6062  0.8680
    3SAPS   C29  319   4.103   7.262   9.589  0.4339  0.0025 -0.4659
    3SAPS   H9R  320   4.100   7.222   9.487  0.6355  0.1612 -0.5357
    3SAPS  C210  321   4.119   7.414   9.596  0.7111 -0.3311 -0.0522
    3SAPS  H10R  322   4.193   7.456   9.524  0.0900  0.3306 -0.3157
    3SAPS  H10S  323   4.152   7.447   9.696  1.7308 -0.1183 -0.4444
    3SAPS  C211  324   3.987   7.482   9.573  0.1936 -0.6260  0.3851
    3SAPS  H11R  325   3.905   7.430   9.625  0.4997 -1.1738  0.3318
    3SAPS  C212  326   3.958   7.593   9.502 -0.3955 -0.0516 -0.1749
    3SAPS  H12R  327   3.853   7.623   9.513  0.1264  2.4192 -1.0742
    3SAPS  C213  328   4.049   7.671   9.417  0.0358  0.1762  0.1352
    3SAPS  H13R  329   4.067   7.609   9.327  0.1651 -1.6731  1.3736
    3SAPS  H13S  330   4.151   7.682   9.460 -0.5692  0.0680  1.6797
    3SAPS  C214  331   3.988   7.801   9.387  0.0822 -0.1074 -0.3169
    3SAPS  H14R  332   4.006   7.875   9.466 -1.3609  0.9818 -0.9506
    3SAPS  C215  333   3.920   7.843   9.276 -0.4618 -0.0934 -0.3833
    3SAPS  H15R  334   3.880   7.945   9.266 -0.2615  0.0115 -0.1039
    3SAPS  C216  335   3.887   7.748   9.164 -0.4301 -0.0163 -0.4863
    3SAPS  H16R  336   3.784   7.776   9.133 -0.5866  0.9693  0.8512
    3SAPS  H16S  337   3.880   7.640   9.192  1.6796 -0.2107 -0.5526
    3SAPS  C217  338   3.977   7.769   9.041  0.1242  0.0350  0.2798
    3SAPS  H17R  339   3.926   7.705   8.966  0.8628 -0.3644  0.1014
    3SAPS  H17S  340   4.081   7.730   9.047  0.2796 -0.0270 -1.9481
    3SAPS  C218  341   3.983   7.909   8.994 -0.8565  0.2248  0.3234
    3SAPS  H18R  342   4.040   7.972   9.065 -0.2371  0.2296 -0.1627
    3SAPS  H18S  343   3.883   7.954   8.977  0.9420  4.3023 -0.7194
    3SAPS  C219  344   4.055   7.928   8.853 -0.3450  0.6263 -0.4261
    3SAPS  H19R  345   4.002   7.853   8.791  2.4068 -0.8040 -1.2378
    3SAPS  H19S  346   4.162   7.896   8.862  0.2208  2.5525  0.2075
    3SAPS  C220  347   4.042   8.075   8.806  0.4396  0.1867  0.0137
    3SAPS  H20R  348   4.015   8.139   8.892 -1.0516  0.1409 -0.4038
    3SAPS  H20S  349   3.949   8.084   8.746  0.1187  0.0956  0.4920
    3SAPS  H20T  350   4.130   8.112   8.749 -0.2201  2.5444  0.4127
    3SAPS   C33  351   4.638   6.802   9.991 -0.7635 -0.7288  0.0141
    3SAPS   H3X  352   4.734   6.751  10.014 -1.4060 -1.4135  1.2599
    3SAPS   H3Y  353   4.655   6.906   9.955 -1.2073 -0.3529  0.8490
    3SAPS   C34  354   4.564   6.721   9.889 -0.5921  0.1059  0.0916
    3SAPS   H4X  355   4.465   6.763   9.863 -0.8631 -1.3975 -1.5287
    3SAPS   H4Y  356   4.555   6.612   9.908  1.8011 -1.0121 -3.8245
    3SAPS   C35  357   4.648   6.704   9.758 -0.4878  0.0729 -0.0169
    3SAPS   H5X  358   4.594   6.628   9.697  1.4300 -0.8697 -0.6200
    3SAPS   H5Y  359   4.747   6.663   9.784 -0.8710  0.0701  1.5491
    3SAPS   C36  360   4.655   6.831   9.672 -0.3724 -0.0951 -0.3543
    3SAPS   H6X  361   4.691   6.801   9.572  2.0412 -0.7646  0.6349
    3SAPS   H6Y  362   4.735   6.892   9.718 -1.9683  2.2392 -0.5004
    3SAPS   C37  363   4.528   6.915   9.651 -0.0967 -0.2319 -0.1391
    3SAPS   H7X  364   4.492   6.953   9.749  0.0766  2.6343 -1.1011
    3SAPS   H7Y  365   4.445   6.855   9.608 -1.3822  2.1874 -1.1808
    3SAPS   C38  366   4.557   7.037   9.555 -0.4264  0.5973 -0.0452
    3SAPS   H8X  367   4.643   7.007   9.491 -0.6091 -0.0605  0.0093
    3SAPS   H8Y  368   4.601   7.116   9.618  0.6478  0.5426 -0.7018
    3SAPS   C39  369   4.445   7.081   9.459  0.2961 -0.0115 -0.2057
    3SAPS   H9X  370   4.360   7.123   9.517 -0.7811 -1.9759 -0.2779
    3SAPS   H9Y  371   4.388   7.001   9.407 -1.0062  0.4798  0.4436
    3SAPS  C310  372   4.486   7.178   9.349 -0.4995 -0.9159  0.5525
    3SAPS  H10X  373   4.555   7.124   9.282 -0.5882 -2.2385  1.4919
    3SAPS  H10Y  374   4.549   7.257   9.395  2.0921 -0.5606 -3.1521
    3SAPS  C311  375   4.365   7.226   9.256 -0.4651 -0.1925 -0.2933
    3SAPS  H11X  376   4.282   7.263   9.320 -1.6848  2.3842 -3.1079
    3SAPS  H11Y  377   4.337   7.132   9.204  1.0065 -1.6662  1.4153
    3SAPS  C312  378   4.405   7.327   9.154 -0.1175 -0.0406 -0.4355
    3SAPS  H12X  379   4.498   7.292   9.103 -0.0384 -0.5665  0.0663
    3SAPS  H12Y  380   4.442   7.425   9.191  1.8336 -0.9794  0.2438
    3SAPS  C313  381   4.289   7.341   9.046 -0.5670  0.4429 -0.5779
    3SAPS  H13X  382   4.200   7.398   9.079 -1.8025 -2.3729  1.3633
    3SAPS  H13Y  383   4.249   7.241   9.019 -0.5374  0.7471 -1.7997
    3SAPS  C314  384   4.341   7.404   8.917 -0.7907  0.4993 -0.7517
    3SAPS  H14X  385   4.431   7.352   8.877  0.4791  3.0004 -1.3488
    3SAPS  H14Y  386   4.376   7.507   8.942  1.6167 -0.9636  2.6869
    3SAPS  C315  387   4.250   7.399   8.799  0.6313  0.3627 -0.2260
    3SAPS  H15X  388   4.216   7.293   8.795  0.7024  0.3126  0.3303
    3SAPS  H15Y  389   4.294   7.433   8.704  1.2328  0.2530  0.0102
    3SAPS  C316  390   4.122   7.479   8.813 -0.3307  1.5149  0.0705
    3SAPS  H16X  391   4.160   7.583   8.805 -0.5683  1.5309 -1.0491
    3SAPS  H16Y  392   4.064   7.476   8.907  2.0376 -0.3722  1.5895
    3SAPS  C317  393   4.037   7.466   8.686 -0.0243 -0.3117 -0.2759
    3SAPS  H17X  394   3.995   7.363   8.679  0.0363 -0.2894 -0.9999
    3SAPS  H17Y  395   4.102   7.478   8.597 -1.2254  0.5045 -1.0708
    3SAPS  C318  396   3.927   7.562   8.684  0.0681 -0.2189 -0.2582
    3SAPS  H18X  397   3.866   7.534   8.773  2.3268  1.4889  1.9511
    3SAPS  H18Y  398   3.863   7.553   8.594 -0.4200 -0.7452  0.1320
    3SAPS  H18Z  399   3.966   7.662   8.712  0.7263 -0.8917  1.3438
    4SAPS     N  400   0.187   6.536  10.551 -0.3950 -0.0461  0.2868
    4SAPS   HN1  401   0.101   6.580  10.513 -0.1032  1.5512  1.3869
    4SAPS   HN2  402   0.264   6.604  10.536 -2.5663  2.6955  0.7492
    4SAPS   HN3  403   0.209   6.454  10.491 -2.8477 -0.4787 -0.1393
    4SAPS   C12  404   0.169   6.501  10.687  0.0576 -0.3667 -0.0455
    4SAPS  H12A  405   0.073   6.451  10.689 -0.1288 -0.0074  0.0774
    4SAPS   C13  406   0.277   6.407  10.753 -0.0656  0.7505  0.0466
    4SAPS  O13A  407   0.351   6.346  10.673  0.3559  0.1116 -0.1616
    4SAPS  O13B  408   0.270   6.372  10.874  0.1095 -0.2347  0.0596
    4SAPS   C11  409   0.175   6.637  10.766 -0.0174 -1.0599  0.1141
    4SAPS  H11A  410   0.277   6.671  10.796 -0.0843 -1.0497  0.3321
    4SAPS  H11B  411   0.135   6.617  10.867 -2.4591  1.3245 -0.2770
    4SAPS     P  412  -0.058   6.749  10.689 -0.4009  0.1852  0.0173
    4SAPS   O13  413  -0.117   6.616  10.665  0.0476 -0.2514 -0.1647
    4SAPS   O14  414  -0.110   6.821  10.807  0.1434  0.6924  0.5298
    4SAPS   O12  415   0.095   6.740  10.709 -0.1657 -0.0924  0.1046
    4SAPS   O11  416  -0.071   6.831  10.566 -0.1302 -0.2219  0.5485
    4SAPS    C1  417  -0.026   6.973  10.568  0.6377  0.5834 -0.3364
    4SAPS    HA  418  -0.099   7.038  10.621  1.5307 -0.5505  2.4423
    4SAPS    HB  419   0.066   6.989  10.628 -0.4000  0.4006  1.3781
    4SAPS    C2  420  -0.015   7.033  10.425  0.4347 -0.2758 -0.8308
    4SAPS    HS  421   0.037   7.131  10.429  3.1491 -1.6509  0.7024
    4SAPS   O21  422  -0.142   7.032  10.375  0.3307  0.0430  0.5702
    4SAPS   C21  423  -0.226   7.127  10.409 -0.5412 -0.5368 -0.3638
    4SAPS   O22  424  -0.188   7.228  10.474  0.6369  0.6196  0.4911
    4SAPS   C22  425  -0.365   7.111  10.362  0.2753  0.3788  0.0265
    4SAPS   H2R  426  -0.397   7.013  10.405  1.9187 -1.0395 -1.7827
    4SAPS   H2S  427  -0.434   7.175  10.421 -1.3135 -1.8510  0.7144
    4SAPS    C3  428   0.075   6.936  10.338  0.5063 -0.1109  0.7588
    4SAPS    HX  429   0.032   6.836  10.359  1.3363 -0.7094 -0.3095
    4SAPS    HY  430   0.181   6.943  10.372  1.0123  1.1635 -0.9698
    4SAPS   O31  431   0.058   6.956  10.198 -0.2772 -0.5488  0.4237
    4SAPS   C31  432   0.141   7.056  10.154  0.9740  0.5814  0.5203
    4SAPS   O32  433   0.226   7.110  10.215 -0.4162  0.0357 -0.1713
    4SAPS   C32  434   0.087   7.112  10.025 -0.7756  0.1824  0.3105
    4SAPS   H2X  435   0.147   7.205  10.012  0.3254 -0.6476 -0.7081
    4SAPS   H2Y  436  -0.020   7.136  10.044 -0.8155 -0.4607  0.9474
    4SAPS   C23  437  -0.395   7.126  10.214  0.0683  0.1829 -0.3982
    4SAPS   H3R  438  -0.335   7.206  10.165 -1.2792  0.8689 -0.9729
    4SAPS   H3S  439  -0.496   7.166  10.194  0.2211  0.7243 -0.1208
    4SAPS   C24  440  -0.369   6.998  10.128  0.0800 -0.1828 -0.3456
    4SAPS   H4R  441  -0.408   6.923  10.200 -0.4663  0.1943 -0.2412
    4SAPS   H4S  442  -0.261   6.974  10.118  0.2399 -0.8238  2.3117
    4SAPS   C25  443  -0.440   7.010   9.996 -0.2465 -0.0693 -0.1989
    4SAPS   H5R  444  -0.529   7.074   9.998 -0.6564 -0.6194 -0.7256
    4SAPS   C26  445  -0.400   6.969   9.874  0.0725 -0.2780  0.3510
    4SAPS   H6R  446  -0.462   6.995   9.786  1.0198 -0.6596 -0.4501
    4SAPS   C27  447  -0.269   6.894   9.836  0.1797 -0.0161 -0.1953
    4SAPS   H7R  448  -0.201   6.900   9.923 -0.6272 -0.9143  0.5260
    4SAPS   H7S  449  -0.219   6.956   9.758  1.7636 -1.2624 -0.2134
    4SAPS   C28  450  -0.299   6.752   9.795  0.1877  0.1294 -0.1988
    4SAPS   H8R  451  -0.335   6.686   9.876 -0.4718  1.3439  0.5202
    4SAPS   C29  452  -0.286   6.714   9.668 -0.2248 -0.0438 -0.1539
    4SAPS   H9R  453  -0.319   6.611   9.647 -1.6187  0.2095  0.7113
    4SAPS  C210  454  -0.231   6.791   9.542 -0.0728  0.3726 -0.7386
    4SAPS  H10R  455  -0.186   6.715   9.475  0.6514 -0.4156  0.6065
    4SAPS  H10S  456  -0.156   6.867   9.570 -0.6115  0.6647 -0.0724
    4SAPS  C211  457  -0.341   6.879   9.482  0.2287 -0.1335  0.5788
    4SAPS  H11R  458  -0.424   6.907   9.548 -0.1457 -0.3497  0.2008
    4SAPS  C212  459  -0.346   6.912   9.353 -1.3791  0.0528  0.5212
    4SAPS  H12R  460  -0.425   6.985   9.327 -1.0838 -0.2180 -1.2215
    4SAPS  C213  461  -0.248   6.883   9.239 -0.6445 -0.4979  0.7926
    4SAPS  H13R  462  -0.300   6.868   9.143  1.6607  1.0334 -0.8197
    4SAPS  H13S  463  -0.181   6.796   9.253  0.4937  0.1648 -0.2950
    4SAPS  C214  464  -0.159   7.012   9.231 -0.1908  0.2220 -0.6501
    4SAPS  H14R  465  -0.078   7.012   9.305 -0.4704 -1.4835 -0.2959
    4SAPS  C215  466  -0.170   7.122   9.156  0.5939 -0.2353 -0.0187
    4SAPS  H15R  467  -0.090   7.196   9.147 -0.4918  1.1288  1.0641
    4SAPS  C216  468  -0.271   7.154   9.049 -0.3927  0.2462  0.7939
    4SAPS  H16R  469  -0.293   7.263   9.049 -1.9869  0.0438 -2.1987
    4SAPS  H16S  470  -0.361   7.091   9.065 -0.7479 -0.1637 -2.1942
    4SAPS  C217  471  -0.222   7.112   8.911  0.4498  0.0300 -0.7524
    4SAPS  H17R  472  -0.297   7.147   8.837  1.7704  1.7783 -1.3324
    4SAPS  H17S  473  -0.200   7.003   8.909 -1.1936 -0.3619  0.2801
    4SAPS  C218  474  -0.079   7.151   8.874  0.9161 -1.1413  0.2421
    4SAPS  H18R  475  -0.010   7.118   8.954  1.4106  0.8873  0.7046
    4SAPS  H18S  476  -0.062   7.261   8.878  1.2292 -1.2119  0.8521
    4SAPS  C219  477  -0.025   7.110   8.730  0.4055  0.0453  0.4944
    4SAPS  H19R  478  -0.059   7.007   8.703 -0.8744  0.6090 -0.1174
    4SAPS  H19S  479   0.086   7.105   8.728  0.5319  1.9765  1.1504
    4SAPS  C220  480  -0.083   7.191   8.609 -0.6386  0.5746  0.4336
    4SAPS  H20R  481  -0.013   7.272   8.578  0.0978 -0.0603  0.4049
    4SAPS  H20S  482  -0.187   7.223   8.631 -1.6634 -0.8514 -1.9468
    4SAPS  H20T  483  -0.096   7.122   8.523  0.8771  2.8484 -1.7736
    4SAPS   C33  484   0.112   7.023   9.902  0.3543  0.1724  0.4813
    4SAPS   H3X  485   0.037   6.942   9.885 -0.7424  1.5183 -1.5894
    4SAPS   H3Y  486   0.211   6.974   9.908  0.1203 -0.2480  0.9808
    4SAPS   C34  487   0.102   7.103   9.771  0.6614 -0.6212  0.7459
    4SAPS   H4X  488   0.141   7.206   9.784 -1.3481  0.3820 -0.6866
    4SAPS   H4Y  489  -0.005   7.119   9.744  1.5246  1.0135 -2.1865
    4SAPS   C35  490   0.175   7.043   9.652 -0.6924 -0.0343 -0.0197
    4SAPS   H5X  491   0.118   6.951   9.630  0.7708 -1.3438  1.4203
    4SAPS   H5Y  492   0.280   7.019   9.679 -0.6300  0.1714 -0.0776
    4SAPS   C36  493   0.177   7.129   9.532 -0.4722 -0.4478  0.0006
    4SAPS   H6X  494   0.218   7.231   9.547 -3.2416  0.5805  1.1251
    4SAPS   H6Y  495   0.070   7.145   9.505 -1.3283 -1.4537  2.5418
    4SAPS   C37  496   0.259   7.057   9.425 -0.6709  0.7635 -0.1113
    4SAPS   H7X  497   0.228   6.951   9.413  1.9125  0.0599 -1.1549
    4SAPS   H7Y  498   0.362   7.032   9.456 -0.7671  0.2061 -0.2278
    4SAPS   C38  499   0.251   7.131   9.297  0.3393  0.4114  0.1918
    4SAPS   H8X  500   0.288   7.236   9.307 -0.1582  0.5757  0.3098
    4SAPS   H8Y  501   0.145   7.143   9.266  0.6177  0.6413 -0.6976
    4SAPS   C39  502   0.334   7.056   9.194  0.4142  0.3784 -0.0411
    4SAPS   H9X  503   0.296   6.952   9.187  1.9484 -0.3310  1.6596
    4SAPS   H9Y  504   0.443   7.055   9.215  0.1765 -1.2262  1.3008
    4SAPS  C310  505   0.313   7.128   9.063 -0.0511 -0.0865  0.9270
    4SAPS  H10X  506   0.354   7.232   9.056 -1.2259  0.3944  0.9539
    4SAPS  H10Y  507   0.203   7.126   9.052  0.1114 -1.9662 -0.7820
    4SAPS  C311  508   0.366   7.046   8.949  0.4050 -0.1789 -0.0127
    4SAPS  H11X  509   0.326   7.099   8.860  0.4649  0.6789  0.4595
    4SAPS  H11Y  510   0.336   6.940   8.961  0.0608 -0.1953 -0.9262
    4SAPS  C312  511   0.520   7.059   8.937  0.0971  0.2229  0.1919
    4SAPS  H12X  512   0.559   7.019   9.033  1.2542 -1.7416 -1.0372
    4SAPS  H12Y  513   0.551   7.166   8.930 -0.4724  0.2967 -1.9927
    4SAPS  C313  514   0.577   6.977   8.816  0.1140 -0.2358  0.5271
    4SAPS  H13X  515   0.543   7.019   8.719  1.2451  0.6190  0.4896
    4SAPS  H13Y  516   0.550   6.869   8.820 -0.2091 -0.1450  1.0288
    4SAPS  C314  517   0.734   6.980   8.821 -1.2630 -1.0172 -0.1745
    4SAPS  H14X  518   0.776   6.917   8.902  0.4770  0.2082 -0.0575
    4SAPS  H14Y  519   0.781   7.076   8.851  0.7410 -1.8348 -0.5374
    4SAPS  C315  520   0.792   6.921   8.685 -0.0525  0.7110  0.5615
    4SAPS  H15X  521   0.803   7.009   8.618 -2.5647 -1.0620 -2.4429
    4SAPS  H15Y  522   0.720   6.847   8.643  1.1215  0.7442 -1.6073
    4SAPS  C316  523   0.934   6.866   8.698 -0.3093  0.1257 -0.4327
    4SAPS  H16X  524   1.010   6.943   8.725 -2.2210  0.9478  3.1600
    4SAPS  H16Y  525   0.962   6.830   8.596 -1.2813  1.7639 -1.3336
    4SAPS  C317  526   0.957   6.741   8.782 -0.0589 -0.2630  0.6766
    4SAPS  H17X  527   0.889   6.660   8.747  2.2582 -0.8162 -3.1756
    4SAPS  H17Y  528   0.935   6.762   8.889 -0.3604  0.6153  0.4473
    4SAPS  C318  529   1.095   6.687   8.771  0.3256  0.3636  0.0204
    4SAPS  H18X  530   1.174   6.748   8.818  0.5066 -1.2564  1.9519
    4SAPS  H18Y  531   1.123   6.684   8.663  3.4162 -2.9255  0.7296
    4SAPS  H18Z  532   1.096   6.582   8.807  0.8510  0.6895  0.9720
    5SAPS     N  533   3.489   1.198  11.045  0.1171  0.1965 -0.5596
    5SAPS   HN1  534   3.455   1.112  10.998  0.3807  0.0319 -0.4470
    5SAPS   HN2  535   3.584   1.229  11.017  0.3837 -0.8059 -0.8053
    5SAPS   HN3  536   3.498   1.156  11.139  1.6360 -0.5069 -0.9847
    5SAPS   C12  537   3.397   1.308  11.014 -0.0316  0.2319 -0.3468
    5SAPS  H12A  538   3.301   1.286  11.059  0.1552 -0.2927 -0.2017
    5SAPS   C13  539   3.452   1.447  11.059  0.1140  0.3586  0.7013
    5SAPS  O13A  540   3.561   1.443  11.118  0.7623 -0.2761 -0.4635
    5SAPS  O13B  541   3.401   1.551  11.016  0.0170 -0.1079 -0.4897
    5SAPS   C11  542   3.380   1.317  10.860 -0.2526 -0.2796  0.7854
    5SAPS  H11A  543   3.466   1.365  10.808  0.9534 -2.9651  0.1281
    5SAPS  H11B  544   3.295   1.386  10.840  1.8035  1.6997 -1.8028
    5SAPS     P  545   3.193   1.147  10.782  0.0782 -0.1598 -0.0332
    5SAPS   O13  546   3.174   1.032  10.871 -0.4857 -0.1138  0.0645
    5SAPS   O14  547   3.106   1.263  10.805 -0.3187  0.3708  0.1819
    5SAPS   O12  548   3.345   1.198  10.787 -0.0409 -0.1777 -0.5211
    5SAPS   O11  549   3.193   1.093  10.639 -0.4800  0.9873  0.0398
    5SAPS    C1  550   3.281   1.147  10.540  1.2109  0.1040  0.4474
    5SAPS    HA  551   3.309   1.253  10.555  1.4901 -0.2039  2.4065
    5SAPS    HB  552   3.377   1.090  10.535  1.8679  1.2757 -2.8128
    5SAPS    C2  553   3.208   1.140  10.399  0.6650  0.0848 -0.0133
    5SAPS    HS  554   3.279   1.167  10.317  0.1010  0.9452 -0.2366
    5SAPS   O21  555   3.081   1.208  10.395 -0.2734  0.2146 -0.0515
    5SAPS   C21  556   3.099   1.340  10.366 -0.1277 -0.1522  0.2051
    5SAPS   O22  557   3.207   1.383  10.323  1.0566 -0.1890  0.2124
    5SAPS   C22  558   2.964   1.414  10.386  0.3253  0.7669  0.0976
    5SAPS   H2R  559   2.946   1.430  10.494 -3.4674  1.0080 -0.4272
    5SAPS   H2S  560   2.970   1.515  10.339  0.2477  0.8837  0.3369
    5SAPS    C3  561   3.165   0.998  10.363  0.4019 -0.4462 -0.0640
    5SAPS    HX  562   3.129   0.953  10.458 -0.6359  1.4833  0.5033
    5SAPS    HY  563   3.258   0.941  10.344 -0.1887 -2.1180  1.6517
    5SAPS   O31  564   3.083   0.984  10.242  0.5884  0.6796 -0.1033
    5SAPS   C31  565   2.956   0.964  10.271 -0.2737  0.1891 -0.2730
    5SAPS   O32  566   2.910   0.938  10.382 -0.4205  0.3457  0.2172
    5SAPS   C32  567   2.870   0.981  10.157 -0.2776  0.0001 -0.1758
    5SAPS   H2X  568   2.933   0.980  10.065  1.2305 -0.6678  0.8162
    5SAPS   H2Y  569   2.824   1.082  10.164 -0.0445  0.1767 -0.9975
    5SAPS   C23  570   2.840   1.349  10.319  0.1463  0.4283  0.6912
    5SAPS   H3R  571   2.824   1.252  10.370  0.2383 -0.4087 -0.8268
    5SAPS   H3S  572   2.857   1.335  10.210  0.5861  0.1347  0.7985
    5SAPS   C24  573   2.707   1.432  10.317 -0.3098  1.0837  0.4330
    5SAPS   H4R  574   2.720   1.511  10.240  0.8471 -0.5951 -1.1968
    5SAPS   H4S  575   2.693   1.485  10.414  2.1413 -0.5512  1.7807
    5SAPS   C25  576   2.598   1.331  10.292 -0.4659  0.1757  0.3383
    5SAPS   H5R  577   2.529   1.303  10.373 -1.3560  0.8271 -0.1737
    5SAPS   C26  578   2.563   1.279  10.176 -0.2155 -0.0322 -0.3687
    5SAPS   H6R  579   2.477   1.210  10.171  0.1734 -0.7793  1.9695
    5SAPS   C27  580   2.630   1.296  10.041  0.4024  0.4032  0.4839
    5SAPS   H7R  581   2.668   1.199  10.002 -2.1926  0.2032 -1.8851
    5SAPS   H7S  582   2.721   1.358  10.054 -0.8292  2.2369  0.8125
    5SAPS   C28  583   2.536   1.347   9.928 -0.5897 -0.5725  0.0529
    5SAPS   H8R  584   2.430   1.373   9.944 -0.6134 -0.1519 -0.7563
    5SAPS   C29  585   2.586   1.387   9.809 -0.5059  1.2449  0.7112
    5SAPS   H9R  586   2.509   1.417   9.737 -0.4672  0.0194  0.1258
    5SAPS  C210  587   2.729   1.377   9.757 -0.4308 -0.4603 -0.1603
    5SAPS  H10R  588   2.795   1.380   9.846 -0.5203  3.3865 -0.0708
    5SAPS  H10S  589   2.752   1.467   9.696  0.5635 -1.6267 -1.6107
    5SAPS  C211  590   2.763   1.254   9.668  0.0018  0.2352 -0.7804
    5SAPS  H11R  591   2.793   1.169   9.732 -0.7223  1.3851  1.1833
    5SAPS  C212  592   2.759   1.247   9.532  0.0424  0.4017 -0.8019
    5SAPS  H12R  593   2.786   1.154   9.480  0.1599 -0.2689  0.4259
    5SAPS  C213  594   2.725   1.360   9.440 -0.1085 -1.5126  0.2812
    5SAPS  H13R  595   2.702   1.452   9.498  1.8574  0.0005 -1.1826
    5SAPS  H13S  596   2.641   1.338   9.371  0.2415  0.3926 -0.8221
    5SAPS  C214  597   2.845   1.409   9.360  0.3346 -0.0124  0.7889
    5SAPS  H14R  598   2.870   1.514   9.385  1.2170  0.1561 -0.6754
    5SAPS  C215  599   2.924   1.350   9.266 -0.3263  0.2802 -1.1224
    5SAPS  H15R  600   3.012   1.396   9.219  1.2939 -1.3263  0.1777
    5SAPS  C216  601   2.902   1.208   9.215 -0.1056  1.1648 -0.4512
    5SAPS  H16R  602   2.797   1.178   9.233  0.5565  0.4255  2.6834
    5SAPS  H16S  603   2.957   1.127   9.267 -0.6249 -0.6732 -2.5645
    5SAPS  C217  604   2.936   1.171   9.067  0.2285 -0.3681 -0.4830
    5SAPS  H17R  605   2.894   1.253   9.005  2.8386  2.7857  1.5857
    5SAPS  H17S  606   2.893   1.072   9.040  0.8001 -0.7437 -0.0418
    5SAPS  C218  607   3.084   1.174   9.027  0.7511 -0.1241 -0.0713
    5SAPS  H18R  608   3.123   1.278   9.032 -1.4117  0.8021 -1.1312
    5SAPS  H18S  609   3.144   1.114   9.099  3.4917 -0.0231 -2.0953
    5SAPS  C219  610   3.112   1.125   8.879 -1.0859  0.0351 -0.5559
    5SAPS  H19R  611   3.038   1.044   8.862  0.9255 -2.8642  3.0718
    5SAPS  H19S  612   3.209   1.071   8.873 -1.6067 -0.9235 -0.5863
    5SAPS  C220  613   3.118   1.239   8.781 -0.4003  1.0126  0.0683
    5SAPS  H20R  614   3.132   1.214   8.674 -0.5606  1.0647  0.0347
    5SAPS  H20S  615   3.208   1.297   8.812 -0.7555  1.2791  0.6174
    5SAPS  H20T  616   3.031   1.308   8.787 -0.8142  0.5154 -0.2264
    5SAPS   C33  617   2.773   0.861  10.151  0.4920  0.2293  0.1987
    5SAPS   H3X  618   2.701   0.863  10.235  0.5543 -0.6867  0.2896
    5SAPS   H3Y  619   2.835   0.768  10.160  1.6112  0.8580 -0.7156
    5SAPS   C34  620   2.682   0.856  10.024 -0.2255 -0.7311  0.0406
    5SAPS   H4X  621   2.635   0.956  10.014  0.2579 -0.5553 -0.4993
    5SAPS   H4Y  622   2.600   0.783  10.044  1.8828 -2.8611  1.3490
    5SAPS   C35  623   2.754   0.834   9.890 -0.5872 -0.7419 -0.1270
    5SAPS   H5X  624   2.818   0.747   9.916  0.0791  0.3199  2.0386
    5SAPS   H5Y  625   2.824   0.915   9.861  0.3797 -0.7335  2.0410
    5SAPS   C36  626   2.657   0.791   9.776 -1.0284  0.3237 -0.0030
    5SAPS   H6X  627   2.579   0.863   9.745 -1.0108 -0.4196 -1.8777
    5SAPS   H6Y  628   2.604   0.704   9.822 -1.8343  0.8987  0.1887
    5SAPS   C37  629   2.736   0.738   9.660  0.4428  0.4851 -0.1664
    5SAPS   H7X  630   2.804   0.658   9.696  1.5617 -0.0061 -3.1170
    5SAPS   H7Y  631   2.795   0.820   9.613  0.8202  0.2151 -0.1600
    5SAPS   C38  632   2.652   0.658   9.558  0.3545 -0.7958  0.7065
    5SAPS   H8X  633   2.574   0.716   9.504 -0.2156  0.1089  2.4338
    5SAPS   H8Y  634   2.596   0.575   9.605 -1.5345  0.1997  0.3221
    5SAPS   C39  635   2.740   0.606   9.450 -0.0006  0.2400  0.4767
    5SAPS   H9X  636   2.814   0.536   9.495 -1.6490 -2.7454 -1.1208
    5SAPS   H9Y  637   2.780   0.698   9.402 -0.6947 -0.5994 -1.8564
    5SAPS  C310  638   2.672   0.524   9.342 -0.0486 -0.4791 -0.5150
    5SAPS  H10X  639   2.749   0.499   9.266 -1.7047  0.1006 -2.4798
    5SAPS  H10Y  640   2.606   0.584   9.276 -0.0672  0.0347 -0.0322
    5SAPS  C311  641   2.596   0.405   9.393 -0.2186  0.6835  0.1795
    5SAPS  H11X  642   2.506   0.435   9.451 -0.4237  0.9885 -0.2879
    5SAPS  H11Y  643   2.664   0.350   9.461  0.1368  2.5813  1.4266
    5SAPS  C312  644   2.547   0.306   9.284 -0.6731  0.7200  0.0187
    5SAPS  H12X  645   2.503   0.214   9.329  0.4400 -0.1728 -0.6599
    5SAPS  H12Y  646   2.628   0.276   9.214 -2.1534 -0.2410 -1.3713
    5SAPS  C313  647   2.448   0.375   9.187  0.1670  0.6990 -0.8073
    5SAPS  H13X  648   2.492   0.463   9.136 -0.7405  0.3960 -2.1740
    5SAPS  H13Y  649   2.367   0.414   9.252  1.8806  0.6944  1.4356
    5SAPS  C314  650   2.377   0.279   9.084 -0.2438 -0.7679 -0.4767
    5SAPS  H14X  651   2.302   0.350   9.044 -0.4739  0.9437  2.6929
    5SAPS  H14Y  652   2.325   0.191   9.127 -1.7449 -0.3665 -1.3798
    5SAPS  C315  653   2.486   0.232   8.978 -0.1677 -0.5989  0.4545
    5SAPS  H15X  654   2.547   0.155   9.029 -2.6041 -2.8134  0.2160
    5SAPS  H15Y  655   2.546   0.325   8.963  1.2722 -1.6347 -0.5163
    5SAPS  C316  656   2.436   0.165   8.849 -0.1481 -0.8639  1.3420
    5SAPS  H16X  657   2.401   0.250   8.786 -1.5992 -1.6916  0.9738
    5SAPS  H16Y  658   2.352   0.098   8.879 -1.2684 -0.3895 -0.5790
    5SAPS  C317  659   2.553   0.110   8.757 -0.1308 -0.6228  0.0956
    5SAPS  H17X  660   2.512   0.080   8.659 -0.8512 -1.1250  0.5448
    5SAPS  H17Y  661   2.571   0.009   8.798  0.3141  0.0487  1.6383
    5SAPS  C318  662   2.685   0.181   8.753 -0.2299 -0.1661  0.5481
    5SAPS  H18X  663   2.753   0.140   8.676  1.1371 -0.3807  1.8249
    5SAPS  H18Y  664   2.727   0.189   8.856 -0.4023  5.2160  0.5256
    5SAPS  H18Z  665   2.679   0.290   8.729  0.3230 -0.0908  0.7406
    6SAPS     N  666   2.595   5.245  10.801 -0.3303 -0.0520  0.3541
    6SAPS   HN1  667   2.577   5.146  10.828 -1.6055  0.3118  0.9134
    6SAPS   HN2  668   2.509   5.281  10.755 -0.6455 -0.4153  0.6647
    6SAPS   HN3  669   2.677   5.255  10.738 -0.3926 -1.3656  0.0354
    6SAPS   C12  670   2.606   5.333  10.919 -0.0682 -0.1397 -0.3740
    6SAPS  H12A  671   2.516   5.309  10.974 -0.3170 -1.1272 -1.1936
    6SAPS   C13  672   2.721   5.307  11.012  0.1878 -0.5319  0.2425
    6SAPS  O13A  673   2.816   5.235  10.979  0.2283 -1.0423  0.9511
    6SAPS  O13B  674   2.730   5.386  11.112  0.4891  0.1801 -0.3171
    6SAPS   C11  675   2.611   5.482  10.873 -1.3346  0.0692 -0.6723
    6SAPS  H11A  676   2.712   5.494  10.830 -1.7753 -1.9154 -2.4552
    6SAPS  H11B  677   2.600   5.547  10.963 -0.7028 -0.8888  0.1210
    6SAPS     P  678   2.469   5.637  10.711  0.1484 -0.2330  0.0639
    6SAPS   O13  679   2.368   5.606  10.611  0.3295  0.0713 -0.6327
    6SAPS   O14  680   2.436   5.746  10.806  0.7632 -0.0121 -0.0999
    6SAPS   O12  681   2.494   5.500  10.788  0.3205 -0.6672  0.2729
    6SAPS   O11  682   2.609   5.663  10.649  0.0039  0.2995 -0.6786
    6SAPS    C1  683   2.624   5.625  10.513 -0.0247  0.2198  0.2028
    6SAPS    HA  684   2.728   5.588  10.505  0.2569  0.7744  1.1849
    6SAPS    HB  685   2.566   5.535  10.485 -0.3101  0.3047  0.5217
    6SAPS    C2  686   2.602   5.730  10.406 -0.4872  0.0860  0.3363
    6SAPS    HS  687   2.494   5.755  10.415 -0.6664  0.4666 -2.2065
    6SAPS   O21  688   2.648   5.691  10.271  0.4300 -0.0005  0.1164
    6SAPS   C21  689   2.579   5.599  10.213 -0.5424  0.2706 -0.2837
    6SAPS   O22  690   2.486   5.540  10.259 -0.0834  0.2026 -0.6651
    6SAPS   C22  691   2.647   5.563  10.080  0.0377 -0.7064  0.3418
    6SAPS   H2R  692   2.731   5.634  10.071 -1.9519  1.5697 -2.1065
    6SAPS   H2S  693   2.680   5.457  10.084 -1.3927 -1.1403  1.7488
    6SAPS    C3  694   2.672   5.866  10.438 -0.1070 -0.1149 -0.0589
    6SAPS    HX  695   2.653   5.882  10.546 -1.7262 -2.8360  0.1592
    6SAPS    HY  696   2.617   5.933  10.368  1.8550  0.7847 -0.8299
    6SAPS   O31  697   2.812   5.860  10.409  0.1150  0.7659  0.5795
    6SAPS   C31  698   2.845   5.902  10.286 -0.3255 -0.5138 -0.2888
    6SAPS   O32  699   2.768   5.955  10.209 -0.2707  0.1836 -0.0775
    6SAPS   C32  700   2.994   5.879  10.265 -0.2023  0.2878 -1.0320
    6SAPS   H2X  701   3.013   5.781  10.314 -1.4159 -0.1128 -1.3123
    6SAPS   H2Y  702   3.042   5.957  10.329  0.6677 -0.8731 -0.2292
    6SAPS   C23  703   2.550   5.579   9.962  0.2881 -0.2399 -0.1431
    6SAPS   H3R  704   2.453   5.538   9.994  0.4587  0.7998  1.8892
    6SAPS   H3S  705   2.608   5.521   9.886  0.6859  0.0074 -0.0363
    6SAPS   C24  706   2.549   5.724   9.913 -0.5265 -0.2039 -0.0396
    6SAPS   H4R  707   2.515   5.787   9.998 -1.3679 -0.9381  0.1746
    6SAPS   H4S  708   2.471   5.740   9.835 -0.5960  0.0775  0.0852
    6SAPS   C25  709   2.677   5.771   9.850  0.5794  0.2687 -0.5455
    6SAPS   H5R  710   2.745   5.816   9.924 -0.3107 -0.9860  1.0972
    6SAPS   C26  711   2.706   5.762   9.720 -0.4203  0.3722  0.3840
    6SAPS   H6R  712   2.802   5.802   9.684  0.6779 -0.6270  2.0696
    6SAPS   C27  713   2.620   5.686   9.625  0.2153 -0.4672  0.0885
    6SAPS   H7R  714   2.557   5.608   9.673 -0.1756 -0.4167 -0.3356
    6SAPS   H7S  715   2.679   5.629   9.550  0.8210  0.0653  0.1549
    6SAPS   C28  716   2.521   5.763   9.539 -0.4457 -0.5779  0.3664
    6SAPS   H8R  717   2.495   5.863   9.577 -1.6811 -0.0127 -1.8580
    6SAPS   C29  718   2.465   5.724   9.425  1.0363 -0.0611 -0.7058
    6SAPS   H9R  719   2.388   5.785   9.374  0.5402 -0.1674 -0.0944
    6SAPS  C210  720   2.480   5.588   9.368  0.0075  0.5574 -0.1034
    6SAPS  H10R  721   2.532   5.523   9.441  0.3798  1.3337  0.3455
    6SAPS  H10S  722   2.552   5.592   9.283  0.4078  0.8053  0.2362
    6SAPS  C211  723   2.354   5.523   9.329 -0.2599 -0.0197  0.1077
    6SAPS  H11R  724   2.306   5.455   9.401  0.4561  0.2395  0.8420
    6SAPS  C212  725   2.290   5.554   9.210 -0.1868  0.5035  0.1463
    6SAPS  H12R  726   2.207   5.488   9.180  0.4179 -0.6405  0.9060
    6SAPS  C213  727   2.335   5.657   9.110  0.1008  0.2253 -0.0679
    6SAPS  H13R  728   2.383   5.605   9.024  3.0842  0.5792  1.2671
    6SAPS  H13S  729   2.412   5.726   9.151  1.9336 -1.9022  0.2748
    6SAPS  C214  730   2.214   5.727   9.055 -0.3936  0.2413  0.3903
    6SAPS  H14R  731   2.153   5.792   9.120 -0.7510 -0.0977  0.3981
    6SAPS  C215  732   2.173   5.732   8.925 -0.3280 -0.5829 -0.0332
    6SAPS  H15R  733   2.093   5.803   8.901  0.6441  0.5934  0.0816
    6SAPS  C216  734   2.235   5.667   8.806  0.4286  0.8113 -0.0567
    6SAPS  H16R  735   2.172   5.578   8.781 -1.3492  1.5770  1.4991
    6SAPS  H16S  736   2.340   5.633   8.814  0.3375  0.6642  0.5634
    6SAPS  C217  737   2.225   5.768   8.686 -0.2186 -0.5757 -0.1015
    6SAPS  H17R  738   2.281   5.859   8.715  0.6831 -1.3545  0.6870
    6SAPS  H17S  739   2.120   5.787   8.655 -0.8384  1.1095  2.6157
    6SAPS  C218  740   2.309   5.702   8.581 -0.8480 -0.8415 -0.4747
    6SAPS  H18R  741   2.416   5.690   8.609 -0.9673 -0.2260  0.3043
    6SAPS  H18S  742   2.312   5.773   8.496  0.9246 -0.0088  0.2276
    6SAPS  C219  743   2.262   5.569   8.524 -0.0077 -0.7607 -0.2537
    6SAPS  H19R  744   2.151   5.569   8.534  0.0926  1.7872  2.1190
    6SAPS  H19S  745   2.305   5.485   8.581  2.1667 -0.2487 -1.0607
    6SAPS  C220  746   2.306   5.541   8.382  0.2232  0.1094 -0.2376
    6SAPS  H20R  747   2.251   5.449   8.351 -1.3198  0.0561  2.3728
    6SAPS  H20S  748   2.416   5.525   8.386  0.3895  1.0380 -0.8273
    6SAPS  H20T  749   2.263   5.605   8.302 -0.6265  1.7533  1.4640
    6SAPS   C33  750   3.028   5.903  10.118 -0.5007  0.1898  0.0419
    6SAPS   H3X  751   3.135   5.935  10.115  1.0648 -4.3818 -1.6680
    6SAPS   H3Y  752   2.977   5.978  10.053 -0.0292  0.4911  0.0136
    6SAPS   C34  753   3.053   5.766  10.051  0.2512  0.4742  0.3809
    6SAPS   H4X  754   2.955   5.713  10.051 -0.0764  1.0553  1.4686
    6SAPS   H4Y  755   3.119   5.702  10.113 -0.6462 -0.9590 -0.0777
    6SAPS   C35  756   3.075   5.784   9.901  0.0706 -0.2048 -0.1613
    6SAPS   H5X  757   3.002   5.855   9.856 -0.2685 -0.5017 -0.0820
    6SAPS   H5Y  758   3.069   5.684   9.854 -0.5948  0.3330 -1.2520
    6SAPS   C36  759   3.214   5.846   9.866 -0.0626 -0.2826  0.5862
    6SAPS   H6X  760   3.286   5.797   9.936 -0.4607 -1.0803  0.4548
    6SAPS   H6Y  761   3.215   5.953   9.895  1.3055  0.6279 -2.3753
    6SAPS   C37  762   3.267   5.821   9.727  0.7229  0.5470  0.4913
    6SAPS   H7X  763   3.344   5.896   9.701 -1.4112  2.1847 -1.5623
    6SAPS   H7Y  764   3.186   5.835   9.652  0.5461  1.8662  0.8994
    6SAPS   C38  765   3.328   5.680   9.702 -0.9033 -1.0438 -0.2790
    6SAPS   H8X  766   3.258   5.605   9.744 -1.5059 -0.7596 -0.7485
    6SAPS   H8Y  767   3.425   5.662   9.752 -0.8459  2.1196  0.9393
    6SAPS   C39  768   3.343   5.659   9.551 -1.4769  0.2786  0.3114
    6SAPS   H9X  769   3.409   5.741   9.514 -0.1116 -0.5066  0.9104
    6SAPS   H9Y  770   3.243   5.661   9.503 -1.2224  2.0469 -0.2245
    6SAPS  C310  771   3.408   5.518   9.514  0.2707 -0.0643  0.2666
    6SAPS  H10X  772   3.369   5.441   9.584 -2.8345  0.7323 -0.4376
    6SAPS  H10Y  773   3.516   5.527   9.537  0.4039 -2.4111  0.7351
    6SAPS  C311  774   3.370   5.466   9.372 -0.2724 -0.0048 -0.5842
    6SAPS  H11X  775   3.260   5.455   9.377 -0.4484  1.5724 -0.7657
    6SAPS  H11Y  776   3.402   5.360   9.361 -2.1008 -0.7345  0.7182
    6SAPS  C312  777   3.419   5.560   9.261 -1.4264 -0.9060 -0.0625
    6SAPS  H12X  778   3.507   5.507   9.219 -2.1579 -1.4248 -0.9697
    6SAPS  H12Y  779   3.439   5.656   9.314  1.4002 -0.9500 -0.8605
    6SAPS  C313  780   3.319   5.592   9.148 -0.5072  0.2122  0.0730
    6SAPS  H13X  781   3.278   5.491   9.129 -0.3469 -0.4400  2.8521
    6SAPS  H13Y  782   3.364   5.638   9.057 -0.1396  1.1005  0.6879
    6SAPS  C314  783   3.207   5.680   9.205 -0.5680  0.4412  0.2846
    6SAPS  H14X  784   3.238   5.784   9.228 -0.6665  0.8542 -1.3578
    6SAPS  H14Y  785   3.162   5.630   9.294 -0.4318  0.6772  0.4868
    6SAPS  C315  786   3.101   5.688   9.098  0.4629  0.3701 -0.2489
    6SAPS  H15X  787   3.098   5.594   9.039 -1.3613  2.2496 -3.4620
    6SAPS  H15Y  788   3.129   5.768   9.027 -0.0804  1.9787  1.2749
    6SAPS  C316  789   2.966   5.707   9.163 -0.4044 -0.8194  0.3126
    6SAPS  H16X  790   2.953   5.636   9.247  2.5594 -0.8387  0.8609
    6SAPS  H16Y  791   2.893   5.681   9.083 -1.9962 -0.7473  1.6910
    6SAPS  C317  792   2.946   5.850   9.225 -0.0133 -0.3197  0.4046
    6SAPS  H17X  793   2.911   5.916   9.143 -1.3063 -0.4451  0.8179
    6SAPS  H17Y  794   3.044   5.880   9.267  0.3967 -1.6225  0.4106
    6SAPS  C318  795   2.851   5.840   9.344  0.0572  0.6281  0.7715
    6SAPS  H18X  796   2.766   5.777   9.312  0.1610  0.8712  0.0026
    6SAPS  H18Y  797   2.818   5.944   9.367 -3.5774  0.2240 -1.8399
    6SAPS  H18Z  798   2.894   5.786   9.431 -0.8228 -0.2238  0.6912
    7SAPS     N  799   3.759   0.948  10.888 -0.7158 -0.0468 -0.0021
    7SAPS   HN1  800   3.704   0.981  10.806 -0.3792  4.3389  1.3066
    7SAPS   HN2  801   3.758   1.027  10.955  1.8786 -0.6222  0.8232
    7SAPS   HN3  802   3.856   0.923  10.860 -0.5312 -0.2971  0.8526
    7SAPS   C12  803   3.694   0.837  10.952  0.4564 -0.0455 -0.3582
    7SAPS  H12A  804   3.744   0.833  11.048 -1.9878 -0.8034  0.9781
    7SAPS   C13  805   3.548   0.865  10.989 -0.0844  0.0947  0.3674
    7SAPS  O13A  806   3.484   0.956  10.940 -0.0788  0.2067 -0.2627
    7SAPS  O13B  807   3.484   0.774  11.049  0.1540  0.2343 -0.5238
    7SAPS   C11  808   3.704   0.713  10.861  0.2353 -0.1213 -0.5560
    7SAPS  H11A  809   3.633   0.739  10.780  0.7054  2.4090 -0.2359
    7SAPS  H11B  810   3.671   0.623  10.918 -0.3253  0.3253 -0.1721
    7SAPS     P  811   3.867   0.621  10.681 -0.2791  0.5784 -0.0905
    7SAPS   O13  812   4.011   0.625  10.657  0.6610  0.4419 -0.0070
    7SAPS   O14  813   3.802   0.490  10.686  0.3044 -0.4228 -0.0207
    7SAPS   O12  814   3.837   0.688  10.819 -0.0218 -0.4327 -0.0309
    7SAPS   O11  815   3.788   0.706  10.573  0.6175 -0.4044  0.6413
    7SAPS    C1  816   3.827   0.842  10.544 -0.0303 -0.1667  0.5631
    7SAPS    HA  817   3.744   0.912  10.566 -0.9342 -1.5016  1.5368
    7SAPS    HB  818   3.907   0.879  10.611 -2.0368  1.1902  2.3453
    7SAPS    C2  819   3.865   0.854  10.397 -1.0663 -0.3890 -0.0188
    7SAPS    HS  820   3.898   0.956  10.371 -1.1541 -1.0686 -3.2051
    7SAPS   O21  821   3.749   0.815  10.312  0.0981 -0.4958 -0.1897
    7SAPS   C21  822   3.663   0.912  10.310  0.1961 -0.0355 -0.0807
    7SAPS   O22  823   3.655   1.011  10.377  0.1032  0.3036 -0.0867
    7SAPS   C22  824   3.561   0.886  10.202  0.1896  0.3647 -0.5133
    7SAPS   H2R  825   3.593   0.796  10.145  0.8998  0.6327 -0.5417
    7SAPS   H2S  826   3.473   0.856  10.262 -0.3815  1.3544 -0.8323
    7SAPS    C3  827   3.982   0.757  10.370 -0.2707 -0.2533 -0.8719
    7SAPS    HX  828   3.960   0.651  10.397  4.9127 -1.6330 -1.0666
    7SAPS    HY  829   4.065   0.784  10.439 -1.2267  1.2677 -0.2794
    7SAPS   O31  830   4.021   0.761  10.228 -0.3111  0.1421 -0.4915
    7SAPS   C31  831   4.123   0.838  10.197  0.0234 -0.3846 -0.0485
    7SAPS   O32  832   4.180   0.913  10.274 -0.2943 -0.1485  0.3309
    7SAPS   C32  833   4.160   0.824  10.050 -0.6543 -0.0404 -0.3713
    7SAPS   H2X  834   4.087   0.879   9.988 -1.5761  0.8512  1.4176
    7SAPS   H2Y  835   4.174   0.719  10.019  3.0444  0.2654 -0.1276
    7SAPS   C23  836   3.541   1.002  10.109 -0.3361  0.5416  0.3501
    7SAPS   H3R  837   3.493   1.081  10.171  1.1462  1.0033  0.9487
    7SAPS   H3S  838   3.474   0.972  10.025 -1.0416 -1.0330  1.4259
    7SAPS   C24  839   3.673   1.049  10.032  0.3231 -0.3904 -0.3948
    7SAPS   H4R  840   3.743   1.089  10.109 -0.7377  0.5261  0.1225
    7SAPS   H4S  841   3.656   1.136   9.965 -1.9263  0.8672  1.6429
    7SAPS   C25  842   3.735   0.930   9.967 -0.0391  0.3294  0.2118
    7SAPS   H5R  843   3.762   0.846  10.033  1.4978 -0.6690 -1.6021
    7SAPS   C26  844   3.758   0.912   9.837 -0.2003  0.2545  1.1118
    7SAPS   H6R  845   3.793   0.813   9.804  1.4715  0.7579  1.2986
    7SAPS   C27  846   3.732   1.009   9.721 -0.1012  0.3243  0.0871
    7SAPS   H7R  847   3.793   0.981   9.633 -1.0729 -1.2459 -0.1211
    7SAPS   H7S  848   3.776   1.108   9.746 -0.3014  0.2065  0.9481
    7SAPS   C28  849   3.589   1.022   9.681 -0.2261 -0.3026  0.2368
    7SAPS   H8R  850   3.518   1.045   9.762 -0.2025 -0.3240  0.2633
    7SAPS   C29  851   3.531   1.011   9.557 -0.0530  0.7591 -0.3250
    7SAPS   H9R  852   3.421   1.003   9.560 -0.0013  0.2734  0.7933
    7SAPS  C210  853   3.583   0.970   9.424 -0.1817 -0.1518  0.3517
    7SAPS  H10R  854   3.685   1.009   9.403 -0.1820 -0.3596 -0.0326
    7SAPS  H10S  855   3.518   1.006   9.342 -2.1037 -1.4346  1.2358
    7SAPS  C211  856   3.576   0.822   9.412  0.1778  1.0716 -0.4228
    7SAPS  H11R  857   3.605   0.768   9.503  2.3871  3.0659  0.1376
    7SAPS  C212  858   3.528   0.752   9.305  0.4618  0.2612  0.0328
    7SAPS  H12R  859   3.525   0.642   9.305 -0.2128  0.2775  0.3407
    7SAPS  C213  860   3.482   0.823   9.182  0.2073 -0.3799 -0.1376
    7SAPS  H13R  861   3.569   0.873   9.134  0.9320  0.2706  1.7604
    7SAPS  H13S  862   3.412   0.904   9.212  0.3160 -0.4488  0.3181
    7SAPS  C214  863   3.416   0.722   9.088  0.1419 -0.4291 -0.0237
    7SAPS  H14R  864   3.480   0.671   9.015  1.0552 -0.0664  0.5188
    7SAPS  C215  865   3.288   0.680   9.090  0.3355 -0.5982  0.5137
    7SAPS  H15R  866   3.251   0.611   9.014  3.0836 -1.0994 -0.4634
    7SAPS  C216  867   3.181   0.724   9.190 -0.0278 -0.3394 -0.0089
    7SAPS  H16R  868   3.216   0.797   9.266 -0.5673 -0.9708  0.8749
    7SAPS  H16S  869   3.153   0.643   9.261 -2.7513  1.1229  0.7128
    7SAPS  C217  870   3.051   0.780   9.131 -0.6756  0.8420  0.3967
    7SAPS  H17R  871   3.076   0.864   9.062  0.6556  2.6775  2.9613
    7SAPS  H17S  872   2.985   0.821   9.210 -1.4711 -0.2554  0.3291
    7SAPS  C218  873   2.963   0.672   9.059 -0.4977  0.2340 -0.2564
    7SAPS  H18R  874   2.959   0.575   9.113  2.8112  0.3356  0.4203
    7SAPS  H18S  875   3.014   0.637   8.966 -0.4991  1.6643 -0.8141
    7SAPS  C219  876   2.825   0.730   9.034  0.2409  0.3541  0.0496
    7SAPS  H19R  877   2.831   0.818   8.966 -1.3945  0.1836 -0.3685
    7SAPS  H19S  878   2.776   0.759   9.130 -1.6523 -1.5446 -0.2643
    7SAPS  C220  879   2.727   0.635   8.968 -0.5116  0.3576  0.1077
    7SAPS  H20R  880   2.633   0.681   8.931 -0.1536  0.2084 -1.0240
    7SAPS  H20S  881   2.700   0.551   9.035  0.3737  0.6435  0.8362
    7SAPS  H20T  882   2.780   0.586   8.884 -2.1187  0.9957 -1.3470
    7SAPS   C33  883   4.290   0.901  10.007  0.5076 -0.9141  0.1055
    7SAPS   H3X  884   4.380   0.870  10.064  0.5848  1.0059  1.1026
    7SAPS   H3Y  885   4.271   1.010  10.013  0.9508 -0.8048 -0.3999
    7SAPS   C34  886   4.314   0.866   9.855  0.4754 -0.2754 -0.6873
    7SAPS   H4X  887   4.224   0.907   9.806  0.3334 -0.8533 -0.9135
    7SAPS   H4Y  888   4.316   0.756   9.839 -1.2483 -0.5535  0.7060
    7SAPS   C35  889   4.447   0.930   9.794 -0.8067 -0.5426 -0.1738
    7SAPS   H5X  890   4.533   0.885   9.848 -1.0851  0.3340  1.0219
    7SAPS   H5Y  891   4.452   1.040   9.809 -0.0459 -0.2868 -2.0371
    7SAPS   C36  892   4.463   0.909   9.644 -0.1871 -0.1059  0.0420
    7SAPS   H6X  893   4.528   0.988   9.601 -2.5694  1.0709 -1.6350
    7SAPS   H6Y  894   4.372   0.907   9.580 -0.3793 -0.1974  0.3168
    7SAPS   C37  895   4.534   0.780   9.618  0.5675 -0.0901 -0.6318
    7SAPS   H7X  896   4.480   0.694   9.664  0.3292  0.3350 -0.1104
    7SAPS   H7Y  897   4.634   0.794   9.664  0.0662  2.1772 -0.1015
    7SAPS   C38  898   4.559   0.740   9.471  0.4654 -0.0784  0.1436
    7SAPS   H8X  899   4.466   0.722   9.415  0.1775 -2.1661  1.1913
    7SAPS   H8Y  900   4.622   0.648   9.468  1.2328  0.4339  0.1615
    7SAPS   C39  901   4.651   0.834   9.397 -0.1564  0.1947  0.6701
    7SAPS   H9X  902   4.756   0.824   9.431  0.3607 -1.2261 -1.1663
    7SAPS   H9Y  903   4.623   0.941   9.411  0.5957  0.1991  2.4614
    7SAPS  C310  904   4.650   0.805   9.249  0.1822 -0.4794  0.2495
    7SAPS  H10X  905   4.546   0.806   9.211  0.3836  0.1470 -0.3055
    7SAPS  H10Y  906   4.689   0.702   9.231  0.2943 -0.2547 -0.8897
    7SAPS  C311  907   4.734   0.914   9.176 -0.3924  0.8588  0.5099
    7SAPS  H11X  908   4.838   0.885   9.200  0.2712  0.5816 -2.3191
    7SAPS  H11Y  909   4.705   1.016   9.209 -2.5616  0.1167  1.0936
    7SAPS  C312  910   4.724   0.895   9.025  0.2391  0.4411  0.0201
    7SAPS  H12X  911   4.621   0.911   8.987  0.9065  2.1375 -1.2260
    7SAPS  H12Y  912   4.751   0.791   8.997 -1.1472  0.3530 -1.0718
    7SAPS  C313  913   4.835   0.984   8.958 -0.4416 -0.4623  0.0576
    7SAPS  H13X  914   4.925   0.973   9.021 -1.2162 -2.4295  0.9164
    7SAPS  H13Y  915   4.812   1.092   8.954 -0.0003 -0.3316  0.9062
    7SAPS  C314  916   4.873   0.946   8.812 -0.7690 -0.0435  0.1309
    7SAPS  H14X  917   4.778   0.958   8.754 -1.4896 -0.4836  1.1936
    7SAPS  H14Y  918   4.906   0.841   8.806  1.0552  0.5885 -3.5672
    7SAPS  C315  919   4.991   1.033   8.758  0.2129 -0.0613  0.2485
    7SAPS  H15X  920   5.078   1.003   8.820 -0.5426 -0.5692  1.0893
    7SAPS  H15Y  921   4.973   1.141   8.772  2.2254  0.1908  1.1740
    7SAPS  C316  922   5.037   0.997   8.617 -0.2135  0.3576  0.1218
    7SAPS  H16X  923   5.057   0.891   8.590 -2.3872  0.3175 -1.5561
    7SAPS  H16Y  924   5.134   1.051   8.602 -0.2670  0.7077  0.9819
    7SAPS  C317  925   4.942   1.036   8.505  0.0633  0.4857 -0.3333
    7SAPS  H17X  926   4.836   1.008   8.523 -0.2887  0.9464 -1.5467
    7SAPS  H17Y  927   4.958   0.967   8.419 -1.3351 -1.0828  0.6214
    7SAPS  C318  928   4.958   1.182   8.461  0.3721 -0.1312  0.6840
    7SAPS  H18X  929   4.887   1.209   8.380 -0.8641  0.3180  1.8796
    7SAPS  H18Y  930   5.060   1.208   8.425  0.2930 -3.1440 -2.2517
    7SAPS  H18Z  931   4.953   1.251   8.547 -0.5741  1.1842 -0.3851
    8SAPS     N  932   3.818   1.468  10.988  0.3597  0.0147 -0.0806
    8SAPS   HN1  933   3.789   1.483  10.889 -0.2496  1.5784  0.3121
    8SAPS   HN2  934   3.726   1.436  11.025  0.8805  1.3053  2.5501
    8SAPS   HN3  935   3.845   1.561  11.026  0.7744 -0.4470  0.7959
    8SAPS   C12  936   3.917   1.366  11.001 -0.0621 -0.0465  0.3278
    8SAPS  H12A  937   3.953   1.380  11.102 -0.7267  0.6877  0.4814
    8SAPS   C13  938   3.872   1.220  10.990  0.4267  0.1605  0.1550
    8SAPS  O13A  939   3.748   1.199  11.007  0.4851  0.2006  0.0303
    8SAPS  O13B  940   3.955   1.124  10.999  0.1887 -0.3745 -0.1364
    8SAPS   C11  941   4.023   1.388  10.897  0.0837 -0.1616 -0.0863
    8SAPS  H11A  942   3.980   1.381  10.795  0.2963 -1.7426 -0.0993
    8SAPS  H11B  943   4.098   1.306  10.910  0.5870  0.5837  2.0903
    8SAPS     P  944   4.210   1.551  10.827  0.3174 -0.0655  0.1760
    8SAPS   O13  945   4.225   1.697  10.813 -0.2693 -0.6073 -0.3404
    8SAPS   O14  946   4.316   1.480  10.884 -0.2353  0.2338 -0.1087
    8SAPS   O12  947   4.081   1.522  10.909  0.3746 -0.3634  0.0517
    8SAPS   O11  948   4.188   1.487  10.681 -0.2420  0.2620  0.0721
    8SAPS    C1  949   4.163   1.554  10.557  0.2601 -0.9764 -1.0208
    8SAPS    HA  950   4.186   1.662  10.567  0.8767 -1.3169  1.9079
    8SAPS    HB  951   4.222   1.508  10.474  0.7294 -0.5526 -0.9286
    8SAPS    C2  952   4.016   1.552  10.521  0.3531  0.5381  0.1026
    8SAPS    HS  953   3.991   1.448  10.549  1.1022  0.2411 -0.3198
    8SAPS   O21  954   4.011   1.567  10.379 -0.0390  0.0398 -0.0057
    8SAPS   C21  955   3.897   1.517  10.331  0.1944 -0.6911 -0.2279
    8SAPS   O22  956   3.826   1.434  10.388 -0.7645  0.8914  0.0646
    8SAPS   C22  957   3.866   1.578  10.184 -0.0090 -0.3915 -0.5824
    8SAPS   H2R  958   3.848   1.687  10.197  0.0155 -0.3535 -0.8621
    8SAPS   H2S  959   3.955   1.554  10.122  0.5502 -2.5003  0.9234
    8SAPS    C3  960   3.932   1.660  10.599  0.3142 -0.5669 -0.5100
    8SAPS    HX  961   3.978   1.752  10.560  2.2826 -0.3943  1.9465
    8SAPS    HY  962   3.944   1.652  10.710 -1.5730  0.1971 -0.2149
    8SAPS   O31  963   3.790   1.658  10.570  0.3348 -0.4578 -0.0551
    8SAPS   C31  964   3.720   1.582  10.638  0.6475 -0.3138  0.3623
    8SAPS   O32  965   3.761   1.496  10.709  0.2043 -0.6588  0.1749
    8SAPS   C32  966   3.573   1.622  10.626  0.4338 -0.1415 -0.3557
    8SAPS   H2X  967   3.554   1.723  10.669 -1.3742 -1.0495  1.1248
    8SAPS   H2Y  968   3.518   1.546  10.686  2.1459  1.3165  3.3823
    8SAPS   C23  969   3.739   1.521  10.108  0.6514 -0.2521 -0.5365
    8SAPS   H3R  970   3.661   1.521  10.186  0.3867  1.1878 -0.7709
    8SAPS   H3S  971   3.762   1.416  10.080 -1.2637 -0.3700 -1.8651
    8SAPS   C24  972   3.695   1.608   9.991  0.1602 -0.1940  0.7331
    8SAPS   H4R  973   3.786   1.624   9.928 -0.8744 -0.7843 -0.9749
    8SAPS   H4S  974   3.666   1.707  10.032 -1.0971 -1.3399  2.7776
    8SAPS   C25  975   3.576   1.550   9.915 -0.7441 -0.5883  0.0945
    8SAPS   H5R  976   3.478   1.580   9.954  0.2528  2.2958  0.6656
    8SAPS   C26  977   3.587   1.473   9.807  0.3987  0.0585 -0.0144
    8SAPS   H6R  978   3.494   1.441   9.758  1.6146 -1.6389 -1.3376
    8SAPS   C27  979   3.712   1.443   9.735 -0.9589  0.9172 -0.5086
    8SAPS   H7R  980   3.715   1.334   9.710 -0.6354  1.0515 -1.0782
    8SAPS   H7S  981   3.802   1.462   9.797  0.8429 -4.1043 -1.0497
    8SAPS   C28  982   3.722   1.531   9.612 -0.9297 -0.2737 -0.4870
    8SAPS   H8R  983   3.692   1.635   9.630 -0.9161 -0.1802 -0.9751
    8SAPS   C29  984   3.743   1.494   9.490  0.3381  0.1291 -0.6087
    8SAPS   H9R  985   3.741   1.570   9.411 -1.6511  2.7901  1.7920
    8SAPS  C210  986   3.763   1.355   9.450  1.0187  0.3051 -0.1296
    8SAPS  H10R  987   3.710   1.286   9.519 -0.1905  0.1356 -1.1896
    8SAPS  H10S  988   3.871   1.329   9.461  1.3461  0.7566 -1.9615
    8SAPS  C211  989   3.718   1.313   9.316  0.7148 -0.3091  0.0934
    8SAPS  H11R  990   3.628   1.248   9.318  0.5741 -0.1127  1.4405
    8SAPS  C212  991   3.758   1.358   9.198  0.2923  0.4955  0.1746
    8SAPS  H12R  992   3.710   1.308   9.113  1.5915 -1.1155  0.3462
    8SAPS  C213  993   3.879   1.454   9.182  0.2658  0.6015  0.4641
    8SAPS  H13R  994   3.958   1.376   9.172 -0.3069 -0.4560  3.2341
    8SAPS  H13S  995   3.887   1.519   9.272 -4.1539  1.1528  0.6606
    8SAPS  C214  996   3.867   1.538   9.051  0.5425 -0.6470  0.0444
    8SAPS  H14R  997   3.946   1.528   8.975  2.4649 -1.4978  2.0445
    8SAPS  C215  998   3.759   1.618   9.026 -0.3316 -0.2543 -0.3423
    8SAPS  H15R  999   3.749   1.656   8.923 -1.9849 -0.5585 -0.3249
    8SAPS  C216 1000   3.639   1.645   9.107  0.5822 -0.7007 -0.4780
    8SAPS  H16R 1001   3.628   1.755   9.110 -0.1062 -0.7194 -1.6351
    8SAPS  H16S 1002   3.644   1.620   9.215  0.5759 -0.3579 -0.3974
    8SAPS  C217 1003   3.505   1.589   9.050 -0.6454  1.2151 -0.5302
    8SAPS  H17R 1004   3.427   1.642   9.108 -1.1476  0.1646 -0.2305
    8SAPS  H17S 1005   3.487   1.484   9.083 -0.8119  0.7775 -1.9607
    8SAPS  C218 1006   3.480   1.619   8.904  0.4359  0.1621  0.8822
    8SAPS  H18R 1007   3.557   1.564   8.845 -1.4483 -0.5407 -1.0482
    8SAPS  H18S 1008   3.481   1.728   8.882 -0.2927  0.1341  0.6932
    8SAPS  C219 1009   3.353   1.558   8.845  1.1103 -0.0383  0.8731
    8SAPS  H19R 1010   3.261   1.601   8.889 -0.1101  1.5303 -2.8059
    8SAPS  H19S 1011   3.358   1.449   8.867  1.0200 -0.1798  0.2343
    8SAPS  C220 1012   3.341   1.575   8.690 -0.0829 -0.1542  0.1235
    8SAPS  H20R 1013   3.243   1.525   8.671  1.5926 -3.0455 -1.7115
    8SAPS  H20S 1014   3.417   1.518   8.633 -0.4968 -0.8603  0.2687
    8SAPS  H20T 1015   3.347   1.680   8.653  0.8134 -1.1762 -2.9154
    8SAPS   C33 1016   3.527   1.624  10.476  0.0685 -0.0379  0.3616
    8SAPS   H3X 1017   3.529   1.524  10.428 -2.8907  0.4345 -0.9824
    8SAPS   H3Y 1018   3.597   1.685  10.415 -0.2263  0.0326  0.0873
    8SAPS   C34 1019   3.382   1.683  10.443 -0.3967  0.8488 -0.5234
    8SAPS   H4X 1020   3.389   1.780  10.498  1.1451  0.1705  0.5784
    8SAPS   H4Y 1021   3.312   1.619  10.501 -2.0451  3.0910  0.1106
    8SAPS   C35 1022   3.353   1.693  10.297 -0.1207 -0.8654  0.2390
    8SAPS   H5X 1023   3.245   1.717  10.293  0.1477  1.1864  2.5855
    8SAPS   H5Y 1024   3.386   1.608  10.233  0.2173 -1.5026  1.2271
    8SAPS   C36 1025   3.421   1.812  10.233 -0.1488  0.0931  0.5724
    8SAPS   H6X 1026   3.530   1.809  10.253 -0.1837  0.9490  0.9568
    8SAPS   H6Y 1027   3.384   1.906  10.280  0.6834  0.3102  0.8112
    8SAPS   C37 1028   3.389   1.816  10.084 -0.0216 -0.4835  0.0393
    8SAPS   H7X 1029   3.280   1.819  10.061  0.1011  0.0223 -0.5051
    8SAPS   H7Y 1030   3.421   1.714  10.054 -0.5705 -1.0237  1.2046
    8SAPS   C38 1031   3.463   1.917   9.996  0.0348 -0.0785 -0.0707
    8SAPS   H8X 1032   3.574   1.914  10.003 -0.0212 -0.0443  0.9099
    8SAPS   H8Y 1033   3.435   2.016  10.038 -0.8913 -0.7580  0.9634
    8SAPS   C39 1034   3.425   1.903   9.850 -0.6131  0.5840 -0.3271
    8SAPS   H9X 1035   3.321   1.940   9.833 -1.0104 -0.8221 -1.1738
    8SAPS   H9Y 1036   3.435   1.800   9.810  1.3596  2.1967 -4.5231
    8SAPS  C310 1037   3.538   1.975   9.768 -0.1916  0.1879  0.4212
    8SAPS  H10X 1038   3.641   1.959   9.804  0.0046  0.0359 -0.2014
    8SAPS  H10Y 1039   3.523   2.084   9.784  2.5941  0.6876  0.0321
    8SAPS  C311 1040   3.536   1.932   9.620 -0.5024 -0.8599  0.3360
    8SAPS  H11X 1041   3.436   1.957   9.580 -1.4839 -0.2514  2.9613
    8SAPS  H11Y 1042   3.538   1.821   9.624 -1.5681 -0.9838 -1.5585
    8SAPS  C312 1043   3.644   1.992   9.531  0.2128 -0.1584 -0.6780
    8SAPS  H12X 1044   3.735   1.998   9.593  0.7727  2.8784 -1.6601
    8SAPS  H12Y 1045   3.609   2.096   9.513 -0.7522 -0.4605 -0.6356
    8SAPS  C313 1046   3.673   1.907   9.408 -0.2159 -0.0222  0.4700
    8SAPS  H13X 1047   3.578   1.896   9.351  0.1308 -3.7444  0.3808
    8SAPS  H13Y 1048   3.702   1.805   9.441 -2.1738 -0.7442  0.1140
    8SAPS  C314 1049   3.788   1.949   9.319 -0.8185 -0.3517 -0.0469
    8SAPS  H14X 1050   3.828   1.866   9.257 -1.3058 -0.0192 -0.8261
    8SAPS  H14Y 1051   3.873   1.969   9.387 -0.3762  0.6294 -0.8551
    8SAPS  C315 1052   3.768   2.083   9.241  0.0751 -0.1114 -0.3081
    8SAPS  H15X 1053   3.735   2.148   9.325 -0.3986 -0.9417  0.1630
    8SAPS  H15Y 1054   3.694   2.059   9.161  0.0610 -0.8164 -0.0878
    8SAPS  C316 1055   3.888   2.142   9.170 -0.0952  0.3759  0.1395
    8SAPS  H16X 1056   3.890   2.099   9.067 -3.4740 -2.3965  1.0486
    8SAPS  H16Y 1057   3.984   2.114   9.218  0.7711 -0.3499 -1.9163
    8SAPS  C317 1058   3.883   2.294   9.162  0.3183  0.0661 -0.2753
    8SAPS  H17X 1059   3.879   2.346   9.260  1.0730 -0.9456  0.3114
    8SAPS  H17Y 1060   3.783   2.324   9.124 -2.0274 -1.8034  3.7399
    8SAPS  C318 1061   3.995   2.357   9.081  0.0815 -0.6455 -0.2933
    8SAPS  H18X 1062   4.018   2.301   8.988  0.7411 -0.3979 -0.2839
    8SAPS  H18Y 1063   4.088   2.367   9.142 -1.0511 -0.8785  1.5482
    8SAPS  H18Z 1064   3.962   2.461   9.060 -0.1232 -1.2721 -3.6700
    9SAPS     N 1065   5.980   5.085   6.495  0.0779 -0.9380 -0.2593
    9SAPS   HN1 1066   6.036   5.013   6.544  1.0116 -0.3936 -0.4928
    9SAPS   HN2 1067   5.990   5.180   6.537 -0.5200 -0.9178 -0.1541
    9SAPS   HN3 1068   5.880   5.061   6.508 -0.1625  0.5939  1.0211
    9SAPS   C12 1069   6.006   5.077   6.345  0.4188  0.4922  0.0105
    9SAPS  H12A 1070   5.978   4.980   6.306  2.3193 -0.1776  0.2062
    9SAPS   C13 1071   5.927   5.187   6.273  0.2342 -0.0173  0.1901
    9SAPS  O13A 1072   5.857   5.274   6.329  0.0326  0.2562 -0.3692
    9SAPS  O13B 1073   5.911   5.171   6.145 -0.1223 -0.2887 -0.8982
    9SAPS   C11 1074   6.150   5.085   6.321  0.2041 -0.0376 -0.6494
    9SAPS  H11A 1075   6.179   5.180   6.371  1.4067  1.0779 -3.2497
    9SAPS  H11B 1076   6.173   5.109   6.214  0.8165  1.0182 -0.3019
    9SAPS     P 1077   6.364   4.992   6.409 -0.2287 -0.3853 -0.3013
    9SAPS   O13 1078   6.423   4.867   6.456 -0.2966 -0.1669 -0.5050
    9SAPS   O14 1079   6.433   5.061   6.294  0.6036 -0.0341  0.6096
    9SAPS   O12 1080   6.221   4.964   6.361 -0.1212 -0.3219  0.1385
    9SAPS   O11 1081   6.334   5.083   6.532  0.1827 -0.3338  0.2056
    9SAPS    C1 1082   6.304   5.032   6.666 -0.3299  0.0177  0.1100
    9SAPS    HA 1083   6.227   4.952   6.662 -0.2959  0.0098 -0.4704
    9SAPS    HB 1084   6.394   5.003   6.725 -0.6437 -1.6916 -0.2045
    9SAPS    C2 1085   6.264   5.154   6.751  0.3131  0.1288  0.2395
    9SAPS    HS 1086   6.164   5.186   6.713  0.4533  1.0099  0.6167
    9SAPS   O21 1087   6.358   5.263   6.732 -0.3680 -0.1593 -0.7195
    9SAPS   C21 1088   6.314   5.380   6.769 -0.4594  0.1835 -0.5293
    9SAPS   O22 1089   6.204   5.412   6.814 -0.0445 -0.3389 -0.1882
    9SAPS   C22 1090   6.434   5.470   6.745  0.5028 -0.6166 -0.1375
    9SAPS   H2R 1091   6.498   5.436   6.662 -1.4612 -1.3065 -1.4437
    9SAPS   H2S 1092   6.390   5.569   6.719 -2.3703 -1.8394 -0.3030
    9SAPS    C3 1093   6.253   5.120   6.902  0.1576 -0.2657  0.4059
    9SAPS    HX 1094   6.173   5.043   6.911  1.1969 -1.2858  1.2486
    9SAPS    HY 1095   6.202   5.195   6.967 -1.2817 -1.0490  0.2353
    9SAPS   O31 1096   6.363   5.056   6.962  0.0845 -0.1876  0.0243
    9SAPS   C31 1097   6.396   5.094   7.086 -0.2154 -0.2962 -0.0356
    9SAPS   O32 1098   6.338   5.174   7.153  0.2278 -0.1691 -0.9267
    9SAPS   C32 1099   6.535   5.035   7.115 -0.5437  0.7170 -0.7129
    9SAPS   H2X 1100   6.603   5.123   7.122 -0.5093  0.5393  3.1239
    9SAPS   H2Y 1101   6.574   4.978   7.029  0.8159  0.4367  0.0662
    9SAPS   C23 1102   6.534   5.469   6.863  0.2225 -0.0620  0.3599
    9SAPS   H3R 1103   6.622   5.527   6.826 -0.1522  0.3807  0.1493
    9SAPS   H3S 1104   6.564   5.362   6.864  1.5984  0.2887 -0.4670
    9SAPS   C24 1105   6.475   5.517   6.999  0.2739  0.3151  0.8508
    9SAPS   H4R 1106   6.374   5.471   7.013  0.8154 -0.6239  1.8086
    9SAPS   H4S 1107   6.469   5.627   6.983 -1.1393 -0.0227 -1.4329
    9SAPS   C25 1108   6.570   5.457   7.100 -0.0873 -0.2434  0.1285
    9SAPS   H5R 1109   6.660   5.403   7.067  0.2923 -0.1479  0.9978
    9SAPS   C26 1110   6.535   5.478   7.230  0.0274  0.4987 -0.3018
    9SAPS   H6R 1111   6.592   5.439   7.315 -0.8316  0.8567  0.4461
    9SAPS   C27 1112   6.414   5.551   7.284  0.0280 -0.3932 -0.1376
    9SAPS   H7R 1113   6.340   5.476   7.318 -1.1347  0.4632 -0.6682
    9SAPS   H7S 1114   6.359   5.611   7.208  1.4007 -0.0688 -0.9134
    9SAPS   C28 1115   6.451   5.639   7.402  0.4754 -0.5907 -0.2699
    9SAPS   H8R 1116   6.470   5.746   7.385 -0.8163 -0.1831  0.6769
    9SAPS   C29 1117   6.463   5.602   7.524  0.0075  0.2979 -1.1855
    9SAPS   H9R 1118   6.491   5.677   7.600 -1.0910  1.8661 -2.2717
    9SAPS  C210 1119   6.435   5.460   7.579  1.2979 -0.0496 -0.1694
    9SAPS  H10R 1120   6.537   5.417   7.593  0.8679 -0.4497  2.0446
    9SAPS  H10S 1121   6.379   5.394   7.509  0.2634  1.1654 -0.5222
    9SAPS  C211 1122   6.362   5.462   7.709 -0.4567 -0.0874 -0.3255
    9SAPS  H11R 1123   6.274   5.527   7.715 -0.8421 -0.4056 -2.0977
    9SAPS  C212 1124   6.406   5.397   7.824  0.2185 -0.1119  0.1135
    9SAPS  H12R 1125   6.348   5.412   7.916  1.8781 -0.7490  1.3093
    9SAPS  C213 1126   6.517   5.301   7.836  0.4574 -0.7372 -0.3537
    9SAPS  H13R 1127   6.527   5.240   7.744  2.4793  1.3370 -1.6179
    9SAPS  H13S 1128   6.483   5.232   7.916 -0.0934  0.7390  0.7303
    9SAPS  C214 1129   6.647   5.360   7.881 -0.9807  0.3545  0.6839
    9SAPS  H14R 1130   6.723   5.372   7.803  1.1369 -2.4657  2.1122
    9SAPS  C215 1131   6.694   5.384   8.002  0.3509 -0.6112 -0.5512
    9SAPS  H15R 1132   6.794   5.423   8.027  0.9282 -0.6517 -2.6365
    9SAPS  C216 1133   6.616   5.376   8.128  0.6243  0.4077 -0.3257
    9SAPS  H16R 1134   6.663   5.306   8.200 -2.3469 -1.1054  0.3086
    9SAPS  H16S 1135   6.509   5.349   8.116  0.4884  0.6116  0.3815
    9SAPS  C217 1136   6.605   5.517   8.198 -0.1031 -0.6275  0.0898
    9SAPS  H17R 1137   6.543   5.515   8.290 -0.7411  1.1665 -0.2557
    9SAPS  H17S 1138   6.541   5.578   8.131 -1.9877 -0.6637  1.7859
    9SAPS  C218 1139   6.741   5.586   8.232  0.1023 -0.5228  0.5817
    9SAPS  H18R 1140   6.770   5.633   8.135  1.7210 -1.7013  0.4596
    9SAPS  H18S 1141   6.825   5.520   8.259  0.8793  0.2310  0.0528
    9SAPS  C219 1142   6.735   5.698   8.339 -0.6795  0.6367  0.9391
    9SAPS  H19R 1143   6.715   5.648   8.436 -0.5100 -0.8415  0.2374
    9SAPS  H19S 1144   6.654   5.768   8.310 -0.0058  0.5078 -1.4500
    9SAPS  C220 1145   6.870   5.769   8.352 -0.8056  0.0720 -0.3407
    9SAPS  H20R 1146   6.872   5.855   8.423  3.2010  0.2135 -0.3966
    9SAPS  H20S 1147   6.911   5.791   8.252  0.1517 -0.5863 -0.1097
    9SAPS  H20T 1148   6.927   5.688   8.403 -0.6503  0.0287 -0.5848
    9SAPS   C33 1149   6.543   4.965   7.251 -0.7407 -0.6447  0.5617
    9SAPS   H3X 1150   6.640   4.911   7.264 -1.1769 -1.9706 -1.3101
    9SAPS   H3Y 1151   6.464   4.887   7.252 -0.2595 -1.1396  0.5837
    9SAPS   C34 1152   6.537   5.043   7.382 -0.0935  0.1879 -0.1400
    9SAPS   H4X 1153   6.435   5.078   7.407 -0.4941 -1.0882  0.0976
    9SAPS   H4Y 1154   6.594   5.137   7.370 -0.7547  0.5124 -0.8642
    9SAPS   C35 1155   6.582   4.971   7.517 -0.2864 -0.3205  0.4500
    9SAPS   H5X 1156   6.608   5.047   7.593  0.6149 -0.0040 -0.1590
    9SAPS   H5Y 1157   6.672   4.912   7.490 -1.5044 -2.0477 -0.0677
    9SAPS   C36 1158   6.470   4.872   7.558  0.1958  0.4725 -0.1291
    9SAPS   H6X 1159   6.456   4.791   7.483  0.9952 -2.3040  2.4831
    9SAPS   H6Y 1160   6.371   4.922   7.566  0.2389  0.7489 -1.2463
    9SAPS   C37 1161   6.492   4.795   7.690  0.6092  0.0793 -0.3613
    9SAPS   H7X 1162   6.582   4.730   7.689  2.0391  1.9547 -0.4409
    9SAPS   H7Y 1163   6.404   4.730   7.708 -0.7441  1.9202  0.0233
    9SAPS   C38 1164   6.502   4.882   7.814  0.0553  0.2443  0.7020
    9SAPS   H8X 1165   6.411   4.946   7.810  0.2614  0.4764 -2.6443
    9SAPS   H8Y 1166   6.593   4.947   7.809  0.0328  0.2037 -0.6328
    9SAPS   C39 1167   6.499   4.809   7.947  0.0388  0.0784  0.8735
    9SAPS   H9X 1168   6.540   4.707   7.927 -1.2603 -0.4485  0.7655
    9SAPS   H9Y 1169   6.397   4.793   7.988 -1.4253  0.3062 -2.3484
    9SAPS  C310 1170   6.585   4.873   8.057  0.6467  0.1778 -0.4483
    9SAPS  H10X 1171   6.526   4.965   8.078 -0.9430 -0.8434 -0.2605
    9SAPS  H10Y 1172   6.686   4.902   8.021  0.0660  0.3491 -2.0502
    9SAPS  C311 1173   6.574   4.805   8.194  0.6683  0.4668 -0.0041
    9SAPS  H11X 1174   6.626   4.706   8.194 -0.2072 -0.0128 -0.9059
    9SAPS  H11Y 1175   6.467   4.787   8.216  0.5500 -0.6555 -1.3239
    9SAPS  C312 1176   6.629   4.897   8.305 -0.3763 -0.2815  0.3906
    9SAPS  H12X 1177   6.585   4.870   8.404 -0.2097  0.8722  0.7882
    9SAPS  H12Y 1178   6.611   5.005   8.292 -0.0814 -0.0180  1.9350
    9SAPS  C313 1179   6.779   4.870   8.315 -0.4881 -0.3714 -0.4999
    9SAPS  H13X 1180   6.823   4.915   8.224 -1.6561 -0.4346 -1.1123
    9SAPS  H13Y 1181   6.806   4.762   8.313 -0.6685 -0.5336  1.9688
    9SAPS  C314 1182   6.831   4.934   8.447  0.2792  0.1557  0.5866
    9SAPS  H14X 1183   6.776   4.886   8.531  0.4702 -2.9399 -0.9451
    9SAPS  H14Y 1184   6.790   5.038   8.444  1.7530  0.7604 -2.4151
    9SAPS  C315 1185   6.984   4.936   8.468 -0.0323 -0.5750  0.2421
    9SAPS  H15X 1186   6.994   4.989   8.565  1.6391  2.5602 -1.4475
    9SAPS  H15Y 1187   7.018   5.010   8.392 -2.1666 -1.5040 -1.7679
    9SAPS  C316 1188   7.059   4.805   8.473  0.0394 -0.0451 -0.0159
    9SAPS  H16X 1189   7.063   4.759   8.372 -1.4181 -1.5335  0.5475
    9SAPS  H16Y 1190   7.001   4.741   8.544  0.0740  0.7219  0.7131
    9SAPS  C317 1191   7.206   4.838   8.509 -0.0361 -0.3926  0.0930
    9SAPS  H17X 1192   7.204   4.898   8.603  0.5186  1.7414 -1.1935
    9SAPS  H17Y 1193   7.245   4.902   8.427 -1.4413 -0.6410 -0.8066
    9SAPS  C318 1194   7.289   4.711   8.523  0.1288 -0.3035  0.4373
    9SAPS  H18X 1195   7.260   4.636   8.447  1.8470 -0.5883  0.0034
    9SAPS  H18Y 1196   7.281   4.668   8.625 -0.2807 -2.5510 -0.4990
    9SAPS  H18Z 1197   7.397   4.723   8.497 -0.0449 -2.4436 -1.5487
   10SAPS     N 1198   6.279   4.697   6.253 -0.1622  0.1026 -0.4052
   10SAPS   HN1 1199   6.373   4.654   6.259 -0.8368 -1.2230  1.7159
   10SAPS   HN2 1200   6.265   4.745   6.161  1.1318  1.1024 -0.1009
   10SAPS   HN3 1201   6.269   4.760   6.336 -0.8246  0.6490 -0.8859
   10SAPS   C12 1202   6.188   4.578   6.266 -0.1956 -0.6673  0.4472
   10SAPS  H12A 1203   6.094   4.624   6.240  0.3123  1.2311  1.7611
   10SAPS   C13 1204   6.242   4.457   6.176 -0.2115 -0.6035  0.2510
   10SAPS  O13A 1205   6.336   4.475   6.091  0.2873 -0.5622 -0.9021
   10SAPS  O13B 1206   6.178   4.347   6.188  0.5791 -0.3187  1.2137
   10SAPS   C11 1207   6.171   4.539   6.414 -0.3271 -0.6470  0.4354
   10SAPS  H11A 1208   6.267   4.495   6.447  1.0534 -0.5910 -3.0673
   10SAPS  H11B 1209   6.099   4.455   6.427  1.5014 -1.9620  2.7820
   10SAPS     P 1210   6.009   4.704   6.545  0.4631 -0.1906  0.2815
   10SAPS   O13 1211   6.019   4.846   6.591  0.2457  0.0005 -0.2658
   10SAPS   O14 1212   5.906   4.685   6.443 -0.1277 -0.4040 -0.1334
   10SAPS   O12 1213   6.143   4.658   6.496 -0.2041 -0.4291 -0.3097
   10SAPS   O11 1214   5.982   4.611   6.670 -0.4738  0.0626  0.3616
   10SAPS    C1 1215   6.085   4.595   6.772  0.8448 -0.8463 -0.4372
   10SAPS    HA 1216   6.109   4.488   6.790  2.6961 -0.5487 -0.8951
   10SAPS    HB 1217   6.178   4.650   6.748  1.0780 -0.6558  0.8444
   10SAPS    C2 1218   6.025   4.655   6.896 -0.3064 -0.9113 -0.2273
   10SAPS    HS 1219   6.034   4.766   6.886 -1.3443 -0.5923  1.8031
   10SAPS   O21 1220   6.095   4.606   7.008 -0.0301 -0.2693 -0.1288
   10SAPS   C21 1221   6.214   4.660   7.032 -0.1794 -0.3015  0.3150
   10SAPS   O22 1222   6.277   4.724   6.948 -0.5310 -0.2251 -0.0865
   10SAPS   C22 1223   6.263   4.619   7.168  0.0124 -0.4875 -0.2302
   10SAPS   H2R 1224   6.292   4.712   7.220  0.8666 -1.0744  0.3783
   10SAPS   H2S 1225   6.200   4.567   7.243  0.0176  0.6630  0.5919
   10SAPS    C3 1226   5.871   4.619   6.926 -0.3237  0.3099  0.9819
   10SAPS    HX 1227   5.876   4.525   6.985  1.7008 -1.9208 -2.3735
   10SAPS    HY 1228   5.807   4.596   6.838 -0.2231 -0.2049  1.0408
   10SAPS   O31 1229   5.806   4.723   7.002  0.3910 -0.2311 -0.2460
   10SAPS   C31 1230   5.674   4.726   6.996 -0.2396 -0.8639 -0.3320
   10SAPS   O32 1231   5.601   4.639   6.948 -0.1926  0.4143 -0.2270
   10SAPS   C32 1232   5.626   4.854   7.069  0.4719  0.2038 -0.2109
   10SAPS   H2X 1233   5.522   4.837   7.103  0.4552  2.4933  1.0889
   10SAPS   H2Y 1234   5.623   4.948   7.010  0.1235  0.6896  0.5630
   10SAPS   C23 1235   6.383   4.527   7.154  0.3141  0.2240 -0.1911
   10SAPS   H3R 1236   6.454   4.556   7.075 -1.1259  0.4482 -1.4468
   10SAPS   H3S 1237   6.349   4.424   7.128 -1.0243 -0.8477  4.6873
   10SAPS   C24 1238   6.458   4.515   7.289 -0.3396 -0.0317  0.1228
   10SAPS   H4R 1239   6.379   4.516   7.368 -0.6469  0.2911 -0.1814
   10SAPS   H4S 1240   6.514   4.609   7.307 -1.7380  0.6030  1.4654
   10SAPS   C25 1241   6.560   4.403   7.285 -0.2955 -0.0351  0.0473
   10SAPS   H5R 1242   6.634   4.405   7.203  1.2216  5.1190  1.1982
   10SAPS   C26 1243   6.550   4.294   7.365 -0.9887 -1.0946  0.2809
   10SAPS   H6R 1244   6.623   4.213   7.355 -2.6158 -2.4147 -1.6693
   10SAPS   C27 1245   6.451   4.280   7.476  0.3064  0.3725 -0.1523
   10SAPS   H7R 1246   6.350   4.302   7.434 -0.1420 -2.0594 -0.5318
   10SAPS   H7S 1247   6.481   4.348   7.558  1.3324  1.0942 -1.0896
   10SAPS   C28 1248   6.433   4.136   7.519 -0.2380 -0.0878  0.3295
   10SAPS   H8R 1249   6.364   4.081   7.453 -0.0998  1.5724 -1.2449
   10SAPS   C29 1250   6.495   4.073   7.617 -0.1405  0.0993 -0.4989
   10SAPS   H9R 1251   6.459   3.969   7.623  2.1538 -1.0850 -3.7902
   10SAPS  C210 1252   6.595   4.128   7.714 -0.0087  0.3842 -0.3026
   10SAPS  H10R 1253   6.551   4.165   7.809  0.9244  0.9442 -0.0741
   10SAPS  H10S 1254   6.647   4.220   7.679  0.8326  0.4678  1.0988
   10SAPS  C211 1255   6.696   4.018   7.752 -0.3237  0.3221 -0.4144
   10SAPS  H11R 1256   6.727   3.958   7.665 -2.1701 -2.5670  0.7599
   10SAPS  C212 1257   6.747   3.979   7.872  0.5031  0.5613  0.2235
   10SAPS  H12R 1258   6.826   3.903   7.875  0.1518  0.1599 -0.5196
   10SAPS  C213 1259   6.699   4.044   8.008 -0.2326  0.6275  0.8724
   10SAPS  H13R 1260   6.673   4.151   7.999 -0.7107  0.3668 -2.0652
   10SAPS  H13S 1261   6.785   4.044   8.078 -1.0057 -0.0319  1.8444
   10SAPS  C214 1262   6.578   3.966   8.051  0.1965 -0.2641  0.3446
   10SAPS  H14R 1263   6.497   3.970   7.978  1.3560 -0.8461 -1.0252
   10SAPS  C215 1264   6.561   3.910   8.171 -0.6486  0.2620  0.7645
   10SAPS  H15R 1265   6.465   3.866   8.202  0.3966 -2.6453  0.1755
   10SAPS  C216 1266   6.659   3.902   8.288 -0.5125  0.1100 -0.0292
   10SAPS  H16R 1267   6.763   3.926   8.258 -0.2387  0.1876  0.9571
   10SAPS  H16S 1268   6.657   3.802   8.335  0.1511  0.3931  0.6114
   10SAPS  C217 1269   6.626   4.004   8.406  0.0059  0.4220  0.1523
   10SAPS  H17R 1270   6.711   3.995   8.476  0.5981 -2.8329 -0.7818
   10SAPS  H17S 1271   6.538   3.974   8.466  1.9529 -2.4942  1.7928
   10SAPS  C218 1272   6.619   4.149   8.364  1.4312 -0.3068 -0.4877
   10SAPS  H18R 1273   6.551   4.161   8.277  0.7783  0.1079  0.0689
   10SAPS  H18S 1274   6.722   4.180   8.335  1.1231 -0.3398 -1.6649
   10SAPS  C219 1275   6.554   4.244   8.471 -0.2215  0.5639 -0.2496
   10SAPS  H19R 1276   6.445   4.224   8.465 -0.3273  1.1469 -0.2328
   10SAPS  H19S 1277   6.575   4.349   8.444 -1.2463  0.5975 -0.9655
   10SAPS  C220 1278   6.596   4.225   8.620 -0.9825 -0.2384 -0.1421
   10SAPS  H20R 1279   6.569   4.120   8.642 -1.7398  0.1765  0.9837
   10SAPS  H20S 1280   6.543   4.294   8.688 -0.3249  0.5091 -0.3739
   10SAPS  H20T 1281   6.705   4.241   8.637 -0.9405 -0.3332 -0.3085
   10SAPS   C33 1282   5.714   4.874   7.197 -0.2323 -0.2922 -0.0639
   10SAPS   H3X 1283   5.747   4.778   7.244  0.4713  0.0626  0.1842
   10SAPS   H3Y 1284   5.657   4.936   7.269  0.9977 -0.7110  1.3542
   10SAPS   C34 1285   5.847   4.957   7.167 -0.5128 -0.6465 -0.2721
   10SAPS   H4X 1286   5.825   5.066   7.162  0.9806 -0.3615 -1.3568
   10SAPS   H4Y 1287   5.883   4.948   7.062  1.8950  0.3781  0.3953
   10SAPS   C35 1288   5.969   4.942   7.270 -0.2868  0.2470 -0.0404
   10SAPS   H5X 1289   6.049   5.008   7.230 -0.5070  0.4189 -0.2001
   10SAPS   H5Y 1290   6.011   4.840   7.283 -2.0783 -0.4958  0.0778
   10SAPS   C36 1291   5.941   4.987   7.413  0.5008  1.1874  0.6532
   10SAPS   H6X 1292   5.864   4.916   7.451  0.9862  0.6960  0.7277
   10SAPS   H6Y 1293   5.897   5.089   7.414  2.4898  2.1211 -0.8328
   10SAPS   C37 1294   6.063   4.986   7.505  0.7810  0.4454 -0.0541
   10SAPS   H7X 1295   6.151   5.042   7.466 -0.2892  1.1482 -1.5541
   10SAPS   H7Y 1296   6.097   4.881   7.518  0.4889  0.1356 -1.5990
   10SAPS   C38 1297   6.033   5.035   7.651 -0.3394 -0.5677  0.3127
   10SAPS   H8X 1298   5.956   4.978   7.708 -0.7370 -0.9807 -0.6178
   10SAPS   H8Y 1299   5.995   5.139   7.645  1.3757  0.1844  1.5753
   10SAPS   C39 1300   6.162   5.036   7.733  0.5173  0.6632  0.2945
   10SAPS   H9X 1301   6.222   5.117   7.686  0.5126 -1.1370 -3.0706
   10SAPS   H9Y 1302   6.212   4.939   7.713  0.8511  1.2048 -1.6777
   10SAPS  C310 1303   6.137   5.044   7.885 -0.1269  0.4097  0.3747
   10SAPS  H10X 1304   6.234   5.024   7.936  0.1552 -0.0383 -0.3192
   10SAPS  H10Y 1305   6.063   4.969   7.920  0.2100 -1.0722 -1.8888
   10SAPS  C311 1306   6.094   5.191   7.926  0.1536 -0.6830  0.3811
   10SAPS  H11X 1307   6.009   5.207   7.857  0.7164  0.4300 -0.0780
   10SAPS  H11Y 1308   6.173   5.264   7.898 -1.3124 -0.2058 -2.9049
   10SAPS  C312 1309   6.038   5.197   8.067 -0.5760 -0.5197 -0.3330
   10SAPS  H12X 1310   5.956   5.124   8.082  0.6858 -1.8315  0.4596
   10SAPS  H12Y 1311   5.991   5.297   8.085  0.1545 -0.1742 -0.2864
   10SAPS  C313 1312   6.148   5.170   8.173 -0.0546  0.1183 -0.4024
   10SAPS  H13X 1313   6.225   5.248   8.155  2.3768 -1.8954  0.6959
   10SAPS  H13Y 1314   6.195   5.071   8.152 -3.6132 -1.8809  0.2127
   10SAPS  C314 1315   6.089   5.171   8.312 -1.1878  0.3310 -1.3221
   10SAPS  H14X 1316   6.041   5.272   8.314 -3.4511 -0.6700  1.5727
   10SAPS  H14Y 1317   6.176   5.160   8.381 -1.3963  1.1667 -0.9103
   10SAPS  C315 1318   5.983   5.067   8.338 -0.4324  0.9093  0.1039
   10SAPS  H15X 1319   5.885   5.105   8.302 -0.3072 -0.3209 -1.7256
   10SAPS  H15Y 1320   5.979   5.062   8.449 -0.1491  1.1495  0.1250
   10SAPS  C316 1321   6.016   4.926   8.290  0.6119  0.4120 -0.0047
   10SAPS  H16X 1322   6.117   4.894   8.321  1.9491  1.5821 -2.8147
   10SAPS  H16Y 1323   6.010   4.915   8.179 -1.9126  0.4158  0.0768
   10SAPS  C317 1324   5.906   4.824   8.339 -0.3946 -0.1960 -0.0030
   10SAPS  H17X 1325   5.846   4.792   8.251 -0.9924 -0.4505  0.4977
   10SAPS  H17Y 1326   5.834   4.888   8.394  1.1129  2.9181 -1.3867
   10SAPS  C318 1327   5.958   4.703   8.424 -0.0856 -0.4358  0.1081
   10SAPS  H18X 1328   6.049   4.660   8.378  0.5695  1.9965 -1.0445
   10SAPS  H18Y 1329   5.877   4.628   8.440  0.4161 -0.7019  1.5593
   10SAPS  H18Z 1330   5.973   4.747   8.525  0.3934 -2.1963  0.8372
   11SAPS     N 1331   1.681   4.818   5.702 -0.2313 -0.0252  0.8134
   11SAPS   HN1 1332   1.767   4.831   5.644 -0.7120 -2.4122 -0.5628
   11SAPS   HN2 1333   1.705   4.750   5.777  1.4449 -2.5696 -1.8447
   11SAPS   HN3 1334   1.609   4.778   5.638  0.1451 -0.2081  0.5015
   11SAPS   C12 1335   1.645   4.946   5.758 -0.2656  0.6239 -0.0541
   11SAPS  H12A 1336   1.628   5.011   5.674 -0.3110  0.7840  0.0769
   11SAPS   C13 1337   1.516   4.922   5.850 -0.7979  0.3373 -0.0149
   11SAPS  O13A 1338   1.438   4.826   5.828 -0.2622  0.0337 -0.0145
   11SAPS  O13B 1339   1.460   5.024   5.894 -0.0529 -1.0346  0.9439
   11SAPS   C11 1340   1.758   4.995   5.854 -0.4161  0.8996  0.2853
   11SAPS  H11A 1341   1.775   4.930   5.942  1.1679 -0.1515 -0.7341
   11SAPS  H11B 1342   1.723   5.088   5.903  0.2568  0.1628  2.2504
   11SAPS     P 1343   1.976   5.130   5.778 -0.1476 -0.1634  0.4832
   11SAPS   O13 1344   2.104   5.096   5.721 -1.2530  0.4110 -0.9180
   11SAPS   O14 1345   1.896   5.227   5.702  0.1268  0.5977  0.0655
   11SAPS   O12 1346   1.887   4.992   5.786 -0.2792 -0.0015 -0.6502
   11SAPS   O11 1347   1.995   5.178   5.922 -0.1342  0.8083  0.3555
   11SAPS    C1 1348   2.033   5.113   6.042  0.6887  0.0833  0.9372
   11SAPS    HA 1349   2.077   5.013   6.018  0.7288  0.5348 -1.0458
   11SAPS    HB 1350   2.121   5.166   6.082  2.3384 -0.6331 -1.5137
   11SAPS    C2 1351   1.917   5.089   6.149  0.0032  1.0227 -0.1521
   11SAPS    HS 1352   1.850   5.014   6.103 -1.5490  2.0184  0.4057
   11SAPS   O21 1353   1.849   5.215   6.185  0.2745  0.2144 -0.5201
   11SAPS   C21 1354   1.725   5.200   6.224  0.3914 -0.0353 -0.4169
   11SAPS   O22 1355   1.653   5.102   6.202  0.3199  0.4221 -0.6463
   11SAPS   C22 1356   1.666   5.327   6.279 -0.2050 -0.0377 -0.4573
   11SAPS   H2R 1357   1.710   5.411   6.221  1.6108 -1.8334 -1.8302
   11SAPS   H2S 1358   1.557   5.330   6.260 -0.2488 -0.3459 -0.2563
   11SAPS    C3 1359   1.981   5.022   6.281 -0.1041 -0.2162  0.1588
   11SAPS    HX 1360   2.036   5.103   6.334 -1.1078  0.3026  0.4308
   11SAPS    HY 1361   2.041   4.934   6.252 -0.9636 -1.5873  2.2704
   11SAPS   O31 1362   1.883   4.974   6.368  0.5090 -0.3650  0.2489
   11SAPS   C31 1363   1.807   4.868   6.331  0.3593 -0.0440  0.4787
   11SAPS   O32 1364   1.804   4.811   6.223 -0.0864  0.3572 -0.3681
   11SAPS   C32 1365   1.706   4.837   6.440  0.5909 -0.0290 -0.0836
   11SAPS   H2X 1366   1.649   4.932   6.447  0.9780  0.1830  0.2454
   11SAPS   H2Y 1367   1.771   4.830   6.530 -1.0241  1.0112  1.2250
   11SAPS   C23 1368   1.696   5.332   6.428  0.3897  1.2626 -1.2022
   11SAPS   H3R 1369   1.665   5.236   6.475 -1.2265  1.4230 -1.8573
   11SAPS   H3S 1370   1.633   5.409   6.478  1.0008  0.7499  0.4034
   11SAPS   C24 1371   1.836   5.359   6.461 -0.6818  0.7879  0.7404
   11SAPS   H4R 1372   1.866   5.447   6.400  1.3763 -1.0065 -1.0089
   11SAPS   H4S 1373   1.891   5.272   6.418 -1.2277  1.2239 -0.9356
   11SAPS   C25 1374   1.853   5.394   6.606 -0.1581 -0.1139  0.0665
   11SAPS   H5R 1375   1.875   5.500   6.627  1.4506 -0.5988  0.9244
   11SAPS   C26 1376   1.830   5.313   6.709 -0.2305  0.1618 -0.1465
   11SAPS   H6R 1377   1.841   5.362   6.807 -1.1937  0.3208 -0.1060
   11SAPS   C27 1378   1.797   5.164   6.716  0.3768  0.5482 -0.3308
   11SAPS   H7R 1379   1.821   5.114   6.619  1.8980 -0.3404  0.4669
   11SAPS   H7S 1380   1.688   5.153   6.734  0.0966  0.3772 -1.9722
   11SAPS   C28 1381   1.875   5.095   6.825  0.0549  0.1043 -0.3882
   11SAPS   H8R 1382   1.983   5.111   6.816 -0.0268  0.0364 -1.6459
   11SAPS   C29 1383   1.816   5.036   6.931  0.0570  0.0577 -0.1704
   11SAPS   H9R 1384   1.879   4.992   7.010  0.0156 -1.1657 -0.7853
   11SAPS  C210 1385   1.667   5.025   6.958 -0.3675  0.3014 -0.2428
   11SAPS  H10R 1386   1.611   5.112   6.919 -0.4940  1.8201  3.0363
   11SAPS  H10S 1387   1.642   5.041   7.065  0.9056  3.1859 -0.2923
   11SAPS  C211 1388   1.609   4.895   6.919 -0.3648  0.1823  0.2174
   11SAPS  H11R 1389   1.620   4.882   6.810  0.2274  0.5459  0.2305
   11SAPS  C212 1390   1.542   4.794   6.984 -0.0055  0.4551 -0.2376
   11SAPS  H12R 1391   1.506   4.703   6.933 -1.0389  0.9559 -0.4194
   11SAPS  C213 1392   1.510   4.793   7.127 -0.4253  0.0041 -0.5245
   11SAPS  H13R 1393   1.419   4.855   7.142 -1.0132 -1.3602  2.1411
   11SAPS  H13S 1394   1.591   4.847   7.182 -2.6862  0.0999  3.0228
   11SAPS  C214 1395   1.500   4.657   7.186  0.2830 -0.4950 -0.1174
   11SAPS  H14R 1396   1.595   4.606   7.207  0.2298  0.2193  2.0693
   11SAPS  C215 1397   1.391   4.598   7.230  0.2041  0.4431 -0.5327
   11SAPS  H15R 1398   1.410   4.494   7.261 -0.1125  0.6128  0.2451
   11SAPS  C216 1399   1.246   4.636   7.229 -0.1853  0.3262 -0.1933
   11SAPS  H16R 1400   1.230   4.721   7.159  0.9278 -0.0515 -0.9384
   11SAPS  H16S 1401   1.235   4.682   7.329 -2.0838  2.5348 -1.3058
   11SAPS  C217 1402   1.134   4.538   7.202 -0.2212  0.0873 -0.4706
   11SAPS  H17R 1403   1.139   4.523   7.092 -1.2826  0.6277 -0.6083
   11SAPS  H17S 1404   1.042   4.596   7.225  0.1756 -0.2736  2.4055
   11SAPS  C218 1405   1.117   4.407   7.279  0.5239 -0.0720  0.1916
   11SAPS  H18R 1406   1.211   4.348   7.273  0.5304 -0.1064  0.5724
   11SAPS  H18S 1407   1.028   4.356   7.237 -0.6262  0.4698  1.8751
   11SAPS  C219 1408   1.086   4.445   7.420  0.2761 -0.1708 -0.2403
   11SAPS  H19R 1409   0.993   4.504   7.433  1.1646  1.1016  0.4597
   11SAPS  H19S 1410   1.164   4.510   7.466 -0.7822  0.1696  1.1298
   11SAPS  C220 1411   1.075   4.322   7.501  0.2278  0.5407 -0.2662
   11SAPS  H20R 1412   0.987   4.264   7.467 -0.3287  1.7633 -0.9712
   11SAPS  H20S 1413   1.045   4.333   7.608 -0.6581 -1.1634 -0.3077
   11SAPS  H20T 1414   1.156   4.246   7.498 -0.8084 -0.7047  1.3728
   11SAPS   C33 1415   1.616   4.715   6.419  0.4889  0.8124 -0.1669
   11SAPS   H3X 1416   1.686   4.635   6.386 -0.6645 -0.2407 -0.1757
   11SAPS   H3Y 1417   1.547   4.746   6.337 -1.0826 -1.6913  0.0806
   11SAPS   C34 1418   1.549   4.685   6.550 -0.3388  0.4497  0.8943
   11SAPS   H4X 1419   1.470   4.762   6.563 -3.3162 -1.9677 -1.4660
   11SAPS   H4Y 1420   1.629   4.692   6.627  0.4429  0.1617  0.1200
   11SAPS   C35 1421   1.485   4.544   6.547  0.5206  0.8963  0.1732
   11SAPS   H5X 1422   1.571   4.476   6.530 -2.2714 -2.7563 -0.5286
   11SAPS   H5Y 1423   1.412   4.534   6.464 -1.7622  2.5553  1.8621
   11SAPS   C36 1424   1.415   4.510   6.681  0.6902  0.4231 -0.2427
   11SAPS   H6X 1425   1.321   4.567   6.693  0.8691  0.4885  0.9526
   11SAPS   H6Y 1426   1.480   4.530   6.769  0.2808  3.1119 -0.4702
   11SAPS   C37 1427   1.374   4.366   6.702  0.1000  0.4631 -0.2624
   11SAPS   H7X 1428   1.464   4.305   6.683 -0.2955  0.6322 -2.9941
   11SAPS   H7Y 1429   1.295   4.346   6.627  1.5464  1.6563 -2.1951
   11SAPS   C38 1430   1.321   4.342   6.851  0.1678  0.1679  0.3678
   11SAPS   H8X 1431   1.241   4.415   6.872  1.1885  1.5649 -0.3826
   11SAPS   H8Y 1432   1.400   4.358   6.927 -0.0380  0.2804  0.5568
   11SAPS   C39 1433   1.255   4.197   6.848  0.1354  0.0517  0.9673
   11SAPS   H9X 1434   1.337   4.125   6.826  0.0947  0.2459  0.1662
   11SAPS   H9Y 1435   1.180   4.184   6.767  0.3063 -3.0536  1.1885
   11SAPS  C310 1436   1.200   4.164   6.989 -0.6862 -0.4431  0.3397
   11SAPS  H10X 1437   1.106   4.222   6.998  0.4467  1.5430 -0.1774
   11SAPS  H10Y 1438   1.269   4.212   7.062 -1.4287 -0.1017  0.8195
   11SAPS  C311 1439   1.191   4.013   7.025  0.3022 -0.1712  0.4749
   11SAPS  H11X 1440   1.283   3.951   7.021 -0.0428 -0.6412 -0.8769
   11SAPS  H11Y 1441   1.122   3.967   6.950  1.2496 -0.4165 -0.2640
   11SAPS  C312 1442   1.131   3.998   7.168 -0.4912  0.5824  0.5712
   11SAPS  H12X 1443   1.116   3.889   7.183  1.7221  0.0760 -0.4294
   11SAPS  H12Y 1444   1.037   4.056   7.181 -0.5230  0.7606 -0.3796
   11SAPS  C313 1445   1.220   4.031   7.287 -0.4655  0.2975 -0.1317
   11SAPS  H13X 1446   1.161   4.007   7.378 -1.0212  0.9214 -0.3193
   11SAPS  H13Y 1447   1.228   4.142   7.294 -2.8418  0.5401 -0.2870
   11SAPS  C314 1448   1.357   3.960   7.292  0.1056 -0.3389  1.1904
   11SAPS  H14X 1449   1.432   4.008   7.226  1.7990 -0.2226  3.1269
   11SAPS  H14Y 1450   1.365   3.855   7.254  3.4034  0.2302  0.0164
   11SAPS  C315 1451   1.400   3.958   7.437 -0.1615  0.6062 -0.0096
   11SAPS  H15X 1452   1.482   3.883   7.440 -0.8982 -0.2188 -0.1694
   11SAPS  H15Y 1453   1.318   3.919   7.501  0.4434  0.9662  1.0067
   11SAPS  C316 1454   1.448   4.095   7.488 -0.1329  0.7013 -0.5885
   11SAPS  H16X 1455   1.365   4.168   7.478 -1.2482 -0.2700  1.0631
   11SAPS  H16Y 1456   1.536   4.129   7.429 -0.1202 -0.0401 -1.0107
   11SAPS  C317 1457   1.488   4.086   7.637 -0.3473  0.0802 -0.0689
   11SAPS  H17X 1458   1.551   3.994   7.643 -0.1675  0.2392  0.5563
   11SAPS  H17Y 1459   1.395   4.076   7.697 -0.3813 -2.9040 -0.4366
   11SAPS  C318 1460   1.571   4.203   7.693 -0.0477 -0.6139  0.0855
   11SAPS  H18X 1461   1.587   4.189   7.802  1.3312 -1.5520 -0.2068
   11SAPS  H18Y 1462   1.523   4.299   7.664  0.2035 -0.9927 -1.6888
   11SAPS  H18Z 1463   1.670   4.194   7.642 -0.5541 -1.2039 -0.8198
   12SAPS     N 1464   1.173   1.223   6.095  0.1155 -0.2847  0.3778
   12SAPS   HN1 1465   1.150   1.286   6.175  2.4857  0.1013  0.8109
   12SAPS   HN2 1466   1.194   1.132   6.142  2.8114  0.8549  1.5981
   12SAPS   HN3 1467   1.261   1.271   6.068  0.3876 -0.7894  0.3526
   12SAPS   C12 1468   1.066   1.215   5.989  0.3026  0.4046 -0.3509
   12SAPS  H12A 1469   0.982   1.273   6.025  0.2230  0.1306 -0.0828
   12SAPS   C13 1470   1.107   1.257   5.854 -0.6259 -0.0721  0.3821
   12SAPS  O13A 1471   1.231   1.274   5.832  0.4058  0.3744  1.3834
   12SAPS  O13B 1472   1.024   1.276   5.759  0.0171  0.0308 -0.3327
   12SAPS   C11 1473   1.026   1.055   5.994  0.1350  0.5056  0.0761
   12SAPS  H11A 1474   1.107   1.002   5.940  0.9864  1.7453  0.0856
   12SAPS  H11B 1475   0.928   1.035   5.946 -0.1964 -1.2022  1.3688
   12SAPS     P 1476   1.098   0.898   6.197  0.4991  0.3415 -0.1874
   12SAPS   O13 1477   1.080   0.768   6.123 -0.2402  0.2620 -0.7718
   12SAPS   O14 1478   1.237   0.947   6.203  0.4694  0.0458  0.0112
   12SAPS   O12 1479   1.008   1.012   6.132  0.3925  0.5946 -1.3137
   12SAPS   O11 1480   1.032   0.869   6.339  0.0097 -0.0715  0.0466
   12SAPS    C1 1481   1.002   0.976   6.425 -0.5226  0.4089  0.1953
   12SAPS    HA 1482   0.929   1.048   6.382  0.2348  0.4896 -1.0287
   12SAPS    HB 1483   0.952   0.930   6.513 -0.4191 -1.3383 -0.6215
   12SAPS    C2 1484   1.130   1.061   6.475 -0.3698 -0.1613 -0.1727
   12SAPS    HS 1485   1.169   1.117   6.387  0.0976 -0.7554 -0.3500
   12SAPS   O21 1486   1.232   0.971   6.517  0.1987 -0.5136 -0.1196
   12SAPS   C21 1487   1.354   1.021   6.520  0.7626  0.3195 -0.5025
   12SAPS   O22 1488   1.395   1.125   6.474  0.0601 -0.8692  0.8833
   12SAPS   C22 1489   1.452   0.930   6.591  0.1109  0.3038  0.1514
   12SAPS   H2R 1490   1.458   0.826   6.553 -3.0712 -0.3550  1.1793
   12SAPS   H2S 1491   1.559   0.961   6.590  0.2880  0.0105 -3.5095
   12SAPS    C3 1492   1.100   1.167   6.588 -0.3377  0.3108 -0.2194
   12SAPS    HX 1493   1.021   1.237   6.554  0.1188 -0.3699 -2.9376
   12SAPS    HY 1494   1.199   1.216   6.588  0.8943 -1.9864 -1.5782
   12SAPS   O31 1495   1.072   1.097   6.710 -0.1478 -0.6405 -0.2191
   12SAPS   C31 1496   1.072   1.176   6.816 -0.2593  0.1446  0.1020
   12SAPS   O32 1497   1.091   1.296   6.818 -0.1933  0.0018  0.4722
   12SAPS   C32 1498   1.056   1.097   6.940 -0.7168 -0.0915 -0.6044
   12SAPS   H2X 1499   1.100   0.996   6.924 -1.5990 -0.2754 -2.0597
   12SAPS   H2Y 1500   0.947   1.089   6.957 -1.0883  1.2210 -2.1770
   12SAPS   C23 1501   1.408   0.913   6.743  0.1596  0.5128 -0.0615
   12SAPS   H3R 1502   1.455   0.824   6.789 -0.6518 -0.8694 -1.7605
   12SAPS   H3S 1503   1.298   0.900   6.749  0.0452  1.8000  1.1272
   12SAPS   C24 1504   1.442   1.034   6.839 -0.7213 -0.6405 -0.2276
   12SAPS   H4R 1505   1.383   1.020   6.932  0.6783  1.1065  0.9819
   12SAPS   H4S 1506   1.408   1.130   6.794 -1.3775 -0.1520  1.2678
   12SAPS   C25 1507   1.594   1.041   6.866  0.3220  0.3419 -0.2996
   12SAPS   H5R 1508   1.659   1.090   6.792 -0.4420  2.5419  0.4009
   12SAPS   C26 1509   1.664   0.964   6.956  0.1086  0.0784 -0.0156
   12SAPS   H6R 1510   1.770   0.988   6.969  0.8085 -2.1475 -1.0662
   12SAPS   C27 1511   1.605   0.861   7.055 -0.3801  0.1434 -0.7011
   12SAPS   H7R 1512   1.495   0.877   7.051 -0.3580  0.5644  0.1457
   12SAPS   H7S 1513   1.629   0.880   7.162 -0.2101  2.6723 -1.1289
   12SAPS   C28 1514   1.629   0.713   7.027  0.1000  0.7187  0.2815
   12SAPS   H8R 1515   1.665   0.687   6.926 -0.1392 -1.1960  0.6441
   12SAPS   C29 1516   1.628   0.602   7.103 -0.3344  0.4045 -0.3299
   12SAPS   H9R 1517   1.655   0.507   7.053  0.5414  1.8710 -2.8135
   12SAPS  C210 1518   1.598   0.588   7.247 -0.1490  0.5103 -0.3243
   12SAPS  H10R 1519   1.602   0.478   7.264  0.9060  0.4219 -1.0862
   12SAPS  H10S 1520   1.492   0.617   7.263 -0.9152 -2.1651 -0.0736
   12SAPS  C211 1521   1.701   0.647   7.345  0.4704  0.2330  0.4782
   12SAPS  H11R 1522   1.801   0.668   7.306  0.3744  1.2104  0.7247
   12SAPS  C212 1523   1.687   0.684   7.478 -0.4307 -0.5100 -0.4335
   12SAPS  H12R 1524   1.773   0.727   7.531  0.3015 -1.4210 -0.8436
   12SAPS  C213 1525   1.564   0.670   7.571  0.1146 -0.5312  0.4669
   12SAPS  H13R 1526   1.466   0.694   7.524 -1.6781 -3.2137  2.4810
   12SAPS  H13S 1527   1.577   0.736   7.660  1.4105  1.0650 -0.8530
   12SAPS  C214 1528   1.542   0.523   7.590  0.2721 -0.6653  0.3669
   12SAPS  H14R 1529   1.525   0.482   7.490  3.0596 -1.0594 -0.0138
   12SAPS  C215 1530   1.544   0.446   7.702 -0.1376 -0.6040 -0.4804
   12SAPS  H15R 1531   1.518   0.339   7.703  0.6852 -0.8116  0.7477
   12SAPS  C216 1532   1.567   0.494   7.846  0.3366  0.8223  0.5997
   12SAPS  H16R 1533   1.471   0.511   7.899 -0.4101  2.7098 -1.1956
   12SAPS  H16S 1534   1.617   0.592   7.859  0.9195  0.6317 -0.1129
   12SAPS  C217 1535   1.636   0.387   7.925 -0.2698 -0.1229 -0.4174
   12SAPS  H17R 1536   1.740   0.366   7.892 -0.0642 -3.4184  1.7962
   12SAPS  H17S 1537   1.574   0.295   7.915 -2.7430  1.5031 -0.8339
   12SAPS  C218 1538   1.641   0.436   8.067 -0.6730  0.7198  1.1756
   12SAPS  H18R 1539   1.534   0.431   8.097 -0.1965 -2.8242  2.7906
   12SAPS  H18S 1540   1.684   0.537   8.079 -0.4344  0.8493 -0.4840
   12SAPS  C219 1541   1.732   0.353   8.161 -0.3130 -0.0905  0.2454
   12SAPS  H19R 1542   1.754   0.415   8.251 -1.3624 -0.1612  0.5642
   12SAPS  H19S 1543   1.827   0.336   8.105 -0.5931 -1.4229  0.1565
   12SAPS  C220 1544   1.675   0.219   8.200  0.3420  0.0663 -0.3352
   12SAPS  H20R 1545   1.624   0.217   8.299  0.8940 -5.5887  0.1159
   12SAPS  H20S 1546   1.760   0.148   8.212 -0.7591 -1.2758 -0.3236
   12SAPS  H20T 1547   1.610   0.171   8.124 -0.0751  0.6478 -0.3526
   12SAPS   C33 1548   1.128   1.173   7.055 -0.1181  0.2085  0.4129
   12SAPS   H3X 1549   1.067   1.266   7.061 -1.0971 -0.2325 -1.5560
   12SAPS   H3Y 1550   1.233   1.192   7.024  0.0225  0.9516  1.2885
   12SAPS   C34 1551   1.120   1.091   7.183  0.3691  0.2424  0.6346
   12SAPS   H4X 1552   1.145   0.984   7.164  1.5559  0.2085  2.2076
   12SAPS   H4Y 1553   1.018   1.090   7.227  1.1774 -2.1112  2.6669
   12SAPS   C35 1554   1.210   1.149   7.291 -0.3912 -0.1694  0.4376
   12SAPS   H5X 1555   1.176   1.251   7.316  0.2515 -0.1723  1.3320
   12SAPS   H5Y 1556   1.315   1.167   7.259 -0.5018 -1.7254 -0.9985
   12SAPS   C36 1557   1.204   1.067   7.416 -0.1135  1.0475  1.0058
   12SAPS   H6X 1558   1.263   0.973   7.406  0.7330  1.6789 -0.3695
   12SAPS   H6Y 1559   1.099   1.040   7.437 -0.7979  1.8209 -1.1910
   12SAPS   C37 1560   1.259   1.162   7.528  0.0448  0.7292 -0.6377
   12SAPS   H7X 1561   1.183   1.238   7.555 -2.0455 -1.3055 -0.4429
   12SAPS   H7Y 1562   1.344   1.214   7.480 -0.2858  0.7409 -1.2226
   12SAPS   C38 1563   1.294   1.087   7.660 -0.2144  0.3018  0.1405
   12SAPS   H8X 1564   1.343   0.989   7.648 -1.8202 -0.7829  1.8479
   12SAPS   H8Y 1565   1.191   1.065   7.696 -0.6162 -0.5495 -1.4082
   12SAPS   C39 1566   1.369   1.163   7.762  0.0399  0.2535  0.2175
   12SAPS   H9X 1567   1.374   1.112   7.861  3.2814  2.6345  1.4595
   12SAPS   H9Y 1568   1.318   1.259   7.782  1.6422  0.6502  2.9267
   12SAPS  C310 1569   1.515   1.191   7.719 -0.1617 -0.1226 -0.3725
   12SAPS  H10X 1570   1.522   1.262   7.634 -2.8943 -0.8540 -1.3126
   12SAPS  H10Y 1571   1.569   1.096   7.697  3.5000  2.0525 -1.7332
   12SAPS  C311 1572   1.599   1.270   7.825  0.1568  0.4218  0.0679
   12SAPS  H11X 1573   1.589   1.379   7.807  0.7436  0.4673 -0.0188
   12SAPS  H11Y 1574   1.709   1.260   7.814 -0.0485 -3.1589  0.1750
   12SAPS  C312 1575   1.563   1.227   7.971 -0.0743 -0.1384 -0.9370
   12SAPS  H12X 1576   1.579   1.120   7.996  2.5010  0.6844  1.4356
   12SAPS  H12Y 1577   1.455   1.243   7.992 -0.0092 -1.4587  0.6289
   12SAPS  C313 1578   1.632   1.304   8.082 -0.5449  0.8793 -0.2488
   12SAPS  H13X 1579   1.728   1.339   8.038 -0.7741 -1.1350 -2.5373
   12SAPS  H13Y 1580   1.647   1.231   8.164 -0.3813  1.0754 -0.1015
   12SAPS  C314 1581   1.553   1.417   8.143 -0.5826  0.0555 -0.4579
   12SAPS  H14X 1582   1.535   1.500   8.072  1.3507  0.9154 -0.0049
   12SAPS  H14Y 1583   1.617   1.459   8.223 -1.2126  0.4226 -0.1388
   12SAPS  C315 1584   1.417   1.375   8.213  0.9088 -0.2160 -0.3559
   12SAPS  H15X 1585   1.433   1.290   8.282 -1.4820 -0.7882 -0.4103
   12SAPS  H15Y 1586   1.337   1.338   8.144 -0.4531 -0.6519  1.3695
   12SAPS  C316 1587   1.357   1.498   8.285  0.2533  0.1574  0.4416
   12SAPS  H16X 1588   1.268   1.459   8.340 -0.0828 -0.1693 -0.3149
   12SAPS  H16Y 1589   1.321   1.580   8.218 -1.1799 -0.6359  0.1898
   12SAPS  C317 1590   1.447   1.549   8.400 -0.3462 -0.4217 -0.2485
   12SAPS  H17X 1591   1.542   1.597   8.368 -0.3673  0.6194  1.1164
   12SAPS  H17Y 1592   1.474   1.468   8.472  3.5196  0.4969 -0.4249
   12SAPS  C318 1593   1.363   1.647   8.483 -0.5656 -0.0687  0.3129
   12SAPS  H18X 1594   1.263   1.604   8.504 -1.5645  2.5083  1.2385
   12SAPS  H18Y 1595   1.337   1.732   8.417 -0.4167  0.1077  0.4822
   12SAPS  H18Z 1596   1.414   1.673   8.578  0.5164 -0.8253 -0.0345
   13SAPS     N 1597   2.953   5.937   6.213 -0.1792 -0.0179 -0.5721
   13SAPS   HN1 1598   2.899   5.990   6.284 -0.8335 -0.4853 -0.7106
   13SAPS   HN2 1599   2.895   5.853   6.193  1.7014 -1.3786 -0.5591
   13SAPS   HN3 1600   3.033   5.893   6.263 -0.4552 -0.8541 -0.8366
   13SAPS   C12 1601   2.974   6.027   6.095 -0.8235 -0.6111 -0.8524
   13SAPS  H12A 1602   3.017   5.970   6.014  0.2446 -3.1141  1.3530
   13SAPS   C13 1603   2.853   6.095   6.034  0.3424 -0.3084  0.0524
   13SAPS  O13A 1604   2.734   6.082   6.080 -0.2719  0.0818  0.2300
   13SAPS  O13B 1605   2.880   6.181   5.947  0.1053  0.1086  0.2192
   13SAPS   C11 1606   3.068   6.140   6.151 -0.1248  0.0123  0.1586
   13SAPS  H11A 1607   3.107   6.205   6.070  1.2156 -0.6289  0.2680
   13SAPS  H11B 1608   3.160   6.095   6.194  0.2425 -0.0050 -0.6399
   13SAPS     P 1609   3.052   6.362   6.288 -0.3511 -0.4611  0.0219
   13SAPS   O13 1610   3.193   6.370   6.247 -0.6079 -0.0122 -0.1847
   13SAPS   O14 1611   2.964   6.467   6.237  0.4174  0.2563  0.1458
   13SAPS   O12 1612   2.997   6.216   6.246 -0.8551  0.3110  0.2861
   13SAPS   O11 1613   3.036   6.358   6.443 -0.0330  0.3914 -0.4007
   13SAPS    C1 1614   3.010   6.237   6.514  0.7617  0.1276  0.1569
   13SAPS    HA 1615   2.904   6.205   6.499  0.9264 -0.1053 -0.5793
   13SAPS    HB 1616   3.083   6.162   6.478 -0.8572 -2.2393  1.5223
   13SAPS    C2 1617   3.025   6.253   6.666 -0.6878 -0.1774 -0.7106
   13SAPS    HS 1618   3.056   6.153   6.703  1.8407  0.7149 -0.1729
   13SAPS   O21 1619   2.915   6.303   6.740  0.3124 -0.0235 -0.3060
   13SAPS   C21 1620   2.814   6.213   6.751  0.9403 -0.7286  0.0292
   13SAPS   O22 1621   2.812   6.098   6.713 -0.1676 -1.0238 -0.2862
   13SAPS   C22 1622   2.691   6.272   6.830  0.2650 -0.3778  0.3531
   13SAPS   H2R 1623   2.657   6.368   6.786  1.3706 -0.8850 -1.7347
   13SAPS   H2S 1624   2.618   6.190   6.816  0.0353 -0.3112  1.1006
   13SAPS    C3 1625   3.151   6.332   6.719  0.0298 -0.4109  0.2490
   13SAPS    HX 1626   3.155   6.426   6.659 -1.8274 -0.1897  0.4057
   13SAPS    HY 1627   3.243   6.280   6.687  0.1241 -0.3266  0.3795
   13SAPS   O31 1628   3.165   6.357   6.865  1.0367  0.1582  0.1639
   13SAPS   C31 1629   3.274   6.407   6.907  0.0958  0.9333  0.2687
   13SAPS   O32 1630   3.379   6.411   6.846  0.3433  0.1945  0.1966
   13SAPS   C32 1631   3.250   6.452   7.053  0.6865 -0.3436 -0.3694
   13SAPS   H2X 1632   3.167   6.390   7.093 -0.7770  1.7176 -0.0203
   13SAPS   H2Y 1633   3.204   6.553   7.041  0.3005 -0.4535  0.1613
   13SAPS   C23 1634   2.722   6.278   6.975 -0.1043 -1.0033 -0.1512
   13SAPS   H3R 1635   2.809   6.348   6.981  0.0476 -1.1709 -0.4121
   13SAPS   H3S 1636   2.758   6.183   7.019 -1.8885 -2.7240 -2.1902
   13SAPS   C24 1637   2.599   6.331   7.056 -0.0763  0.7806  0.3878
   13SAPS   H4R 1638   2.550   6.409   6.993  2.2608  1.9585 -0.0880
   13SAPS   H4S 1639   2.632   6.368   7.155 -0.8832  1.2036  0.5114
   13SAPS   C25 1640   2.503   6.214   7.072  0.1991  0.2469 -0.0672
   13SAPS   H5R 1641   2.513   6.135   6.996  3.4259  0.9194 -0.4744
   13SAPS   C26 1642   2.412   6.210   7.170  0.1377 -0.1689  0.5798
   13SAPS   H6R 1643   2.352   6.119   7.178 -0.3416  0.1114  0.1976
   13SAPS   C27 1644   2.383   6.320   7.269  0.1872  0.0176  0.1689
   13SAPS   H7R 1645   2.391   6.422   7.228  0.9100 -0.4154 -0.7949
   13SAPS   H7S 1646   2.454   6.310   7.354 -0.1546 -0.4206  0.4091
   13SAPS   C28 1647   2.240   6.310   7.316 -0.0813  0.5917  0.3179
   13SAPS   H8R 1648   2.162   6.334   7.243 -1.1759  0.0122  1.2528
   13SAPS   C29 1649   2.200   6.254   7.428  0.3278 -0.7823 -0.4503
   13SAPS   H9R 1650   2.095   6.251   7.461  0.8608 -1.0543  1.3816
   13SAPS  C210 1651   2.282   6.187   7.539  0.6122 -0.3685  0.2507
   13SAPS  H10R 1652   2.312   6.252   7.624 -1.9603 -0.3283  1.2212
   13SAPS  H10S 1653   2.380   6.159   7.496  1.1373  2.8559 -0.8833
   13SAPS  C211 1654   2.208   6.073   7.609  0.1672  0.0206  0.0745
   13SAPS  H11R 1655   2.190   5.983   7.549 -1.7014  0.7880 -0.5717
   13SAPS  C212 1656   2.176   6.064   7.743  1.1389  0.1367  0.2433
   13SAPS  H12R 1657   2.138   5.968   7.781  0.6622 -0.0301 -0.6341
   13SAPS  C213 1658   2.201   6.163   7.859 -0.4604 -0.1199  0.0729
   13SAPS  H13R 1659   2.111   6.225   7.879 -0.0205  1.4325 -2.3381
   13SAPS  H13S 1660   2.278   6.234   7.823 -0.4844  0.3494  0.9406
   13SAPS  C214 1661   2.261   6.114   7.987 -0.6991 -0.0893 -0.4244
   13SAPS  H14R 1662   2.348   6.048   7.976 -1.6870 -1.6626  0.6690
   13SAPS  C215 1663   2.233   6.156   8.116  0.3106 -0.1006 -0.1115
   13SAPS  H15R 1664   2.297   6.118   8.196 -0.6651 -1.1722  0.1839
   13SAPS  C216 1665   2.140   6.258   8.167 -0.7348 -1.0433  0.0961
   13SAPS  H16R 1666   2.122   6.332   8.086  1.6337 -0.0278  0.3986
   13SAPS  H16S 1667   2.189   6.314   8.250 -0.1387 -0.9345 -0.3176
   13SAPS  C217 1668   2.001   6.218   8.221  0.5790  0.1532 -0.1513
   13SAPS  H17R 1669   1.958   6.141   8.154 -0.7138 -0.7452  1.6603
   13SAPS  H17S 1670   1.935   6.307   8.208 -0.0840 -0.3124  0.0038
   13SAPS  C218 1671   2.004   6.178   8.369  0.0433 -0.5106  0.0291
   13SAPS  H18R 1672   1.993   6.270   8.431  1.8305 -0.0692 -0.2404
   13SAPS  H18S 1673   2.107   6.140   8.381 -0.4424 -1.1985  2.5323
   13SAPS  C219 1674   1.900   6.079   8.404  0.0693 -0.3183 -0.1102
   13SAPS  H19R 1675   1.905   5.996   8.331 -0.7880 -1.3007  0.9078
   13SAPS  H19S 1676   1.795   6.108   8.379 -0.0410 -0.8574 -0.2988
   13SAPS  C220 1677   1.911   6.037   8.556 -0.2867 -0.0557 -0.3947
   13SAPS  H20R 1678   1.887   6.129   8.613 -1.3115  0.0584 -0.9789
   13SAPS  H20S 1679   2.015   6.007   8.582 -0.8634 -0.6761  1.3720
   13SAPS  H20T 1680   1.849   5.948   8.582 -1.6052  0.2212 -2.3533
   13SAPS   C33 1681   3.371   6.457   7.149 -0.1456  0.2016  0.4355
   13SAPS   H3X 1682   3.436   6.540   7.114 -1.1063  0.6404 -0.3489
   13SAPS   H3Y 1683   3.441   6.371   7.150  1.2718  1.2804 -0.6845
   13SAPS   C34 1684   3.334   6.480   7.288  0.7535 -0.8848  0.3854
   13SAPS   H4X 1685   3.265   6.567   7.290  0.1510 -1.2922 -1.1253
   13SAPS   H4Y 1686   3.420   6.531   7.335  0.6365 -1.0048  0.7393
   13SAPS   C35 1687   3.288   6.349   7.362  0.2648  0.7936 -0.5741
   13SAPS   H5X 1688   3.375   6.330   7.429  0.2937  1.0146 -0.5465
   13SAPS   H5Y 1689   3.293   6.266   7.288 -0.5478  0.8700 -0.7177
   13SAPS   C36 1690   3.159   6.369   7.434  0.5718  0.3270  0.4521
   13SAPS   H6X 1691   3.100   6.275   7.448  2.4612 -0.8043  1.1382
   13SAPS   H6Y 1692   3.087   6.436   7.382  0.0219  0.4707  1.3716
   13SAPS   C37 1693   3.176   6.416   7.580 -0.5776  0.2299 -0.6715
   13SAPS   H7X 1694   3.223   6.516   7.567 -1.9425  0.9009 -0.6149
   13SAPS   H7Y 1695   3.253   6.354   7.631 -0.0203  1.0487 -0.4959
   13SAPS   C38 1696   3.045   6.424   7.668 -0.7184  0.7157  0.2249
   13SAPS   H8X 1697   2.999   6.324   7.686  1.2747 -0.1696  0.7181
   13SAPS   H8Y 1698   2.978   6.497   7.619 -0.9084 -0.9140 -2.0532
   13SAPS   C39 1699   3.090   6.474   7.802  0.0737  0.2751 -0.0774
   13SAPS   H9X 1700   3.125   6.579   7.799  0.2310  0.3062  1.6638
   13SAPS   H9Y 1701   3.183   6.417   7.826  0.1603  0.2248 -0.5334
   13SAPS  C310 1702   2.992   6.465   7.918 -0.2222 -0.2810  0.9646
   13SAPS  H10X 1703   2.950   6.363   7.918 -0.0426 -0.3618 -0.0566
   13SAPS  H10Y 1704   2.912   6.532   7.880  1.8926 -0.4845 -4.8470
   13SAPS  C311 1705   3.044   6.494   8.054 -0.0596  0.1410 -0.3419
   13SAPS  H11X 1706   3.119   6.416   8.081  0.9011  1.6525  1.5508
   13SAPS  H11Y 1707   2.954   6.499   8.118  0.9276  0.7453  1.0244
   13SAPS  C312 1708   3.120   6.625   8.068 -0.3467 -0.0224 -0.5290
   13SAPS  H12X 1709   3.069   6.715   8.026 -1.2152  0.5135  1.5242
   13SAPS  H12Y 1710   3.210   6.624   8.003  0.6548  2.8718  0.6128
   13SAPS  C313 1711   3.158   6.648   8.215  0.2593 -0.1152  0.0298
   13SAPS  H13X 1712   3.230   6.573   8.254  2.6379  1.1629 -1.7212
   13SAPS  H13Y 1713   3.069   6.642   8.282  0.1519  1.6749  0.0899
   13SAPS  C314 1714   3.223   6.784   8.241 -0.0862  0.4178  0.3339
   13SAPS  H14X 1715   3.153   6.863   8.207 -1.7123 -0.5919  1.1660
   13SAPS  H14Y 1716   3.314   6.793   8.178 -0.8590  0.6852 -0.7705
   13SAPS  C315 1717   3.252   6.800   8.389  1.3161 -0.8471 -0.5875
   13SAPS  H15X 1718   3.156   6.772   8.437  1.2930 -0.3271 -0.3198
   13SAPS  H15Y 1719   3.268   6.909   8.406  0.0121 -0.7249 -0.0337
   13SAPS  C316 1720   3.372   6.711   8.433  0.3621 -0.4846  0.1699
   13SAPS  H16X 1721   3.419   6.659   8.347  3.2813 -0.3005  1.5484
   13SAPS  H16Y 1722   3.338   6.631   8.503  2.1272 -0.4979  1.0419
   13SAPS  C317 1723   3.477   6.800   8.507  0.0955 -0.3213  0.1878
   13SAPS  H17X 1724   3.543   6.739   8.572  0.1131  0.0003  0.4742
   13SAPS  H17Y 1725   3.427   6.869   8.578  0.8552  0.6763 -0.2203
   13SAPS  C318 1726   3.560   6.899   8.423  0.2763  0.1848  0.1927
   13SAPS  H18X 1727   3.494   6.975   8.376 -1.0571 -1.6350 -1.0297
   13SAPS  H18Y 1728   3.616   6.839   8.348  0.8752 -0.4426  1.1056
   13SAPS  H18Z 1729   3.626   6.957   8.491 -0.8434  1.5132  0.1763
   14SAPS     N 1730   2.158   1.028   5.551  0.1033  0.0657  0.7560
   14SAPS   HN1 1731   2.233   1.095   5.523  0.2661 -1.0911 -1.8279
   14SAPS   HN2 1732   2.163   1.020   5.655  0.5218  1.9996  0.9165
   14SAPS   HN3 1733   2.183   0.937   5.506  0.7758  1.6832 -2.4542
   14SAPS   C12 1734   2.033   1.090   5.489  0.1595 -0.5306  0.1068
   14SAPS  H12A 1735   2.030   1.194   5.520 -1.5527  0.2368 -2.3344
   14SAPS   C13 1736   2.028   1.083   5.339  0.3440 -0.5670  0.9167
   14SAPS  O13A 1737   2.112   1.019   5.274 -0.3507  0.1046  0.0614
   14SAPS  O13B 1738   1.927   1.132   5.277  0.4307  0.3616 -0.1528
   14SAPS   C11 1739   1.912   1.006   5.538 -0.5627 -0.4019  0.2120
   14SAPS  H11A 1740   1.904   0.912   5.479 -1.9569  1.0901 -2.1339
   14SAPS  H11B 1741   1.825   1.071   5.516 -0.9383 -0.0266  2.5432
   14SAPS     P 1742   1.790   0.980   5.771 -0.3925  0.1232 -0.1202
   14SAPS   O13 1743   1.816   1.072   5.889  0.5723 -0.0413 -0.3224
   14SAPS   O14 1744   1.666   1.006   5.700  0.6550  0.0446  0.0942
   14SAPS   O12 1745   1.919   0.983   5.676  0.6329 -0.1065  0.4135
   14SAPS   O11 1746   1.780   0.830   5.819 -0.1426 -0.0348 -0.6021
   14SAPS    C1 1747   1.903   0.777   5.879  0.5143  0.2118  0.5833
   14SAPS    HA 1748   1.896   0.666   5.885 -0.1301  0.1786 -0.5311
   14SAPS    HB 1749   1.985   0.791   5.806  0.2352  0.4971  0.3215
   14SAPS    C2 1750   1.924   0.819   6.026 -0.2798  0.2867  0.6826
   14SAPS    HS 1751   1.997   0.902   6.027  0.6772 -0.3971 -2.2608
   14SAPS   O21 1752   1.976   0.709   6.103 -0.6034  0.1179  1.1317
   14SAPS   C21 1753   2.090   0.641   6.072  0.3645 -0.1225 -0.0654
   14SAPS   O22 1754   2.146   0.641   5.964 -0.5100  0.1995 -0.2207
   14SAPS   C22 1755   2.139   0.579   6.201  0.5980  0.0546  0.6985
   14SAPS   H2R 1756   2.063   0.504   6.230  1.2124 -0.0550  2.1034
   14SAPS   H2S 1757   2.235   0.532   6.172 -0.4979 -0.5857 -2.1439
   14SAPS    C3 1758   1.800   0.855   6.115 -0.4950  0.5000 -0.3242
   14SAPS    HX 1759   1.715   0.790   6.087 -0.8565  0.7001  0.3109
   14SAPS    HY 1760   1.767   0.958   6.087  0.1480  0.8226  0.0803
   14SAPS   O31 1761   1.816   0.833   6.258 -0.0122  0.1332  0.1644
   14SAPS   C31 1762   1.872   0.945   6.313  0.2755 -0.3240  0.3251
   14SAPS   O32 1763   1.919   1.040   6.259  0.1778 -0.2737 -0.1274
   14SAPS   C32 1764   1.844   0.943   6.466  0.2142  0.0401  0.5043
   14SAPS   H2X 1765   1.903   0.857   6.503  2.0806  1.0928  0.0590
   14SAPS   H2Y 1766   1.737   0.913   6.469 -0.1542  1.2801  0.3015
   14SAPS   C23 1767   2.149   0.676   6.324 -0.2221 -0.3368  0.3801
   14SAPS   H3R 1768   2.067   0.750   6.321  0.1914  0.1070 -0.5873
   14SAPS   H3S 1769   2.250   0.721   6.317  0.3159 -1.6439 -0.9220
   14SAPS   C24 1770   2.144   0.601   6.460  0.4128  0.1585 -0.0968
   14SAPS   H4R 1771   2.215   0.516   6.450  0.9442  0.7919 -2.0663
   14SAPS   H4S 1772   2.042   0.560   6.479 -0.6264  1.9852 -1.3972
   14SAPS   C25 1773   2.196   0.668   6.580 -0.4282 -0.4602  0.2116
   14SAPS   H5R 1774   2.289   0.722   6.556 -0.1346 -0.7869  0.5984
   14SAPS   C26 1775   2.144   0.666   6.707  0.6958  0.4452 -0.3200
   14SAPS   H6R 1776   2.197   0.726   6.783 -1.9113  1.4331  0.8055
   14SAPS   C27 1777   2.026   0.587   6.748  0.5747 -0.2451 -0.1058
   14SAPS   H7R 1778   2.058   0.495   6.802 -0.9479 -0.7174  0.0424
   14SAPS   H7S 1779   1.951   0.567   6.669  0.9887  1.2854 -0.9152
   14SAPS   C28 1780   1.949   0.676   6.849  0.0053  0.2130  0.0557
   14SAPS   H8R 1781   1.855   0.725   6.818 -0.0348  0.3769  0.4335
   14SAPS   C29 1782   1.973   0.688   6.978  0.3386 -0.0836 -1.3517
   14SAPS   H9R 1783   1.897   0.731   7.044  1.3919  1.7117 -1.2410
   14SAPS  C210 1784   2.081   0.616   7.062  0.2378 -1.0422 -0.5623
   14SAPS  H10R 1785   2.173   0.667   7.026  1.6336 -1.5488  2.0266
   14SAPS  H10S 1786   2.095   0.510   7.029  0.4126 -1.0227 -0.5530
   14SAPS  C211 1787   2.082   0.638   7.210 -0.4239 -0.4745  0.5223
   14SAPS  H11R 1788   2.050   0.733   7.256 -2.4902 -1.6583  1.7169
   14SAPS  C212 1789   2.105   0.538   7.290 -0.0516 -0.2102 -0.4659
   14SAPS  H12R 1790   2.095   0.565   7.396 -0.7078  2.1066 -1.0628
   14SAPS  C213 1791   2.153   0.400   7.262 -0.4464 -0.0194  0.4990
   14SAPS  H13R 1792   2.214   0.370   7.350  1.4997  1.4252 -0.3092
   14SAPS  H13S 1793   2.228   0.402   7.181 -0.0705 -4.8334  0.4482
   14SAPS  C214 1794   2.036   0.309   7.218  0.6018  0.5115  0.2144
   14SAPS  H14R 1795   1.972   0.359   7.143  1.1150  1.3963  0.3477
   14SAPS  C215 1796   2.010   0.183   7.249 -0.1415 -0.0165 -0.2061
   14SAPS  H15R 1797   1.919   0.146   7.200 -1.7850 -0.1083  2.6721
   14SAPS  C216 1798   2.093   0.088   7.328  0.4171 -0.0364 -0.6703
   14SAPS  H16R 1799   2.042   0.005   7.382  3.1237 -1.6062 -0.3605
   14SAPS  H16S 1800   2.119   0.159   7.409 -1.3200  0.7610 -0.7668
   14SAPS  C217 1801   2.226   0.051   7.255  0.2478  0.1528  0.5408
   14SAPS  H17R 1802   2.307   0.017   7.323 -1.9274  0.7607  3.6976
   14SAPS  H17S 1803   2.265   0.143   7.205 -1.3126  0.3827 -0.3311
   14SAPS  C218 1804   2.204  -0.057   7.150 -0.2857 -0.2467 -0.3492
   14SAPS  H18R 1805   2.135  -0.029   7.067 -0.5493  0.0465 -0.0331
   14SAPS  H18S 1806   2.159  -0.150   7.190 -0.1812 -0.7951 -1.4822
   14SAPS  C219 1807   2.341  -0.100   7.095 -0.2126 -0.0856 -1.1784
   14SAPS  H19R 1808   2.410  -0.120   7.180 -0.9550 -0.5216 -0.6729
   14SAPS  H19S 1809   2.385  -0.013   7.041  0.8485  0.4805  0.5155
   14SAPS  C220 1810   2.334  -0.224   7.008 -0.1489 -0.0383  0.1195
   14SAPS  H20R 1811   2.283  -0.314   7.048 -0.1742 -1.6260 -3.1284
   14SAPS  H20S 1812   2.437  -0.251   6.976 -0.5259  0.4402 -1.6268
   14SAPS  H20T 1813   2.284  -0.188   6.915 -0.6555  0.6416  0.6442
   14SAPS   C33 1814   1.870   1.076   6.539 -0.2806  0.1846  0.3243
   14SAPS   H3X 1815   1.783   1.105   6.603  0.4988  2.1805  0.5730
   14SAPS   H3Y 1816   1.888   1.153   6.461  2.1376 -2.1944 -1.6388
   14SAPS   C34 1817   1.986   1.061   6.638 -0.4772 -0.0765  0.0555
   14SAPS   H4X 1818   2.076   1.057   6.574 -1.7079 -1.1118 -1.6955
   14SAPS   H4Y 1819   1.965   0.960   6.681 -0.2266 -0.0904  0.1435
   14SAPS   C35 1820   1.995   1.171   6.744 -0.4047  0.1464 -0.3921
   14SAPS   H5X 1821   1.905   1.161   6.809 -0.1621 -0.3494 -0.1288
   14SAPS   H5Y 1822   1.998   1.261   6.679  3.5697  0.6634  0.2721
   14SAPS   C36 1823   2.122   1.168   6.833  0.9916 -0.1703 -0.0277
   14SAPS   H6X 1824   2.131   1.273   6.870  0.6442  0.0670 -0.6020
   14SAPS   H6Y 1825   2.216   1.144   6.777  0.7905 -0.6630 -0.1542
   14SAPS   C37 1826   2.109   1.073   6.957  0.7688 -0.3819  0.4470
   14SAPS   H7X 1827   2.210   1.063   7.002  1.2791  0.1363 -0.5405
   14SAPS   H7Y 1828   2.073   0.974   6.922 -0.0148 -0.4245  1.3442
   14SAPS   C38 1829   2.012   1.124   7.058  0.7236 -0.0894 -0.2613
   14SAPS   H8X 1830   1.911   1.157   7.027 -0.4088 -2.4899  0.6327
   14SAPS   H8Y 1831   2.061   1.218   7.091  2.7019 -1.6461  1.5801
   14SAPS   C39 1832   1.993   1.028   7.181 -0.4604  0.8391  0.5314
   14SAPS   H9X 1833   2.093   0.985   7.205 -0.8732  0.3458  1.4121
   14SAPS   H9Y 1834   1.944   0.941   7.133  2.0895 -0.2898 -0.2067
   14SAPS  C310 1835   1.934   1.087   7.307  0.7340  0.4410 -0.3899
   14SAPS  H10X 1836   1.835   1.129   7.283  0.6824 -0.1943 -1.3407
   14SAPS  H10Y 1837   2.001   1.166   7.349  2.1915 -0.3080 -1.2266
   14SAPS  C311 1838   1.910   0.988   7.418 -0.3417  0.0808  0.9191
   14SAPS  H11X 1839   1.999   0.922   7.425  0.7117  1.3480  0.0348
   14SAPS  H11Y 1840   1.817   0.938   7.383  0.3892 -0.6508 -0.0105
   14SAPS  C312 1841   1.875   1.038   7.560  0.3210 -0.4951 -0.6490
   14SAPS  H12X 1842   1.822   0.953   7.608 -0.6002  1.2081  1.5270
   14SAPS  H12Y 1843   1.799   1.118   7.546  0.3970 -0.7973 -3.3650
   14SAPS  C313 1844   1.998   1.081   7.641 -0.0044 -0.9144  0.0486
   14SAPS  H13X 1845   2.037   1.179   7.608 -4.0370  1.3703  1.2792
   14SAPS  H13Y 1846   2.076   1.002   7.638 -0.0070 -0.8838 -0.9791
   14SAPS  C314 1847   1.962   1.099   7.790 -0.0789  0.4702 -0.4095
   14SAPS  H14X 1848   1.893   1.185   7.810 -0.0639  0.5562 -0.7247
   14SAPS  H14Y 1849   2.059   1.118   7.840 -0.1064 -0.3983 -0.0049
   14SAPS  C315 1850   1.909   0.965   7.843  0.3823 -0.3162  0.0061
   14SAPS  H15X 1851   1.985   0.887   7.820 -0.5373 -0.6141 -2.2744
   14SAPS  H15Y 1852   1.810   0.939   7.801  1.0769 -0.9719 -1.2758
   14SAPS  C316 1853   1.876   0.959   7.993  0.2372 -1.0362 -0.2935
   14SAPS  H16X 1854   1.802   1.041   8.003  0.9286 -0.4844  0.5188
   14SAPS  H16Y 1855   1.966   0.987   8.053  0.5591 -3.2340  0.3273
   14SAPS  C317 1856   1.814   0.825   8.033  0.4268 -0.7030  0.3556
   14SAPS  H17X 1857   1.892   0.746   8.033 -0.1526 -1.2989  1.3838
   14SAPS  H17Y 1858   1.740   0.802   7.954  1.5488 -1.6564 -0.4629
   14SAPS  C318 1859   1.761   0.831   8.180 -0.1144  0.3054  0.2915
   14SAPS  H18X 1860   1.694   0.918   8.197  0.1935  0.5739  0.1422
   14SAPS  H18Y 1861   1.849   0.850   8.246  1.6082 -1.0449 -1.4741
   14SAPS  H18Z 1862   1.715   0.735   8.210 -1.2396  0.1170 -1.8164
   15SAPS     N 1863   3.063   0.697   5.948  0.4963 -0.0177 -0.3635
   15SAPS   HN1 1864   3.133   0.732   5.880  2.7612  0.1102  1.8439
   15SAPS   HN2 1865   2.966   0.682   5.914  0.8671 -0.1847 -1.3719
   15SAPS   HN3 1866   3.051   0.768   6.023  0.8935 -0.3344  0.0118
   15SAPS   C12 1867   3.118   0.566   6.003 -0.0995  0.1683 -0.4487
   15SAPS  H12A 1868   3.099   0.500   5.921  1.5184 -0.0675 -0.6583
   15SAPS   C13 1869   3.270   0.574   6.034  0.1218 -0.7991 -0.0590
   15SAPS  O13A 1870   3.329   0.690   6.035  0.0374  0.0006  0.2057
   15SAPS  O13B 1871   3.336   0.470   6.071  0.8233  0.1048  0.1522
   15SAPS   C11 1872   3.033   0.534   6.130 -0.2536  0.2946 -0.0263
   15SAPS  H11A 1873   3.041   0.623   6.196 -1.2618  0.7280 -0.4735
   15SAPS  H11B 1874   3.096   0.460   6.183  1.7101  1.4082 -0.6600
   15SAPS     P 1875   2.841   0.351   6.130  0.1194  0.1880 -0.0204
   15SAPS   O13 1876   2.716   0.343   6.049  0.0238  0.9891  0.3963
   15SAPS   O14 1877   2.946   0.248   6.101 -0.2431 -0.4977 -0.2918
   15SAPS   O12 1878   2.900   0.496   6.102 -0.3588 -0.5356  0.0374
   15SAPS   O11 1879   2.809   0.348   6.284 -0.3000  0.3479  0.1367
   15SAPS    C1 1880   2.906   0.381   6.383  0.0375  0.4925  0.6075
   15SAPS    HA 1881   2.989   0.307   6.381  0.2229  0.6934  0.7554
   15SAPS    HB 1882   2.948   0.484   6.372  0.3503  0.2244 -0.8131
   15SAPS    C2 1883   2.844   0.380   6.527  0.0564 -0.1173  0.3134
   15SAPS    HS 1884   2.920   0.429   6.592 -1.3610  2.9227 -0.1546
   15SAPS   O21 1885   2.811   0.249   6.579  0.1784 -0.3477  0.3168
   15SAPS   C21 1886   2.914   0.171   6.616 -0.3066 -0.6970 -0.0822
   15SAPS   O22 1887   3.030   0.207   6.607  0.0989 -0.1168  0.5702
   15SAPS   C22 1888   2.855   0.045   6.674 -0.1970  0.3654  0.3569
   15SAPS   H2R 1889   2.753   0.058   6.714  0.5153 -0.3634  2.5187
   15SAPS   H2S 1890   2.850  -0.029   6.590  0.0922  0.0574  0.6054
   15SAPS    C3 1891   2.708   0.469   6.518  0.2228  0.4917 -0.4109
   15SAPS    HX 1892   2.614   0.411   6.525  0.0018  0.6078 -2.0183
   15SAPS    HY 1893   2.719   0.510   6.415  1.5190 -0.9203 -0.8829
   15SAPS   O31 1894   2.722   0.571   6.624 -0.1771 -0.2850 -0.0303
   15SAPS   C31 1895   2.621   0.646   6.643 -0.4951  0.2331  0.0982
   15SAPS   O32 1896   2.536   0.670   6.557 -0.2820 -0.1744 -0.2046
   15SAPS   C32 1897   2.633   0.705   6.783 -0.1884 -0.5015 -0.4497
   15SAPS   H2X 1898   2.736   0.743   6.799 -0.2384 -0.4948 -0.1508
   15SAPS   H2Y 1899   2.612   0.628   6.859  3.5516 -2.7800 -1.4681
   15SAPS   C23 1900   2.947  -0.019   6.779  0.4356 -0.1615 -0.3470
   15SAPS   H3R 1901   2.988   0.035   6.867 -2.8281 -0.6031  1.5958
   15SAPS   H3S 1902   3.036  -0.054   6.722  0.6559  0.3804 -0.3476
   15SAPS   C24 1903   2.876  -0.143   6.841 -0.2068  0.4672  0.3616
   15SAPS   H4R 1904   2.948  -0.208   6.895  1.3493  0.6250 -1.3903
   15SAPS   H4S 1905   2.839  -0.197   6.752  1.4341 -0.5664  0.2655
   15SAPS   C25 1906   2.761  -0.109   6.930 -0.6943  0.0358 -0.6394
   15SAPS   H5R 1907   2.675  -0.102   6.862  0.2201  0.3237 -1.8174
   15SAPS   C26 1908   2.758  -0.089   7.065 -0.0692 -0.0247  0.4710
   15SAPS   H6R 1909   2.659  -0.085   7.114 -0.5199  0.8292 -0.4719
   15SAPS   C27 1910   2.883  -0.077   7.149  0.0752  0.4831 -0.5189
   15SAPS   H7R 1911   2.881   0.025   7.192  0.0991 -0.0612  0.8240
   15SAPS   H7S 1912   2.975  -0.073   7.087  0.8586  0.3555  0.6034
   15SAPS   C28 1913   2.907  -0.192   7.248  0.4462  0.4559  0.3654
   15SAPS   H8R 1914   2.998  -0.251   7.232  0.8981  0.6025  2.1683
   15SAPS   C29 1915   2.827  -0.229   7.352 -0.3227 -0.2312  0.0486
   15SAPS   H9R 1916   2.865  -0.321   7.399 -0.6074  0.1391  1.0468
   15SAPS  C210 1917   2.708  -0.163   7.409 -0.0366  0.5198  0.3871
   15SAPS  H10R 1918   2.712  -0.061   7.366 -1.5325  0.8045  0.8522
   15SAPS  H10S 1919   2.728  -0.155   7.517  1.0967  0.7144  0.1713
   15SAPS  C211 1920   2.573  -0.214   7.380  0.1955  0.0846  0.9416
   15SAPS  H11R 1921   2.554  -0.227   7.272  0.3362 -0.3891  0.9724
   15SAPS  C212 1922   2.483  -0.252   7.463 -0.7360  0.2488 -0.0933
   15SAPS  H12R 1923   2.386  -0.291   7.427 -0.3202  0.4223 -1.4640
   15SAPS  C213 1924   2.496  -0.272   7.611 -0.2854 -0.4823 -0.1644
   15SAPS  H13R 1925   2.603  -0.269   7.641 -0.8959 -0.0054  2.1362
   15SAPS  H13S 1926   2.463  -0.374   7.638 -0.8342 -0.1248  0.5265
   15SAPS  C214 1927   2.414  -0.176   7.688 -0.2152  0.1562  0.0958
   15SAPS  H14R 1928   2.347  -0.107   7.635 -1.9278 -2.1701 -0.9282
   15SAPS  C215 1929   2.422  -0.156   7.819 -0.3863 -0.0940  0.4744
   15SAPS  H15R 1930   2.340  -0.098   7.863 -2.9903 -2.4967 -0.8883
   15SAPS  C216 1931   2.501  -0.241   7.915 -0.4488 -0.4232  0.1121
   15SAPS  H16R 1932   2.561  -0.165   7.970  1.1068 -1.4830 -0.0478
   15SAPS  H16S 1933   2.577  -0.306   7.866  3.4561  2.7939  1.3522
   15SAPS  C217 1934   2.406  -0.318   8.014  0.8409  0.1057  0.3291
   15SAPS  H17R 1935   2.347  -0.398   7.964  2.5759 -2.2081  1.8226
   15SAPS  H17S 1936   2.340  -0.251   8.073 -0.4465 -0.2664 -0.6194
   15SAPS  C218 1937   2.491  -0.384   8.121 -0.3252  0.1767 -0.1182
   15SAPS  H18R 1938   2.430  -0.421   8.206  1.7446  1.3946  2.0208
   15SAPS  H18S 1939   2.570  -0.318   8.162  0.9236 -2.5199  2.1131
   15SAPS  C219 1940   2.571  -0.501   8.057 -0.2854  0.6206  0.1812
   15SAPS  H19R 1941   2.646  -0.457   7.988  2.4393 -1.1144  1.8450
   15SAPS  H19S 1942   2.504  -0.572   8.004 -0.7844  0.8420  0.5071
   15SAPS  C220 1943   2.659  -0.570   8.162 -0.5368 -0.5087  0.1339
   15SAPS  H20R 1944   2.584  -0.622   8.225 -1.3714 -0.9071 -1.1628
   15SAPS  H20S 1945   2.719  -0.502   8.226 -0.2608 -1.8153  1.3190
   15SAPS  H20T 1946   2.732  -0.643   8.121  0.3353 -0.4721  1.5540
   15SAPS   C33 1947   2.529   0.820   6.790  0.4223 -0.6653 -0.0661
   15SAPS   H3X 1948   2.423   0.788   6.779 -0.3592  1.5524  0.4169
   15SAPS   H3Y 1949   2.558   0.907   6.726 -0.6420  1.1208  1.7555
   15SAPS   C34 1950   2.532   0.893   6.932  0.7202 -0.1582 -0.0354
   15SAPS   H4X 1951   2.450   0.968   6.937 -0.2656 -1.1326 -1.1634
   15SAPS   H4Y 1952   2.631   0.943   6.943  0.1043  1.2263 -0.5574
   15SAPS   C35 1953   2.519   0.797   7.052  0.1286  0.1027 -0.6046
   15SAPS   H5X 1954   2.618   0.762   7.089 -0.2376 -1.7775 -1.2744
   15SAPS   H5Y 1955   2.475   0.699   7.023  2.7044 -1.5948  0.8568
   15SAPS   C36 1956   2.447   0.866   7.168  0.6066  0.5253  0.0460
   15SAPS   H6X 1957   2.345   0.888   7.129  0.1932 -1.6693 -0.2585
   15SAPS   H6Y 1958   2.511   0.955   7.183  1.2350 -0.1809  1.8050
   15SAPS   C37 1959   2.440   0.795   7.300  0.0926  0.4321 -0.0263
   15SAPS   H7X 1960   2.535   0.773   7.354  0.2800  0.4021 -0.3671
   15SAPS   H7Y 1961   2.384   0.699   7.299 -0.0479  0.4847  1.0733
   15SAPS   C38 1962   2.370   0.881   7.409  0.1566 -0.0104  1.0065
   15SAPS   H8X 1963   2.272   0.922   7.377  0.3303  0.1949  0.7367
   15SAPS   H8Y 1964   2.444   0.962   7.430  2.4770 -1.5898 -0.5280
   15SAPS   C39 1965   2.341   0.803   7.539 -0.8636  0.1356  0.0738
   15SAPS   H9X 1966   2.410   0.716   7.549 -1.6738 -0.6610 -0.9725
   15SAPS   H9Y 1967   2.238   0.761   7.544 -0.0982 -1.8227  0.4015
   15SAPS  C310 1968   2.372   0.887   7.664 -1.3170 -1.3397 -0.4503
   15SAPS  H10X 1969   2.324   0.987   7.653  0.4945 -0.4674 -0.9081
   15SAPS  H10Y 1970   2.481   0.895   7.683 -1.2515  1.5427 -1.4630
   15SAPS  C311 1971   2.310   0.826   7.791  0.1560  0.4898  0.4591
   15SAPS  H11X 1972   2.326   0.716   7.787  0.4515  0.5647 -0.5300
   15SAPS  H11Y 1973   2.200   0.837   7.786  0.1656 -0.0558 -1.7881
   15SAPS  C312 1974   2.359   0.886   7.921  0.2903  0.5420 -0.2199
   15SAPS  H12X 1975   2.339   0.994   7.903  0.3503  0.5820 -0.0467
   15SAPS  H12Y 1976   2.469   0.878   7.927  0.1778 -4.9366 -0.9062
   15SAPS  C313 1977   2.294   0.831   8.051 -0.4300 -0.0939  0.1798
   15SAPS  H13X 1978   2.325   0.725   8.060 -0.8720 -0.2766 -0.3567
   15SAPS  H13Y 1979   2.185   0.814   8.041 -0.9849 -0.4896  4.8409
   15SAPS  C314 1980   2.323   0.927   8.169  0.4419 -0.0557  0.2730
   15SAPS  H14X 1981   2.313   1.027   8.121  0.5153 -0.0485  0.2725
   15SAPS  H14Y 1982   2.429   0.918   8.200  0.4586 -1.6062 -0.1367
   15SAPS  C315 1983   2.232   0.914   8.294  0.7889  0.3563  0.5632
   15SAPS  H15X 1984   2.252   0.821   8.352  0.8984  0.7632  1.1891
   15SAPS  H15Y 1985   2.128   0.910   8.257  0.5860  1.3262  1.0053
   15SAPS  C316 1986   2.232   1.030   8.395 -0.3464  0.2219  0.3737
   15SAPS  H16X 1987   2.204   1.117   8.332 -1.1732  0.2480  0.7709
   15SAPS  H16Y 1988   2.333   1.037   8.442 -0.0627  1.2720 -0.3482
   15SAPS  C317 1989   2.118   1.014   8.495 -0.0176 -1.4707 -0.0923
   15SAPS  H17X 1990   2.029   0.980   8.439 -1.2929 -0.3139  1.1731
   15SAPS  H17Y 1991   2.092   1.118   8.524  0.4456 -0.8671 -1.7111
   15SAPS  C318 1992   2.139   0.940   8.620  0.0123  0.6097  0.1326
   15SAPS  H18X 1993   2.149   0.832   8.596  2.1575  0.3055  2.0132
   15SAPS  H18Y 1994   2.056   0.948   8.694 -0.4007  0.0035 -0.2592
   15SAPS  H18Z 1995   2.235   0.973   8.666  0.8580 -0.3068 -0.9247
   16SAPS     N 1996   2.787   1.818   6.536  0.0379  0.2643 -0.0615
   16SAPS   HN1 1997   2.732   1.906   6.528 -0.5618 -0.0782  0.2754
   16SAPS   HN2 1998   2.768   1.761   6.451 -0.8679 -1.1811  1.0661
   16SAPS   HN3 1999   2.758   1.762   6.618  0.2294  1.4725  0.8623
   16SAPS   C12 2000   2.933   1.864   6.541 -0.2235  0.0322  0.3524
   16SAPS  H12A 2001   3.003   1.791   6.578  1.5919  1.7133  0.4081
   16SAPS   C13 2002   2.990   1.906   6.406 -0.3280  0.0929  0.4425
   16SAPS  O13A 2003   2.911   1.942   6.310 -0.0321 -0.4253  0.3009
   16SAPS  O13B 2004   3.115   1.896   6.390  0.2022 -0.0491  0.9608
   16SAPS   C11 2005   2.936   1.989   6.642 -0.0385  0.1674  0.0089
   16SAPS  H11A 2006   3.033   2.043   6.637 -0.5499  1.1227  0.1363
   16SAPS  H11B 2007   2.914   1.948   6.743  0.7522  0.7401  0.4266
   16SAPS     P 2008   2.856   2.241   6.608  0.2592 -0.0060 -0.1941
   16SAPS   O13 2009   2.962   2.274   6.514  0.0818 -0.7288  0.1752
   16SAPS   O14 2010   2.719   2.306   6.594 -0.2234  0.2564  0.3838
   16SAPS   O12 2011   2.836   2.082   6.606 -0.2149 -0.0553 -0.2429
   16SAPS   O11 2012   2.904   2.272   6.748 -0.2373  0.3098 -0.1211
   16SAPS    C1 2013   2.832   2.224   6.861  0.2098 -0.2098 -0.4386
   16SAPS    HA 2014   2.732   2.270   6.864  1.0094  2.1248 -3.8188
   16SAPS    HB 2015   2.829   2.113   6.859  2.1620 -0.3459  0.8623
   16SAPS    C2 2016   2.901   2.271   6.993 -0.4122 -0.3564 -0.1154
   16SAPS    HS 2017   3.008   2.243   6.989 -0.5844 -0.9986 -0.3482
   16SAPS   O21 2018   2.830   2.218   7.106 -0.1766  0.3889  0.1719
   16SAPS   C21 2019   2.849   2.081   7.119  0.2487 -0.2481  0.0374
   16SAPS   O22 2020   2.926   2.012   7.050  0.2530  0.7973 -0.3395
   16SAPS   C22 2021   2.794   2.042   7.257  0.4748 -0.3546  0.3786
   16SAPS   H2R 2022   2.684   2.027   7.249  0.2781  1.2981 -0.3355
   16SAPS   H2S 2023   2.845   1.945   7.274 -0.6595 -1.0342  0.0464
   16SAPS    C3 2024   2.886   2.422   6.998  0.0230  0.3055 -0.3453
   16SAPS    HX 2025   2.779   2.451   7.002  0.0804  1.6154 -4.0034
   16SAPS    HY 2026   2.926   2.455   6.900  0.3853  0.2772 -0.2084
   16SAPS   O31 2027   2.957   2.484   7.110  0.0123 -0.0146  0.4852
   16SAPS   C31 2028   3.077   2.528   7.079  0.5010 -0.4354 -1.0473
   16SAPS   O32 2029   3.132   2.544   6.971  0.4590 -0.6085 -0.2485
   16SAPS   C32 2030   3.140   2.582   7.209 -0.3553  0.2447 -0.0778
   16SAPS   H2X 2031   3.099   2.521   7.292 -2.0680 -0.9526 -1.6865
   16SAPS   H2Y 2032   3.100   2.685   7.223  2.2297  1.3350 -0.1795
   16SAPS   C23 2033   2.825   2.140   7.383  0.6044  0.3111  0.6781
   16SAPS   H3R 2034   2.736   2.199   7.415  1.9620  2.2025  1.1450
   16SAPS   H3S 2035   2.902   2.216   7.361  0.5327 -0.1495 -1.3162
   16SAPS   C24 2036   2.883   2.077   7.512 -0.5914  0.0410 -0.3445
   16SAPS   H4R 2037   2.926   2.158   7.574 -0.9144 -1.2799  1.6957
   16SAPS   H4S 2038   2.972   2.020   7.477 -0.6560  0.7696 -1.7601
   16SAPS   C25 2039   2.795   1.982   7.592 -0.2139 -0.2065 -0.0614
   16SAPS   H5R 2040   2.752   1.903   7.529 -1.8299  2.3637 -2.4632
   16SAPS   C26 2041   2.765   1.987   7.722  0.3562 -0.0517  0.0729
   16SAPS   H6R 2042   2.695   1.914   7.765 -2.6789  1.1041 -2.4588
   16SAPS   C27 2043   2.805   2.089   7.821  0.4676 -0.2032 -0.0659
   16SAPS   H7R 2044   2.718   2.157   7.830  0.0913 -0.5671 -0.8217
   16SAPS   H7S 2045   2.889   2.152   7.784  0.6666 -0.1274  0.5046
   16SAPS   C28 2046   2.849   2.030   7.954  1.6216 -0.0045 -0.2378
   16SAPS   H8R 2047   2.958   2.015   7.951  1.9218  1.6286  1.1437
   16SAPS   C29 2048   2.774   1.985   8.057 -0.6854 -0.4780 -0.5718
   16SAPS   H9R 2049   2.827   1.949   8.146 -0.4460  1.8778  0.3142
   16SAPS  C210 2050   2.624   1.996   8.061  0.2865  0.2792 -0.5080
   16SAPS  H10R 2051   2.571   2.052   7.980 -1.9674 -2.5280 -1.1446
   16SAPS  H10S 2052   2.583   2.045   8.152 -1.4836  0.4240 -1.3369
   16SAPS  C211 2053   2.578   1.852   8.071  0.3007  0.1726  0.1868
   16SAPS  H11R 2054   2.585   1.782   7.986 -0.7393  0.1080  0.1493
   16SAPS  C212 2055   2.522   1.795   8.182  0.6313 -0.6818 -0.1098
   16SAPS  H12R 2056   2.499   1.688   8.179 -2.3863 -0.1376  0.3125
   16SAPS  C213 2057   2.493   1.858   8.322  0.3192 -1.0815  0.4479
   16SAPS  H13R 2058   2.550   1.952   8.338 -1.3109 -0.3887  2.7675
   16SAPS  H13S 2059   2.533   1.800   8.408  0.3291  0.2849  1.3914
   16SAPS  C214 2060   2.346   1.899   8.348  0.3814  0.7702 -0.3243
   16SAPS  H14R 2061   2.265   1.858   8.286 -1.6303 -1.2441  3.2649
   16SAPS  C215 2062   2.309   1.983   8.446 -0.3071 -0.0262 -0.5330
   16SAPS  H15R 2063   2.202   1.987   8.470 -0.4093  0.4983 -1.0588
   16SAPS  C216 2064   2.393   2.052   8.546  0.1983 -0.6303 -0.7810
   16SAPS  H16R 2065   2.368   2.161   8.540  0.8572 -0.5354 -2.0764
   16SAPS  H16S 2066   2.502   2.037   8.528  0.7590  0.0092  1.6649
   16SAPS  C217 2067   2.342   1.998   8.684  0.3389  0.6374 -0.0097
   16SAPS  H17R 2068   2.374   1.892   8.682  1.7798  1.0409  0.4364
   16SAPS  H17S 2069   2.232   1.996   8.699  0.5316 -0.0947  1.4688
   16SAPS  C218 2070   2.409   2.063   8.806 -0.2975  0.0526 -0.1563
   16SAPS  H18R 2071   2.372   2.018   8.901  0.3455 -2.8797 -1.1667
   16SAPS  H18S 2072   2.381   2.170   8.799 -0.9304 -0.1959 -1.8465
   16SAPS  C219 2073   2.562   2.064   8.797  0.0069  0.5360  0.0348
   16SAPS  H19R 2074   2.597   2.113   8.704  0.0606  0.5877  0.0816
   16SAPS  H19S 2075   2.602   1.960   8.801  0.2560  0.4715 -2.5365
   16SAPS  C220 2076   2.617   2.140   8.913 -0.1936  0.1484  0.3605
   16SAPS  H20R 2077   2.720   2.165   8.880 -0.7875  1.0824 -0.8829
   16SAPS  H20S 2078   2.611   2.099   9.016 -0.9414 -0.3506  0.1223
   16SAPS  H20T 2079   2.563   2.236   8.926  0.5041  0.5302  0.5007
   16SAPS   C33 2080   3.296   2.583   7.201  0.4114  0.0648  0.2878
   16SAPS   H3X 2081   3.335   2.681   7.165  1.8260 -0.7115 -0.3709
   16SAPS   H3Y 2082   3.328   2.503   7.131  0.7483  0.6840 -0.2831
   16SAPS   C34 2083   3.348   2.564   7.340 -0.9228  0.9644 -0.4446
   16SAPS   H4X 2084   3.438   2.499   7.337 -0.4409  1.5304  0.8300
   16SAPS   H4Y 2085   3.280   2.518   7.416  0.4312  0.3057  0.4066
   16SAPS   C35 2086   3.399   2.698   7.405 -0.1687 -0.7045 -0.0109
   16SAPS   H5X 2087   3.308   2.762   7.409  1.4713  1.6972  2.7152
   16SAPS   H5Y 2088   3.472   2.744   7.334  0.3469  0.5140  1.2611
   16SAPS   C36 2089   3.471   2.699   7.541 -0.6380 -0.1385  0.7318
   16SAPS   H6X 2090   3.458   2.803   7.578 -0.9793 -0.7494  2.3989
   16SAPS   H6Y 2091   3.574   2.662   7.524 -1.1006 -1.0264 -0.2918
   16SAPS   C37 2092   3.395   2.621   7.647 -0.3861 -0.4476 -0.0039
   16SAPS   H7X 2093   3.364   2.524   7.602 -1.4538  0.8303 -2.2103
   16SAPS   H7Y 2094   3.296   2.666   7.666  0.4606  0.6100  2.2758
   16SAPS   C38 2095   3.480   2.597   7.773 -0.0673 -0.2322 -0.5560
   16SAPS   H8X 2096   3.516   2.698   7.804 -1.0344 -0.1558  0.3669
   16SAPS   H8Y 2097   3.567   2.536   7.740 -0.0398 -0.6652  0.2834
   16SAPS   C39 2098   3.412   2.534   7.896  0.3081 -0.2020  0.4868
   16SAPS   H9X 2099   3.392   2.426   7.877 -1.6964 -0.0574  1.5556
   16SAPS   H9Y 2100   3.318   2.586   7.923 -0.6703 -1.1865 -0.9148
   16SAPS  C310 2101   3.493   2.547   8.020  0.4789 -0.7085  0.7884
   16SAPS  H10X 2102   3.486   2.646   8.070  0.9506  0.3015 -1.0516
   16SAPS  H10Y 2103   3.599   2.519   7.999  0.3950 -1.2708  1.0765
   16SAPS  C311 2104   3.446   2.442   8.121 -0.2766  0.2516  0.2045
   16SAPS  H11X 2105   3.452   2.339   8.079  0.2396 -1.0577  3.2076
   16SAPS  H11Y 2106   3.341   2.448   8.156 -0.3206 -2.1432  0.7103
   16SAPS  C312 2107   3.535   2.459   8.249 -0.2689 -0.6544  0.2210
   16SAPS  H12X 2108   3.517   2.562   8.286 -2.9572 -0.9808  0.0087
   16SAPS  H12Y 2109   3.640   2.438   8.218  0.3249  0.9277  1.0526
   16SAPS  C313 2110   3.516   2.354   8.359  0.0913 -0.6157 -0.4356
   16SAPS  H13X 2111   3.551   2.256   8.320 -2.0075 -1.1234 -1.1862
   16SAPS  H13Y 2112   3.409   2.341   8.388  0.4695 -1.4934  0.5981
   16SAPS  C314 2113   3.604   2.367   8.484 -0.5527  0.0611 -0.3573
   16SAPS  H14X 2114   3.530   2.410   8.556 -2.3909 -2.3285 -0.7044
   16SAPS  H14Y 2115   3.691   2.430   8.456 -0.1049 -1.0541 -1.5549
   16SAPS  C315 2116   3.652   2.232   8.537 -0.1710  0.1575 -0.2656
   16SAPS  H15X 2117   3.740   2.194   8.481  2.2152  1.8591  2.0627
   16SAPS  H15Y 2118   3.565   2.163   8.528  1.3199 -1.8412 -0.1566
   16SAPS  C316 2119   3.691   2.247   8.685  0.3574 -0.1242 -0.0623
   16SAPS  H16X 2120   3.612   2.296   8.746  0.9285 -0.2464  0.7981
   16SAPS  H16Y 2121   3.774   2.319   8.704  1.3445 -1.0649 -0.6638
   16SAPS  C317 2122   3.718   2.122   8.759  0.4315 -0.0289  0.2415
   16SAPS  H17X 2123   3.647   2.046   8.721 -0.4113  1.5330 -1.4915
   16SAPS  H17Y 2124   3.697   2.136   8.867  0.0689  0.2955  0.1318
   16SAPS  C318 2125   3.865   2.066   8.744  0.6814 -0.3831 -0.1722
   16SAPS  H18X 2126   3.883   2.036   8.638 -1.0311 -2.2389  0.0065
   16SAPS  H18Y 2127   3.881   1.977   8.808 -2.4303 -1.9435 -1.3498
   16SAPS  H18Z 2128   3.938   2.142   8.779  0.8251 -1.9606  3.3230
   17SAPC     N 2129   1.916   5.166  10.670  0.4386 -0.1890 -0.4579
   17SAPC   C12 2130   2.050   5.102  10.639  0.8400  0.0882  0.3216
   17SAPC  H12A 2131   2.064   5.043  10.729 -1.2903  0.8052  1.1943
   17SAPC  H12B 2132   2.127   5.177  10.639  0.6589  0.2753 -0.0370
   17SAPC   C13 2133   1.810   5.067  10.703 -0.0118  0.8896 -0.3866
   17SAPC  H13A 2134   1.829   4.985  10.770 -1.7125 -0.2397 -1.1999
   17SAPC  H13B 2135   1.729   5.119  10.753  0.4719  0.6312  0.6931
   17SAPC  H13C 2136   1.784   5.022  10.608 -0.1388  0.4107 -0.1257
   17SAPC   C14 2137   1.932   5.257  10.795  0.1701 -0.0193 -0.1295
   17SAPC  H14A 2138   1.962   5.187  10.873 -1.8391 -2.1469 -1.1440
   17SAPC  H14B 2139   2.011   5.328  10.777  1.5977 -0.9279  2.0858
   17SAPC  H14C 2140   1.846   5.315  10.822  0.8614  1.1415 -0.3769
   17SAPC   C15 2141   1.867   5.254  10.560 -0.9383 -0.1204 -0.0648
   17SAPC  H15A 2142   1.939   5.332  10.537 -0.6962  0.4826  2.4970
   17SAPC  H15B 2143   1.836   5.197  10.474 -1.6280  1.0138 -0.5927
   17SAPC  H15C 2144   1.781   5.314  10.584  0.6559  3.3752 -2.2506
   17SAPC   C11 2145   2.064   5.021  10.512  0.5309 -0.1430 -0.4296
   17SAPC  H11A 2146   2.172   4.993  10.514  0.6232  0.0762 -1.8981
   17SAPC  H11B 2147   2.056   5.091  10.427  1.8847 -0.1418 -0.5770
   17SAPC     P 2148   2.007   4.771  10.572 -0.1131  0.4146 -0.0548
   17SAPC   O13 2149   2.063   4.791  10.711 -0.0255 -0.3846  0.9898
   17SAPC   O14 2150   1.881   4.699  10.566  0.2977  0.2083  0.1132
   17SAPC   O12 2151   1.978   4.906  10.501  0.6903 -0.1152  0.4405
   17SAPC   O11 2152   2.106   4.693  10.481  0.2815  0.4776 -0.6461
   17SAPC    C1 2153   2.136   4.553  10.517  0.1576  0.0469  0.2506
   17SAPC    HA 2154   2.179   4.550  10.619  1.5731 -1.5948 -0.3613
   17SAPC    HB 2155   2.052   4.481  10.511 -1.7736  2.2294 -0.2562
   17SAPC    C2 2156   2.248   4.504  10.422 -0.3497 -0.0527 -0.0020
   17SAPC    HS 2157   2.339   4.563  10.442  1.9882 -1.7306 -4.2797
   17SAPC   O21 2158   2.211   4.511  10.284  0.7153 -0.3830 -0.5547
   17SAPC   C21 2159   2.314   4.525  10.205  0.4404  0.7146 -0.2701
   17SAPC   O22 2160   2.431   4.541  10.237 -0.5173  0.1026 -0.0205
   17SAPC   C22 2161   2.255   4.509  10.068 -0.1033 -0.0572  0.5686
   17SAPC   H2R 2162   2.183   4.424  10.072  0.1887 -0.3899 -0.7238
   17SAPC   H2S 2163   2.202   4.605  10.048  0.8130  0.5099  0.8381
   17SAPC    C3 2164   2.277   4.356  10.461  0.0961  0.3777  0.1251
   17SAPC    HX 2165   2.191   4.288  10.443 -0.9117  0.7849  2.8293
   17SAPC    HY 2166   2.286   4.346  10.572  1.9844 -1.1336 -0.1180
   17SAPC   O31 2167   2.394   4.288  10.400 -0.0990 -0.2916  0.4222
   17SAPC   C31 2168   2.518   4.328  10.441  0.0829 -0.2972 -0.5267
   17SAPC   O32 2169   2.540   4.381  10.550  0.2587 -0.0244  0.5232
   17SAPC   C32 2170   2.615   4.273  10.343 -0.3236  0.1446 -0.1099
   17SAPC   H2X 2171   2.689   4.224  10.411  0.0314  0.7518 -0.0483
   17SAPC   H2Y 2172   2.659   4.356  10.283 -1.1987  0.5354 -0.2297
   17SAPC   C23 2173   2.371   4.479   9.975 -0.1711 -0.2362  0.1022
   17SAPC   H3R 2174   2.411   4.380  10.003  0.2852  0.4747  2.1471
   17SAPC   H3S 2175   2.450   4.556   9.989 -0.2015 -0.0397 -0.7179
   17SAPC   C24 2176   2.344   4.480   9.821 -0.4275  0.0892  0.1503
   17SAPC   H4R 2177   2.447   4.474   9.781 -0.4922  2.9748 -0.6510
   17SAPC   H4S 2178   2.294   4.577   9.801 -0.0552  0.3256  0.3606
   17SAPC   C25 2179   2.258   4.369   9.766  0.1111  0.6435  0.1967
   17SAPC   H5R 2180   2.179   4.336   9.834  0.2199 -2.4389 -1.0093
   17SAPC   C26 2181   2.268   4.322   9.642 -0.1271  0.0208  0.7923
   17SAPC   H6R 2182   2.196   4.247   9.603  1.0684  0.1524 -1.9373
   17SAPC   C27 2183   2.367   4.366   9.543  0.7225 -0.1865  0.0546
   17SAPC   H7R 2184   2.372   4.285   9.467 -1.8444 -1.2209  0.8620
   17SAPC   H7S 2185   2.469   4.379   9.586  1.2675 -0.3249 -1.1698
   17SAPC   C28 2186   2.312   4.492   9.476 -0.8908 -0.0052  0.3218
   17SAPC   H8R 2187   2.312   4.583   9.538 -0.5245  0.0018  0.3138
   17SAPC   C29 2188   2.263   4.498   9.351 -0.7665 -0.6418  0.4762
   17SAPC   H9R 2189   2.224   4.599   9.326  0.2812 -0.3400  0.0219
   17SAPC  C210 2190   2.253   4.397   9.244  0.2964  0.1129 -0.1571
   17SAPC  H10R 2191   2.157   4.419   9.193 -0.2389 -0.3634  0.6187
   17SAPC  H10S 2192   2.255   4.295   9.289  0.2143  0.0919 -0.2013
   17SAPC  C211 2193   2.370   4.388   9.160  0.0363 -0.0560  0.1424
   17SAPC  H11R 2194   2.458   4.371   9.224  0.2973  0.0060 -0.1976
   17SAPC  C212 2195   2.381   4.402   9.025  0.1468  0.1766  0.2336
   17SAPC  H12R 2196   2.481   4.399   8.982 -0.8585 -1.7199 -2.1934
   17SAPC  C213 2197   2.268   4.426   8.929  0.1051 -0.0622  0.1939
   17SAPC  H13R 2198   2.168   4.416   8.977  0.2187 -0.0867  0.4274
   17SAPC  H13S 2199   2.276   4.349   8.850  1.5550  0.1494  0.1026
   17SAPC  C214 2200   2.274   4.564   8.856 -0.0981  0.2070  0.1154
   17SAPC  H14R 2201   2.304   4.649   8.918  0.4745  0.1606 -0.0919
   17SAPC  C215 2202   2.243   4.594   8.730  0.1668  0.3079 -0.2257
   17SAPC  H15R 2203   2.253   4.696   8.690 -0.5502  0.6750  0.5047
   17SAPC  C216 2204   2.206   4.501   8.621 -0.0553  0.0902  0.8667
   17SAPC  H16R 2205   2.146   4.557   8.546  1.3350 -1.6108 -1.6682
   17SAPC  H16S 2206   2.162   4.405   8.654 -0.0141 -0.2311  0.0041
   17SAPC  C217 2207   2.341   4.462   8.548  0.1267 -0.3287 -0.0580
   17SAPC  H17R 2208   2.416   4.438   8.626  0.3391  0.5696  0.0235
   17SAPC  H17S 2209   2.371   4.555   8.495 -0.9838  0.8669  1.3260
   17SAPC  C218 2210   2.321   4.347   8.447 -0.3168 -0.1990  0.1775
   17SAPC  H18R 2211   2.224   4.366   8.395  0.3297  0.7397 -0.7222
   17SAPC  H18S 2212   2.313   4.252   8.503  0.4135 -0.2031  0.2832
   17SAPC  C219 2213   2.438   4.330   8.341  0.0049  0.0766  0.2981
   17SAPC  H19R 2214   2.530   4.312   8.401  0.5773  0.9422 -0.3015
   17SAPC  H19S 2215   2.447   4.423   8.281  1.5055 -0.4197 -0.2802
   17SAPC  C220 2216   2.412   4.209   8.250 -0.1721  0.3077 -0.1765
   17SAPC  H20R 2217   2.362   4.249   8.159 -1.6377  0.7333  0.7808
   17SAPC  H20S 2218   2.331   4.138   8.280 -1.9589  0.8626 -3.2332
   17SAPC  H20T 2219   2.499   4.160   8.201  0.5437  1.1665  0.2079
   17SAPC   C33 2220   2.567   4.173  10.237 -0.4832  0.6639 -0.0424
   17SAPC   H3X 2221   2.472   4.212  10.195 -1.6570 -0.4330  1.4720
   17SAPC   H3Y 2222   2.525   4.087  10.293 -0.9135 -0.3382 -1.8266
   17SAPC   C34 2223   2.681   4.120  10.146  0.6758 -1.1783  0.1767
   17SAPC   H4X 2224   2.697   4.012  10.164 -0.8413 -1.4770 -0.1855
   17SAPC   H4Y 2225   2.779   4.165  10.177 -1.0613  1.8971  1.6949
   17SAPC   C35 2226   2.656   4.150   9.995 -0.9470 -0.1353  0.2685
   17SAPC   H5X 2227   2.666   4.260   9.978  0.4873 -0.1260  1.0004
   17SAPC   H5Y 2228   2.550   4.122   9.978 -1.0661  0.7965 -0.6711
   17SAPC   C36 2229   2.745   4.070   9.908 -0.0854  0.3127  0.4985
   17SAPC   H6X 2230   2.743   3.960   9.928 -0.3466 -0.1366 -1.7869
   17SAPC   H6Y 2231   2.848   4.104   9.931 -1.1626  3.3385  1.2780
   17SAPC   C37 2232   2.718   4.086   9.755  0.1713  0.4633 -0.3070
   17SAPC   H7X 2233   2.778   4.014   9.694  0.6777  1.7276 -1.3366
   17SAPC   H7Y 2234   2.737   4.189   9.719 -2.7579  0.6087 -1.7695
   17SAPC   C38 2235   2.565   4.063   9.714 -0.2154 -0.2070  0.3019
   17SAPC   H8X 2236   2.503   4.152   9.736  0.4870  0.1178  0.9749
   17SAPC   H8Y 2237   2.521   3.980   9.773 -2.7999  1.3967  0.7913
   17SAPC   C39 2238   2.560   4.031   9.566  0.7337  0.2278 -0.3521
   17SAPC   H9X 2239   2.623   3.945   9.536 -1.5674 -1.5262 -0.3887
   17SAPC   H9Y 2240   2.598   4.115   9.503 -0.4897  1.2061  0.1624
   17SAPC  C310 2241   2.429   3.979   9.514 -0.1416  0.2796  0.2682
   17SAPC  H10X 2242   2.349   4.056   9.523 -1.3882 -0.7074 -1.5860
   17SAPC  H10Y 2243   2.394   3.886   9.564  1.0775 -0.8423 -0.8601
   17SAPC  C311 2244   2.432   3.932   9.360  0.5428 -0.3600 -0.2953
   17SAPC  H11X 2245   2.330   3.894   9.336  0.5427  0.6039 -2.0269
   17SAPC  H11Y 2246   2.499   3.843   9.360 -0.7628 -1.3934  0.3292
   17SAPC  C312 2247   2.468   4.042   9.252 -0.5810  0.0437 -0.5484
   17SAPC  H12X 2248   2.533   4.115   9.303 -1.5406  0.8189 -0.4024
   17SAPC  H12Y 2249   2.378   4.095   9.215 -0.7429  1.4286  1.6576
   17SAPC  C313 2250   2.564   3.986   9.154 -0.4224  0.2521 -0.9612
   17SAPC  H13X 2251   2.582   4.068   9.080 -0.4445 -0.0948 -1.3576
   17SAPC  H13Y 2252   2.520   3.897   9.105 -0.0364 -1.0476  0.9482
   17SAPC  C314 2253   2.699   3.955   9.218  0.6510 -0.9564  0.2095
   17SAPC  H14X 2254   2.693   3.858   9.272  0.7022 -0.9284  0.2653
   17SAPC  H14Y 2255   2.726   4.027   9.298  0.1215  0.3050 -0.7186
   17SAPC  C315 2256   2.810   3.945   9.120  0.1394 -0.3348  0.1092
   17SAPC  H15X 2257   2.804   4.045   9.072  1.6430 -0.9942 -1.5591
   17SAPC  H15Y 2258   2.780   3.867   9.047 -1.8473 -0.6775  1.2291
   17SAPC  C316 2259   2.943   3.927   9.184 -0.7343  0.7282 -0.0270
   17SAPC  H16X 2260   2.974   3.820   9.179 -2.8466 -0.1596  2.9280
   17SAPC  H16Y 2261   2.929   3.945   9.293  2.4549  0.1961  0.5667
   17SAPC  C317 2262   3.050   4.020   9.131 -0.5989  0.3700 -0.1598
   17SAPC  H17X 2263   3.146   3.985   9.175  0.8863  0.1127 -3.3828
   17SAPC  H17Y 2264   3.034   4.125   9.165  1.3194 -0.0329  2.2823
   17SAPC  C318 2265   3.071   4.021   8.975  0.2476  0.0419 -0.5469
   17SAPC  H18X 2266   3.125   3.934   8.931 -1.1232 -0.9888 -0.2518
   17SAPC  H18Y 2267   2.972   4.006   8.928  0.0996 -5.1989  0.8049
   17SAPC  H18Z 2268   3.115   4.113   8.932 -0.6143  0.5971 -0.2688
   18SAPC     N 2269   1.544   5.892  10.696 -0.0120  0.7232  0.8697
   18SAPC   C12 2270   1.421   5.814  10.669 -0.8047  0.0292  0.0251
   18SAPC  H12A 2271   1.444   5.708  10.674  1.5988  0.5271  1.2110
   18SAPC  H12B 2272   1.403   5.827  10.564  2.7463  2.5052 -0.4558
   18SAPC   C13 2273   1.644   5.847  10.586  0.4598  0.3660  0.6300
   18SAPC  H13A 2274   1.722   5.920  10.576 -0.7855  1.4930 -2.3673
   18SAPC  H13B 2275   1.677   5.747  10.608 -2.1962 -0.4633  1.2291
   18SAPC  H13C 2276   1.607   5.856  10.484  2.9977  2.2075 -0.2327
   18SAPC   C14 2277   1.523   6.040  10.678  1.0935  0.2062  0.1562
   18SAPC  H14A 2278   1.505   6.074  10.577  1.9313 -1.4077 -0.5912
   18SAPC  H14B 2279   1.433   6.064  10.733 -1.0023 -1.1111 -2.4830
   18SAPC  H14C 2280   1.613   6.088  10.714  0.4802  0.4621  1.3693
   18SAPC   C15 2281   1.612   5.875  10.829  0.1900  0.4961 -0.0512
   18SAPC  H15A 2282   1.695   5.942  10.848  1.4961 -1.2373  0.5920
   18SAPC  H15B 2283   1.549   5.905  10.911  0.9417 -2.2421  1.6511
   18SAPC  H15C 2284   1.629   5.771  10.852 -5.2183 -0.9866 -1.4472
   18SAPC   C11 2285   1.300   5.843  10.756  0.6339 -0.2062  0.2959
   18SAPC  H11A 2286   1.317   5.820  10.863  0.1517  2.2173  0.9693
   18SAPC  H11B 2287   1.220   5.773  10.724  0.4751  0.9126 -2.0172
   18SAPC     P 2288   1.154   6.016  10.612 -0.4206 -0.2473  0.6385
   18SAPC   O13 2289   1.051   5.914  10.593 -0.5874 -0.4787  0.5089
   18SAPC   O14 2290   1.108   6.158  10.633 -0.1740 -0.4791  0.1826
   18SAPC   O12 2291   1.247   5.975  10.739 -0.1468  0.0746  0.4839
   18SAPC   O11 2292   1.262   6.002  10.491 -0.3359  0.3007 -0.1431
   18SAPC    C1 2293   1.245   6.109  10.393  0.0881  0.0846 -0.3667
   18SAPC    HA 2294   1.142   6.103  10.351 -0.6243 -1.2841  1.4195
   18SAPC    HB 2295   1.272   6.208  10.433  0.8535  0.0701 -0.8341
   18SAPC    C2 2296   1.354   6.099  10.282  0.3688  0.4409 -0.6168
   18SAPC    HS 2297   1.349   6.192  10.222 -1.2515  0.8782  0.1221
   18SAPC   O21 2298   1.329   5.982  10.197 -0.2880  0.5269 -0.7927
   18SAPC   C21 2299   1.230   6.006  10.108 -0.3452 -0.2683 -0.3114
   18SAPC   O22 2300   1.155   6.106  10.104 -0.2598  0.3849 -0.3193
   18SAPC   C22 2301   1.224   5.889  10.009 -0.7663  0.6624  0.0354
   18SAPC   H2R 2302   1.308   5.899   9.936 -1.1669 -0.1671 -0.5622
   18SAPC   H2S 2303   1.239   5.795  10.066 -0.8738 -0.8580 -2.3240
   18SAPC    C3 2304   1.495   6.099  10.345 -0.4486 -0.2503 -0.2296
   18SAPC    HX 2305   1.510   6.007  10.407  0.5594 -0.3365 -0.5864
   18SAPC    HY 2306   1.501   6.200  10.391 -1.1863  1.1141 -2.9180
   18SAPC   O31 2307   1.598   6.108  10.243  0.1509 -0.2363 -0.1651
   18SAPC   C31 2308   1.682   6.010  10.241  0.0695 -0.1909  0.4213
   18SAPC   O32 2309   1.687   5.915  10.316  0.3075 -0.2990 -0.1036
   18SAPC   C32 2310   1.792   6.035  10.132  0.2652  0.5159 -0.2946
   18SAPC   H2X 2311   1.887   6.004  10.181 -0.7392  2.6524  3.4578
   18SAPC   H2Y 2312   1.799   6.142  10.105 -1.1546  0.2806 -1.7650
   18SAPC   C23 2313   1.090   5.874   9.940 -0.7152 -1.2942 -0.7322
   18SAPC   H3R 2314   1.075   5.966   9.880  1.8776 -0.1612  0.2202
   18SAPC   H3S 2315   1.026   5.866  10.031 -0.2179  0.1161 -0.2350
   18SAPC   C24 2316   1.076   5.748   9.849  0.5795 -0.3266 -0.0435
   18SAPC   H4R 2317   0.966   5.745   9.833  0.2559  3.6193  0.4088
   18SAPC   H4S 2318   1.102   5.646   9.883  0.6826 -1.2323 -2.6576
   18SAPC   C25 2319   1.148   5.772   9.721 -0.3869  0.1350  0.1959
   18SAPC   H5R 2320   1.257   5.759   9.732 -0.1990  0.9351 -0.5920
   18SAPC   C26 2321   1.104   5.804   9.601  0.0869 -0.3886  0.1711
   18SAPC   H6R 2322   1.178   5.786   9.521  1.3510  1.7942  0.7351
   18SAPC   C27 2323   0.958   5.832   9.554 -0.1952 -0.7065 -0.4580
   18SAPC   H7R 2324   0.943   5.941   9.537 -0.8076 -0.4163  1.7087
   18SAPC   H7S 2325   0.886   5.811   9.636  0.6696 -1.3289  0.1485
   18SAPC   C28 2326   0.924   5.766   9.425  0.4135  0.2403 -0.3060
   18SAPC   H8R 2327   0.990   5.681   9.402  1.8625  1.0207  0.7541
   18SAPC   C29 2328   0.839   5.811   9.329  0.4222 -0.1532 -0.0248
   18SAPC   H9R 2329   0.846   5.759   9.232  0.1446  1.0857 -0.7247
   18SAPC  C210 2330   0.757   5.936   9.341  0.2444  0.1329  0.0541
   18SAPC  H10R 2331   0.804   6.033   9.315  0.2332 -0.0754 -0.8060
   18SAPC  H10S 2332   0.737   5.954   9.448  0.7618  0.9606  0.0181
   18SAPC  C211 2333   0.633   5.928   9.254 -0.7133 -0.0045 -0.4688
   18SAPC  H11R 2334   0.543   5.892   9.306 -0.4136 -0.7405 -0.4460
   18SAPC  C212 2335   0.620   5.971   9.127  0.2678  0.0709 -1.1602
   18SAPC  H12R 2336   0.521   5.963   9.078 -0.2815 -0.0560 -0.0539
   18SAPC  C213 2337   0.726   6.035   9.047  0.0455  0.6415  0.4135
   18SAPC  H13R 2338   0.799   5.952   9.035  2.0155  1.9318  2.5767
   18SAPC  H13S 2339   0.795   6.109   9.094  2.2628 -0.3790 -1.0799
   18SAPC  C214 2340   0.664   6.103   8.925 -0.6625 -0.0104  0.3025
   18SAPC  H14R 2341   0.680   6.212   8.933 -4.0320  0.6539 -0.7024
   18SAPC  C215 2342   0.625   6.048   8.804 -0.6565  0.4290  0.1458
   18SAPC  H15R 2343   0.591   6.115   8.724 -1.5369 -0.3311 -0.1374
   18SAPC  C216 2344   0.623   5.900   8.767  0.1203 -0.0172 -0.0392
   18SAPC  H16R 2345   0.521   5.857   8.766  0.8243 -1.7571 -0.8045
   18SAPC  H16S 2346   0.682   5.839   8.840 -0.0458  1.1944  1.1592
   18SAPC  C217 2347   0.688   5.894   8.628  0.6194 -0.4002 -0.2964
   18SAPC  H17R 2348   0.793   5.929   8.633 -0.0442  1.6906 -0.2064
   18SAPC  H17S 2349   0.649   5.952   8.542  0.0170  0.1969  0.3689
   18SAPC  C218 2350   0.701   5.745   8.574  0.1208 -0.0647 -0.3655
   18SAPC  H18R 2351   0.742   5.678   8.652 -1.4772 -2.9767 -1.8586
   18SAPC  H18S 2352   0.771   5.755   8.489  0.6139  2.7920  0.2894
   18SAPC  C219 2353   0.562   5.690   8.527 -0.0449  0.7593 -0.8548
   18SAPC  H19R 2354   0.525   5.765   8.454 -0.0483  1.1362 -0.4675
   18SAPC  H19S 2355   0.499   5.686   8.618  3.5620 -2.8758  1.8256
   18SAPC  C220 2356   0.577   5.554   8.470 -0.3336  0.1728  0.4181
   18SAPC  H20R 2357   0.640   5.487   8.532  0.7582  0.1006 -0.7239
   18SAPC  H20S 2358   0.631   5.565   8.374  1.1513  0.2760  1.2391
   18SAPC  H20T 2359   0.474   5.513   8.459 -0.9868  2.0806 -1.2217
   18SAPC   C33 2360   1.776   5.940  10.010  0.4972  0.1958 -0.0066
   18SAPC   H3X 2361   1.719   5.852  10.046 -1.4556  1.3562 -0.1721
   18SAPC   H3Y 2362   1.877   5.904   9.981  0.5514 -0.0136  0.4450
   18SAPC   C34 2363   1.709   6.007   9.892  0.5737 -1.3955  0.2188
   18SAPC   H4X 2364   1.767   6.096   9.860 -0.2838 -1.3573 -1.3463
   18SAPC   H4Y 2365   1.608   6.046   9.915  0.1481 -0.7506 -2.4089
   18SAPC   C35 2366   1.715   5.929   9.758 -0.1560 -0.4300  0.2918
   18SAPC   H5X 2367   1.673   5.827   9.767 -2.8194  0.6064  0.3198
   18SAPC   H5Y 2368   1.821   5.907   9.731 -0.1407  0.1862 -0.1830
   18SAPC   C36 2369   1.637   6.005   9.642  0.1018  0.0391  0.5274
   18SAPC   H6X 2370   1.677   6.109   9.650 -1.2400  0.5073  1.6728
   18SAPC   H6Y 2371   1.535   6.007   9.685  0.6177  0.1782  1.8041
   18SAPC   C37 2372   1.658   5.958   9.495  0.8386 -0.0280  0.5150
   18SAPC   H7X 2373   1.618   5.855   9.483  1.2564  0.0266 -1.7535
   18SAPC   H7Y 2374   1.767   5.943   9.484  0.7296 -1.3135  1.0610
   18SAPC   C38 2375   1.597   6.060   9.395 -0.0083  0.3097  0.5477
   18SAPC   H8X 2376   1.655   6.153   9.415 -0.2456  0.3374  1.1252
   18SAPC   H8Y 2377   1.488   6.077   9.407 -0.1660  0.6227 -1.0956
   18SAPC   C39 2378   1.625   6.001   9.256  0.2094  0.3641  0.5020
   18SAPC   H9X 2379   1.609   5.891   9.258  0.2381  0.2917 -1.2962
   18SAPC   H9Y 2380   1.733   6.019   9.235  0.1377  0.5668  0.3066
   18SAPC  C310 2381   1.538   6.059   9.142 -0.3986  0.2932  0.3081
   18SAPC  H10X 2382   1.538   6.170   9.150 -1.0978  0.2007  1.7669
   18SAPC  H10Y 2383   1.434   6.020   9.136  0.1176 -0.9657 -3.6168
   18SAPC  C311 2384   1.582   6.019   8.997 -0.6167 -0.0940  0.1643
   18SAPC  H11X 2385   1.583   5.908   8.992  1.7413 -0.1186  0.3892
   18SAPC  H11Y 2386   1.681   6.061   8.971  0.7799 -3.8369 -1.1435
   18SAPC  C312 2387   1.481   6.074   8.898 -0.2562 -0.4343  0.0422
   18SAPC  H12X 2388   1.466   6.180   8.929 -0.7547 -0.8524  1.2955
   18SAPC  H12Y 2389   1.381   6.028   8.914  0.1023 -2.5276 -2.8586
   18SAPC  C313 2390   1.522   6.057   8.752  0.5499 -0.1590  0.3160
   18SAPC  H13X 2391   1.532   5.952   8.716  2.2850 -0.4711  1.5669
   18SAPC  H13Y 2392   1.616   6.113   8.733 -0.8184  2.1418  0.0549
   18SAPC  C314 2393   1.410   6.123   8.667  0.1535 -0.2453 -0.2972
   18SAPC  H14X 2394   1.398   6.220   8.719 -0.0844 -2.0717  3.3304
   18SAPC  H14Y 2395   1.319   6.062   8.686 -0.1853  0.8056  1.6548
   18SAPC  C315 2396   1.443   6.143   8.519  0.5806 -0.5393  0.2393
   18SAPC  H15X 2397   1.521   6.222   8.516  0.3337 -0.3009 -3.2899
   18SAPC  H15Y 2398   1.353   6.169   8.460  0.6828 -0.7809 -0.0225
   18SAPC  C316 2399   1.506   6.018   8.446  0.1091  0.4638 -0.6783
   18SAPC  H16X 2400   1.597   5.988   8.503 -1.2100 -3.0159 -0.1855
   18SAPC  H16Y 2401   1.530   6.048   8.342 -1.4172 -2.2805 -1.9252
   18SAPC  C317 2402   1.427   5.883   8.447 -0.0859 -0.1893 -0.9156
   18SAPC  H17X 2403   1.367   5.900   8.539 -1.2601  0.4142 -1.7710
   18SAPC  H17Y 2404   1.497   5.797   8.454 -0.3893 -0.4427 -0.9772
   18SAPC  C318 2405   1.331   5.869   8.323 -0.1339  0.4477  0.0254
   18SAPC  H18X 2406   1.287   5.967   8.293 -0.8297  0.9306  2.4332
   18SAPC  H18Y 2407   1.248   5.798   8.340  0.8915 -1.3677 -2.0742
   18SAPC  H18Z 2408   1.396   5.823   8.245 -0.8168  1.6794 -1.3398
   19SAPC     N 2409   5.950   5.837  10.766  0.1614  0.2454  0.0496
   19SAPC   C12 2410   5.974   5.989  10.754 -0.6702  0.4447  0.2622
   19SAPC  H12A 2411   6.069   6.012  10.801 -1.6022  0.4093  2.2404
   19SAPC  H12B 2412   5.901   6.041  10.813 -0.1789 -2.0413  3.3451
   19SAPC   C13 2413   5.801   5.814  10.742 -0.2152  0.4106  0.4614
   19SAPC  H13A 2414   5.767   5.872  10.658 -1.1817 -2.0502 -0.9467
   19SAPC  H13B 2415   5.779   5.715  10.706  0.5953  1.4830 -3.4229
   19SAPC  H13C 2416   5.743   5.842  10.830 -0.1077 -0.0389  0.6789
   19SAPC   C14 2417   6.029   5.759  10.669 -0.5800  0.2786 -0.1951
   19SAPC  H14A 2418   6.135   5.779  10.663  0.1581 -3.2951 -2.3403
   19SAPC  H14B 2419   6.021   5.652  10.682  0.2204  0.4081  1.6403
   19SAPC  H14C 2420   6.001   5.786  10.568  1.2209  0.1450 -0.7690
   19SAPC   C15 2421   5.979   5.806  10.910  0.5525 -0.4570  0.8290
   19SAPC  H15A 2422   5.944   5.890  10.968 -0.6406 -1.4938  1.6683
   19SAPC  H15B 2423   5.932   5.715  10.946 -0.8031  0.3172  1.0854
   19SAPC  H15C 2424   6.086   5.795  10.922  0.7251  1.2341  1.1195
   19SAPC   C11 2425   5.983   6.047  10.607 -0.8227 -0.4668  0.2942
   19SAPC  H11A 2426   6.072   6.019  10.545 -0.5579  0.1017  0.4112
   19SAPC  H11B 2427   6.013   6.153  10.621  0.7611 -0.5916 -1.5942
   19SAPC     P 2428   5.765   6.157  10.495 -0.1157 -0.3315 -0.0025
   19SAPC   O13 2429   5.675   6.102  10.393  0.4029  0.1566  0.4661
   19SAPC   O14 2430   5.706   6.209  10.618  0.0223 -0.3687  0.2520
   19SAPC   O12 2431   5.867   6.035  10.523  0.7409 -1.0340 -0.1717
   19SAPC   O11 2432   5.854   6.266  10.421 -0.1362 -0.1744 -0.4817
   19SAPC    C1 2433   5.933   6.226  10.310 -0.0343  0.5829  0.2554
   19SAPC    HA 2434   5.933   6.118  10.283 -1.4108  1.2549 -2.8347
   19SAPC    HB 2435   5.896   6.268  10.214  0.7326 -2.6203 -1.5911
   19SAPC    C2 2436   6.086   6.271  10.334  0.4794  0.3786  0.9426
   19SAPC    HS 2437   6.110   6.259  10.442  2.8018  1.4752  0.5982
   19SAPC   O21 2438   6.097   6.406  10.288 -0.1226  0.3822  0.3927
   19SAPC   C21 2439   6.201   6.469  10.336  0.1106  0.1629 -0.2375
   19SAPC   O22 2440   6.279   6.428  10.418  0.2624  0.2309 -0.2697
   19SAPC   C22 2441   6.211   6.614  10.274 -0.6592  0.2290 -0.4466
   19SAPC   H2R 2442   6.105   6.644  10.264 -0.5208  1.6717  1.7169
   19SAPC   H2S 2443   6.265   6.677  10.348  1.3613 -1.8635 -0.0111
   19SAPC    C3 2444   6.189   6.178  10.256  1.0663  0.0978  0.0762
   19SAPC    HX 2445   6.166   6.082  10.308 -1.4851  0.8350  0.4353
   19SAPC    HY 2446   6.294   6.209  10.272  1.2962 -0.3034 -0.6347
   19SAPC   O31 2447   6.164   6.176  10.110  0.5425  0.1054  0.0129
   19SAPC   C31 2448   6.191   6.067  10.041  0.0911 -0.0940 -0.5627
   19SAPC   O32 2449   6.214   5.957  10.088  0.0081 -0.0543  0.2510
   19SAPC   C32 2450   6.210   6.105   9.896  0.2165 -0.3114  0.1490
   19SAPC   H2X 2451   6.306   6.160   9.886 -0.7836  1.0926 -3.0881
   19SAPC   H2Y 2452   6.133   6.182   9.872  0.0172 -0.5308  0.0818
   19SAPC   C23 2453   6.306   6.608  10.152 -0.1656  0.4258  0.8348
   19SAPC   H3R 2454   6.415   6.616  10.172 -0.3306  1.1705  1.4928
   19SAPC   H3S 2455   6.282   6.694  10.087  0.3817  0.7220  1.0181
   19SAPC   C24 2456   6.268   6.505  10.039  0.4552 -0.9839  0.0228
   19SAPC   H4R 2457   6.288   6.399  10.068 -0.4786 -1.7058 -1.7899
   19SAPC   H4S 2458   6.335   6.526   9.953 -1.3100 -0.2196 -1.2287
   19SAPC   C25 2459   6.122   6.504   9.996  0.2575 -0.1488  0.4289
   19SAPC   H5R 2460   6.044   6.493  10.072  0.7829  1.7012  1.3007
   19SAPC   C26 2461   6.075   6.507   9.867  0.2917  0.2650  0.2448
   19SAPC   H6R 2462   5.967   6.510   9.849  0.0474 -2.1668  0.9710
   19SAPC   C27 2463   6.158   6.526   9.741  0.0975  0.1582 -0.9559
   19SAPC   H7R 2464   6.267   6.528   9.764 -0.0489 -2.7381  0.3595
   19SAPC   H7S 2465   6.137   6.629   9.703  2.8915  0.8779 -0.7864
   19SAPC   C28 2466   6.140   6.415   9.637  0.1325 -0.1849 -0.3734
   19SAPC   H8R 2467   6.119   6.311   9.667 -0.3701 -0.4187 -1.4734
   19SAPC   C29 2468   6.125   6.431   9.508  0.7405 -0.2312 -0.6949
   19SAPC   H9R 2469   6.089   6.349   9.445 -0.9325 -0.4017  0.4093
   19SAPC  C210 2470   6.135   6.564   9.440 -0.3347 -0.0840 -0.2833
   19SAPC  H10R 2471   6.119   6.653   9.506  1.1564  0.7053 -0.9229
   19SAPC  H10S 2472   6.061   6.567   9.358 -1.9622  0.1553  1.1377
   19SAPC  C211 2473   6.267   6.593   9.366  0.1660 -0.1082  0.5881
   19SAPC  H11R 2474   6.357   6.575   9.426 -1.4988 -0.6827  3.0782
   19SAPC  C212 2475   6.291   6.638   9.245 -0.5460  0.8316 -0.4497
   19SAPC  H12R 2476   6.395   6.655   9.214 -0.3089  0.7914  0.3110
   19SAPC  C213 2477   6.184   6.664   9.136  0.2945 -0.5124  0.4323
   19SAPC  H13R 2478   6.127   6.756   9.159  0.6069 -0.2452  0.1629
   19SAPC  H13S 2479   6.107   6.584   9.132 -0.2352  0.0397 -0.5256
   19SAPC  C214 2480   6.241   6.681   8.991 -0.8444  0.5943 -0.0656
   19SAPC  H14R 2481   6.297   6.774   8.974 -2.0497  1.3346 -0.0662
   19SAPC  C215 2482   6.248   6.582   8.904  1.1826 -0.2567 -0.2354
   19SAPC  H15R 2483   6.305   6.598   8.812  0.7497  1.1647 -0.2713
   19SAPC  C216 2484   6.185   6.446   8.913 -1.1911 -0.2908 -0.1256
   19SAPC  H16R 2485   6.198   6.419   9.020  0.2330 -1.5550 -0.5766
   19SAPC  H16S 2486   6.244   6.378   8.849  1.1006  0.9309  0.5457
   19SAPC  C217 2487   6.045   6.439   8.854 -0.3079  0.7460  0.2322
   19SAPC  H17R 2488   5.997   6.540   8.857 -0.0559  0.8381  1.2649
   19SAPC  H17S 2489   5.982   6.381   8.924  0.6218 -2.2079 -1.2320
   19SAPC  C218 2490   6.036   6.378   8.712 -0.2955  0.0448 -0.6507
   19SAPC  H18R 2491   6.083   6.278   8.699 -0.6034  0.2427 -3.9805
   19SAPC  H18S 2492   6.092   6.432   8.632 -1.5487 -0.1092 -1.6556
   19SAPC  C219 2493   5.892   6.378   8.654  0.4382 -0.0940  0.4897
   19SAPC  H19R 2494   5.891   6.335   8.552  2.7960 -1.4250  0.9579
   19SAPC  H19S 2495   5.858   6.483   8.653 -1.8890 -0.6893  3.2014
   19SAPC  C220 2496   5.793   6.296   8.734  0.3017  0.7762 -0.5411
   19SAPC  H20R 2497   5.784   6.320   8.843  0.0330 -3.4640  0.5234
   19SAPC  H20S 2498   5.819   6.189   8.720 -0.5229  0.3434  0.9630
   19SAPC  H20T 2499   5.693   6.316   8.689  0.4610 -0.3023 -1.4148
   19SAPC   C33 2500   6.204   5.990   9.794 -0.6067  0.5469  0.3173
   19SAPC   H3X 2501   6.209   6.036   9.693 -1.3447 -2.8108 -1.3894
   19SAPC   H3Y 2502   6.115   5.924   9.791 -0.8776  0.8867  0.7398
   19SAPC   C34 2503   6.329   5.906   9.817  0.3885  0.5955  0.4231
   19SAPC   H4X 2504   6.309   5.841   9.904  0.5884  0.1208  0.1183
   19SAPC   H4Y 2505   6.421   5.968   9.827  1.9037 -1.1663 -1.5713
   19SAPC   C35 2506   6.346   5.823   9.689  0.0895 -0.4613 -1.2334
   19SAPC   H5X 2507   6.401   5.878   9.610  3.4135  1.6782  2.2447
   19SAPC   H5Y 2508   6.245   5.799   9.650 -0.3507  2.6088 -2.2234
   19SAPC   C36 2509   6.426   5.698   9.706  0.0026  0.3332 -0.5324
   19SAPC   H6X 2510   6.362   5.608   9.707 -0.9244  0.9714  0.7633
   19SAPC   H6Y 2511   6.473   5.697   9.807  1.4346  3.1412 -1.0634
   19SAPC   C37 2512   6.543   5.674   9.606  0.2582  0.4340  0.5889
   19SAPC   H7X 2513   6.593   5.576   9.622 -2.2949 -1.0307  0.2778
   19SAPC   H7Y 2514   6.614   5.758   9.617  1.3813 -0.2105 -1.2864
   19SAPC   C38 2515   6.506   5.666   9.455 -0.0107  0.1248 -0.1921
   19SAPC   H8X 2516   6.445   5.756   9.437  2.5783  1.7298 -1.4604
   19SAPC   H8Y 2517   6.451   5.573   9.426  0.4388 -0.8139  1.7635
   19SAPC   C39 2518   6.624   5.678   9.352 -0.5825 -0.2231 -0.0873
   19SAPC   H9X 2519   6.697   5.599   9.377  0.1025  0.7300  0.9961
   19SAPC   H9Y 2520   6.672   5.777   9.369  0.5432 -0.7881  0.0869
   19SAPC  C310 2521   6.566   5.668   9.204 -0.9757  0.2509 -0.0371
   19SAPC  H10X 2522   6.490   5.747   9.186 -0.4062  0.7897 -0.1152
   19SAPC  H10Y 2523   6.530   5.564   9.186 -1.6045  0.3162  0.7793
   19SAPC  C311 2524   6.686   5.707   9.106 -0.1826 -0.5802 -0.1046
   19SAPC  H11X 2525   6.774   5.642   9.127 -0.4034 -1.1105 -0.7861
   19SAPC  H11Y 2526   6.721   5.812   9.121  2.7938 -1.5173  0.3109
   19SAPC  C312 2527   6.647   5.696   8.954 -0.5693 -0.2448 -0.0054
   19SAPC  H12X 2528   6.725   5.720   8.878  0.6851 -3.4831  0.1038
   19SAPC  H12Y 2529   6.564   5.769   8.947 -1.4482 -1.3310 -1.5131
   19SAPC  C313 2530   6.584   5.559   8.919  0.7236  0.1485  1.1952
   19SAPC  H13X 2531   6.498   5.529   8.983 -0.2726 -0.1616 -0.2393
   19SAPC  H13Y 2532   6.665   5.484   8.919  2.0208  1.5017  0.8218
   19SAPC  C314 2533   6.535   5.563   8.772 -0.1145 -0.4409 -0.3032
   19SAPC  H14X 2534   6.623   5.581   8.706  1.0066  0.1938  1.3091
   19SAPC  H14Y 2535   6.469   5.651   8.759 -1.2273 -1.2891 -0.4940
   19SAPC  C315 2536   6.462   5.443   8.724  0.1176 -0.7798 -0.5190
   19SAPC  H15X 2537   6.424   5.461   8.621 -2.1888  1.8825  0.6724
   19SAPC  H15Y 2538   6.365   5.427   8.775 -0.8258 -2.1578 -2.6142
   19SAPC  C316 2539   6.541   5.311   8.725  0.3344  0.6628 -0.4651
   19SAPC  H16X 2540   6.539   5.278   8.831 -0.4175  2.2037  0.0304
   19SAPC  H16Y 2541   6.649   5.324   8.704  0.3600  0.8438 -0.2191
   19SAPC  C317 2542   6.463   5.205   8.634  0.7447  0.4942  0.2241
   19SAPC  H17X 2543   6.417   5.266   8.554 -1.2178  0.9352  1.6315
   19SAPC  H17Y 2544   6.369   5.176   8.685  0.1609  1.1167 -0.4794
   19SAPC  C318 2545   6.533   5.080   8.590  0.2451 -0.7883 -0.4180
   19SAPC  H18X 2546   6.480   5.037   8.502 -0.4704  0.7144 -0.7546
   19SAPC  H18Y 2547   6.542   5.007   8.674  1.6621  1.5673  1.6087
   19SAPC  H18Z 2548   6.635   5.103   8.554 -0.3507 -2.8842 -3.9108
   20SAPC     N 2549   0.306   3.692  10.963  0.4408 -0.3320  0.4365
   20SAPC   C12 2550   0.178   3.728  10.889  0.0000 -0.0966 -0.5593
   20SAPC  H12A 2551   0.197   3.827  10.849 -0.2969  0.0239 -0.4029
   20SAPC  H12B 2552   0.096   3.734  10.959 -0.4060  0.5253 -1.0742
   20SAPC   C13 2553   0.319   3.787  11.086 -0.1376  0.3772  0.2002
   20SAPC  H13A 2554   0.235   3.775  11.153  0.3341 -1.5977  0.4906
   20SAPC  H13B 2555   0.414   3.768  11.133  0.2820  0.4829 -0.5929
   20SAPC  H13C 2556   0.317   3.888  11.049 -2.3640  0.1969 -0.3148
   20SAPC   C14 2557   0.286   3.554  11.014 -0.9861 -0.8401 -0.0017
   20SAPC  H14A 2558   0.200   3.548  11.079 -0.8775  0.5710  0.3133
   20SAPC  H14B 2559   0.282   3.481  10.934  0.4511 -2.4966  1.3712
   20SAPC  H14C 2560   0.373   3.522  11.069  1.0833  1.1741 -1.8616
   20SAPC   C15 2561   0.431   3.703  10.875 -0.2784 -0.3380  0.1235
   20SAPC  H15A 2562   0.447   3.804  10.842  0.9877 -0.3342  0.6901
   20SAPC  H15B 2563   0.517   3.681  10.937 -1.8331 -1.3389  2.0310
   20SAPC  H15C 2564   0.421   3.640  10.788 -4.3701 -0.3421  0.4156
   20SAPC   C11 2565   0.132   3.639  10.769  0.4907 -0.1800 -0.7600
   20SAPC  H11A 2566   0.219   3.626  10.702  1.1069  0.9972 -0.2048
   20SAPC  H11B 2567   0.053   3.696  10.716 -0.0796 -2.0087 -1.9808
   20SAPC     P 2568  -0.081   3.527  10.875  0.0556 -0.2537  0.1343
   20SAPC   O13 2569  -0.133   3.400  10.933  0.3555  0.0507  0.0947
   20SAPC   O14 2570  -0.085   3.638  10.970 -0.0713 -0.0169  0.2391
   20SAPC   O12 2571   0.074   3.514  10.829  0.3729  0.1687 -0.9422
   20SAPC   O11 2572  -0.155   3.583  10.749 -0.0194  0.1077  0.3495
   20SAPC    C1 2573  -0.252   3.515  10.679 -0.4228 -0.1644  0.1104
   20SAPC    HA 2574  -0.340   3.485  10.740 -1.7056  0.5867 -1.3009
   20SAPC    HB 2575  -0.303   3.589  10.615  0.4583 -0.1409 -0.5738
   20SAPC    C2 2576  -0.207   3.381  10.605  0.4509 -0.2759 -0.5112
   20SAPC    HS 2577  -0.177   3.322  10.695  1.3427 -1.3159 -1.4470
   20SAPC   O21 2578  -0.095   3.414  10.525  0.0001 -0.5542 -0.4750
   20SAPC   C21 2579  -0.027   3.309  10.480 -0.6654 -0.6243 -0.3371
   20SAPC   O22 2580  -0.023   3.200  10.536 -0.0895  0.0338  0.5161
   20SAPC   C22 2581   0.054   3.354  10.363  0.6980  0.6143  0.0690
   20SAPC   H2R 2582   0.121   3.270  10.336 -0.5160 -0.5210  0.5137
   20SAPC   H2S 2583  -0.014   3.374  10.278  0.1026  1.6098  0.7536
   20SAPC    C3 2584  -0.324   3.305  10.530  0.0703 -0.1499  1.1338
   20SAPC    HX 2585  -0.410   3.303  10.601  1.3405 -0.2731  2.7311
   20SAPC    HY 2586  -0.286   3.201  10.517  1.7699  0.3648  1.7513
   20SAPC   O31 2587  -0.360   3.385  10.408 -0.2342  0.4689 -0.1016
   20SAPC   C31 2588  -0.334   3.349  10.293 -0.0424 -0.8351 -0.3116
   20SAPC   O32 2589  -0.262   3.255  10.263 -0.0939  0.1733  0.0881
   20SAPC   C32 2590  -0.399   3.438  10.187  0.1045  0.7080 -0.0798
   20SAPC   H2X 2591  -0.357   3.539  10.204  1.0192  0.4620 -0.7857
   20SAPC   H2Y 2592  -0.508   3.460  10.195 -0.5219 -2.2808  1.0841
   20SAPC   C23 2593   0.155   3.470  10.374  0.0346 -0.0213  0.7300
   20SAPC   H3R 2594   0.246   3.443  10.431  0.0663  0.1392  0.7555
   20SAPC   H3S 2595   0.106   3.554  10.429 -1.8497 -0.9077  0.4806
   20SAPC   C24 2596   0.208   3.522  10.237  0.9490 -0.5666 -0.5391
   20SAPC   H4R 2597   0.261   3.433  10.197  0.7386 -1.8555  1.8541
   20SAPC   H4S 2598   0.281   3.596  10.276 -0.6586 -0.0074  1.6386
   20SAPC   C25 2599   0.119   3.600  10.149  0.2032  0.2260 -0.0068
   20SAPC   H5R 2600   0.071   3.688  10.195  0.7748  0.8789 -0.6331
   20SAPC   C26 2601   0.108   3.584  10.013 -0.5626 -0.3195 -0.5171
   20SAPC   H6R 2602   0.039   3.646   9.953  1.3867  2.5550 -0.0077
   20SAPC   C27 2603   0.174   3.485   9.921 -1.0970 -0.0537 -0.6924
   20SAPC   H7R 2604   0.104   3.405   9.888 -0.5032 -0.5408 -0.7790
   20SAPC   H7S 2605   0.254   3.442   9.985 -1.3177  0.0715 -0.3307
   20SAPC   C28 2606   0.235   3.572   9.814 -0.0772 -0.5588 -0.4187
   20SAPC   H8R 2607   0.295   3.660   9.841 -2.1941  1.2037 -1.1725
   20SAPC   C29 2608   0.209   3.565   9.678  0.2273 -0.2368 -0.8473
   20SAPC   H9R 2609   0.247   3.645   9.612 -0.4529 -0.1352 -1.1179
   20SAPC  C210 2610   0.123   3.461   9.604 -0.2958  0.1275 -0.6008
   20SAPC  H10R 2611   0.083   3.399   9.687  0.6459  1.6147  1.0355
   20SAPC  H10S 2612   0.195   3.397   9.548 -0.8691 -2.0515  1.0177
   20SAPC  C211 2613   0.003   3.527   9.527 -0.2792 -0.7784 -0.0848
   20SAPC  H11R 2614  -0.036   3.615   9.580 -0.9973 -0.9055 -0.3914
   20SAPC  C212 2615  -0.042   3.479   9.413 -0.2173  1.1145 -1.5152
   20SAPC  H12R 2616  -0.119   3.546   9.371 -0.2512  2.1357  0.0749
   20SAPC  C213 2617   0.007   3.356   9.345  0.9267 -0.5275  0.1552
   20SAPC  H13R 2618   0.062   3.281   9.407  2.2977  0.8672  0.6753
   20SAPC  H13S 2619   0.088   3.384   9.275  0.3824  0.2559 -0.1711
   20SAPC  C214 2620  -0.088   3.264   9.277 -0.1889  0.1501  0.2640
   20SAPC  H14R 2621  -0.138   3.181   9.330 -0.0620  0.1579  0.3961
   20SAPC  C215 2622  -0.107   3.269   9.144  0.9644  0.9527  0.0499
   20SAPC  H15R 2623  -0.173   3.194   9.098 -0.2772  0.9475  1.7611
   20SAPC  C216 2624  -0.052   3.355   9.032 -0.2693  0.5752  0.0829
   20SAPC  H16R 2625  -0.027   3.293   8.944 -1.3187  0.3524 -0.0694
   20SAPC  H16S 2626   0.047   3.399   9.060  1.7127 -3.0924 -0.5044
   20SAPC  C217 2627  -0.145   3.456   8.972  0.2348 -0.4446 -0.0301
   20SAPC  H17R 2628  -0.249   3.417   8.972  0.7804 -2.0919  2.3592
   20SAPC  H17S 2629  -0.118   3.480   8.867  0.6745 -0.1800  0.1436
   20SAPC  C218 2630  -0.144   3.596   9.047 -0.0999 -0.1032  0.4740
   20SAPC  H18R 2631  -0.043   3.643   9.046 -0.5723  0.9598 -1.2129
   20SAPC  H18S 2632  -0.169   3.579   9.154  1.2152 -3.0982  0.4145
   20SAPC  C219 2633  -0.239   3.701   8.979 -0.1599  0.0728  0.0148
   20SAPC  H19R 2634  -0.274   3.774   9.056 -0.2169 -0.1253  0.1769
   20SAPC  H19S 2635  -0.335   3.663   8.938 -0.4884  0.7119  0.1634
   20SAPC  C220 2636  -0.161   3.768   8.870  0.1942  0.6000  0.0490
   20SAPC  H20R 2637  -0.061   3.813   8.889  0.2080  2.1364 -3.1046
   20SAPC  H20S 2638  -0.227   3.845   8.826 -1.2471  0.2489  1.4799
   20SAPC  H20T 2639  -0.144   3.702   8.782  0.8932 -0.4703  0.9504
   20SAPC   C33 2640  -0.367   3.401  10.043  0.4786  0.4875  0.2523
   20SAPC   H3X 2641  -0.258   3.393  10.023  0.1334 -0.6415 -1.4090
   20SAPC   H3Y 2642  -0.398   3.485   9.978  0.6583 -0.9750 -1.8425
   20SAPC   C34 2643  -0.444   3.283   9.978 -0.3457 -0.3617  0.0025
   20SAPC   H4X 2644  -0.552   3.309   9.974 -0.5070 -1.1075 -0.7861
   20SAPC   H4Y 2645  -0.431   3.190  10.037  0.0316 -2.1583 -2.7434
   20SAPC   C35 2646  -0.402   3.252   9.835 -0.0475 -0.2137 -0.7416
   20SAPC   H5X 2647  -0.434   3.148   9.812 -0.8559 -0.4572  1.3159
   20SAPC   H5Y 2648  -0.292   3.243   9.823 -0.3637 -2.6942 -2.5587
   20SAPC   C36 2649  -0.459   3.359   9.743 -0.3120 -0.0580  0.7221
   20SAPC   H6X 2650  -0.450   3.466   9.771 -0.7538  0.1493  0.0974
   20SAPC   H6Y 2651  -0.569   3.360   9.732 -0.3206 -1.2867  0.5428
   20SAPC   C37 2652  -0.402   3.343   9.608 -0.2840  0.7122  0.7737
   20SAPC   H7X 2653  -0.418   3.242   9.563 -1.0360  0.7444  0.9556
   20SAPC   H7Y 2654  -0.292   3.357   9.608 -0.1968  0.1893 -0.5346
   20SAPC   C38 2655  -0.466   3.449   9.512 -0.2344  0.4538 -0.3343
   20SAPC   H8X 2656  -0.453   3.552   9.552 -0.2929  0.3074  0.0668
   20SAPC   H8Y 2657  -0.575   3.427   9.508  0.3654 -2.9347 -0.8251
   20SAPC   C39 2658  -0.423   3.436   9.359 -0.2435  0.2134  0.3382
   20SAPC   H9X 2659  -0.397   3.328   9.349 -0.4320  0.2771 -1.0826
   20SAPC   H9Y 2660  -0.324   3.486   9.348  0.5038 -1.2942 -0.2359
   20SAPC  C310 2661  -0.521   3.473   9.248 -0.9837 -0.0793 -0.6286
   20SAPC  H10X 2662  -0.617   3.422   9.273  0.8965 -2.5434  2.1303
   20SAPC  H10Y 2663  -0.501   3.428   9.148 -0.8770  0.3390 -0.7997
   20SAPC  C311 2664  -0.540   3.625   9.211  0.5511 -0.1071 -0.4412
   20SAPC  H11X 2665  -0.449   3.644   9.150  1.7329 -0.8778  1.0180
   20SAPC  H11Y 2666  -0.546   3.693   9.300  0.0058  0.3326 -0.8116
   20SAPC  C312 2667  -0.659   3.647   9.123 -0.0142 -0.1738  0.2207
   20SAPC  H12X 2668  -0.662   3.757   9.111  0.0780  0.0101  1.6889
   20SAPC  H12Y 2669  -0.746   3.612   9.183  0.7528 -3.1746 -0.2507
   20SAPC  C313 2670  -0.648   3.590   8.976  0.4572 -0.0465  0.5368
   20SAPC  H13X 2671  -0.651   3.479   8.984 -2.5026 -0.1022 -0.1164
   20SAPC  H13Y 2672  -0.546   3.605   8.936  0.0838 -0.2129 -0.5128
   20SAPC  C314 2673  -0.755   3.635   8.885  0.8101  0.3037  0.4676
   20SAPC  H14X 2674  -0.848   3.606   8.938 -0.0341  0.5846 -0.8130
   20SAPC  H14Y 2675  -0.737   3.571   8.796 -0.9473 -2.9770  2.2435
   20SAPC  C315 2676  -0.759   3.788   8.847  0.3667  0.1723 -0.0620
   20SAPC  H15X 2677  -0.793   3.846   8.936 -0.0070 -0.5342  0.2566
   20SAPC  H15Y 2678  -0.835   3.798   8.767  0.7845  2.7363 -0.2329
   20SAPC  C316 2679  -0.626   3.851   8.807  0.1507 -0.0863  0.2132
   20SAPC  H16X 2680  -0.582   3.773   8.741 -2.8560 -0.3765 -1.6087
   20SAPC  H16Y 2681  -0.560   3.875   8.894 -1.9473  3.7734  0.9712
   20SAPC  C317 2682  -0.629   3.973   8.706 -0.5235  0.5544  0.4918
   20SAPC  H17X 2683  -0.626   4.071   8.759  0.2970  0.5367  0.4993
   20SAPC  H17Y 2684  -0.722   3.966   8.646  0.5114 -0.1274 -1.1109
   20SAPC  C318 2685  -0.502   3.977   8.621  0.6112  0.5975 -0.9701
   20SAPC  H18X 2686  -0.418   3.967   8.694  0.0995 -2.1307 -0.6358
   20SAPC  H18Y 2687  -0.492   4.070   8.560  0.0531  2.1914  1.2524
   20SAPC  H18Z 2688  -0.500   3.896   8.545 -0.4395 -1.4334  1.0333
   21SAPC     N 2689   6.526   2.047  11.009 -0.0207 -0.9811 -0.1342
   21SAPC   C12 2690   6.650   1.972  10.970 -0.1122  0.1153 -0.6395
   21SAPC  H12A 2691   6.695   1.944  11.064 -1.8047  0.4316  0.3113
   21SAPC  H12B 2692   6.727   2.039  10.935  0.8701  0.0450  1.2359
   21SAPC   C13 2693   6.441   1.960  11.092 -0.3509  0.0728  0.6644
   21SAPC  H13A 2694   6.352   2.015  11.118 -2.3568 -1.8074 -1.6021
   21SAPC  H13B 2695   6.406   1.873  11.038 -1.7978  1.5508 -0.9183
   21SAPC  H13C 2696   6.489   1.922  11.181  1.7704 -0.7404 -0.7426
   21SAPC   C14 2697   6.562   2.157  11.091 -0.2049  0.1688 -0.4210
   21SAPC  H14A 2698   6.633   2.140  11.171 -0.5789 -0.2096 -0.1702
   21SAPC  H14B 2699   6.616   2.232  11.034 -0.2747  0.8666  0.4032
   21SAPC  H14C 2700   6.473   2.210  11.122  0.4844  0.9478  0.3045
   21SAPC   C15 2701   6.448   2.096  10.895 -0.2782 -0.7706  0.2815
   21SAPC  H15A 2702   6.352   2.131  10.930 -0.8412 -0.3975 -1.5208
   21SAPC  H15B 2703   6.503   2.176  10.848  0.5150 -0.9288  0.9213
   21SAPC  H15C 2704   6.437   2.013  10.826 -0.3193 -1.5112  1.1506
   21SAPC   C11 2705   6.655   1.864  10.862 -0.0687 -0.6226  0.2257
   21SAPC  H11A 2706   6.583   1.786  10.893 -0.7317  0.1096  0.5556
   21SAPC  H11B 2707   6.752   1.810  10.858 -1.1497 -2.5925 -0.9765
   21SAPC     P 2708   6.634   1.809  10.610  0.2170 -0.3394 -0.0687
   21SAPC   O13 2709   6.764   1.742  10.589 -0.3543 -0.0585  0.3509
   21SAPC   O14 2710   6.519   1.718  10.634 -0.3998  0.6718  0.0941
   21SAPC   O12 2711   6.631   1.914  10.738  0.1829  0.5789  0.4610
   21SAPC   O11 2712   6.596   1.894  10.482  0.3952 -0.8109  0.3981
   21SAPC    C1 2713   6.462   1.947  10.484 -0.0816  0.2482 -0.3108
   21SAPC    HA 2714   6.409   1.939  10.581 -1.3469 -1.0934 -1.0812
   21SAPC    HB 2715   6.476   2.055  10.462  2.3024  0.3752  1.4340
   21SAPC    C2 2716   6.364   1.889  10.384  0.3511 -0.4621  0.1038
   21SAPC    HS 2717   6.363   1.779  10.399  0.8499 -0.6512 -1.1631
   21SAPC   O21 2718   6.415   1.918  10.257  0.0068 -0.5102 -0.4312
   21SAPC   C21 2719   6.382   1.826  10.160  0.0897  0.3794 -0.5786
   21SAPC   O22 2720   6.312   1.731  10.189  0.2076 -0.2019  0.5512
   21SAPC   C22 2721   6.438   1.862  10.026 -0.1123 -0.5139 -0.9367
   21SAPC   H2R 2722   6.430   1.973  10.024  0.3083 -0.4722 -0.4491
   21SAPC   H2S 2723   6.548   1.850  10.039 -0.5074 -1.9148  2.0630
   21SAPC    C3 2724   6.221   1.946  10.401 -0.1791  0.0285  0.4553
   21SAPC    HX 2725   6.171   1.901  10.489 -0.7501 -0.6061 -0.1830
   21SAPC    HY 2726   6.159   1.909  10.316 -1.5831 -0.8227  1.7984
   21SAPC   O31 2727   6.218   2.089  10.397  0.4771  0.5907 -0.2283
   21SAPC   C31 2728   6.096   2.140  10.403 -0.1045  0.1892 -0.7417
   21SAPC   O32 2729   6.000   2.069  10.424  0.6303 -0.1764  0.1704
   21SAPC   C32 2730   6.098   2.292  10.357  0.0936  0.4530  0.2309
   21SAPC   H2X 2731   6.205   2.310  10.332  0.0746  0.1457 -0.0943
   21SAPC   H2Y 2732   6.058   2.339  10.449 -0.5829  1.0049 -0.3390
   21SAPC   C23 2733   6.369   1.799   9.911 -0.1224 -0.2504  0.1939
   21SAPC   H3R 2734   6.259   1.816   9.905 -0.5056 -2.1093  1.0321
   21SAPC   H3S 2735   6.386   1.689   9.909  0.9315 -0.1063  0.8165
   21SAPC   C24 2736   6.423   1.858   9.777  0.1150 -0.2656  0.0743
   21SAPC   H4R 2737   6.382   1.959   9.753 -1.0789 -1.4739 -3.8876
   21SAPC   H4S 2738   6.370   1.793   9.704 -2.3909 -0.2135  1.7256
   21SAPC   C25 2739   6.575   1.859   9.775 -1.0260 -0.5442 -0.1124
   21SAPC   H5R 2740   6.635   1.931   9.833  0.5811 -0.8213 -1.3442
   21SAPC   C26 2741   6.653   1.788   9.696  0.1939 -0.4141  0.0319
   21SAPC   H6R 2742   6.763   1.796   9.698  0.1271  1.3322 -1.0480
   21SAPC   C27 2743   6.602   1.694   9.592  0.1366 -0.3083  0.9214
   21SAPC   H7R 2744   6.539   1.759   9.528  0.4152  1.5527  2.4325
   21SAPC   H7S 2745   6.537   1.615   9.634 -1.2679  0.9701  1.2297
   21SAPC   C28 2746   6.710   1.633   9.507  0.5788  0.4167  0.0870
   21SAPC   H8R 2747   6.790   1.595   9.572 -0.2207 -0.2077  0.7341
   21SAPC   C29 2748   6.712   1.633   9.372  0.5210 -0.0657  0.1337
   21SAPC   H9R 2749   6.798   1.591   9.318  1.7235  0.6704  1.4266
   21SAPC  C210 2750   6.609   1.693   9.283 -0.1058  0.1257 -0.2016
   21SAPC  H10R 2751   6.576   1.791   9.323  0.9663 -0.0722  1.2129
   21SAPC  H10S 2752   6.523   1.623   9.294  0.3115 -0.5563 -1.1652
   21SAPC  C211 2753   6.658   1.705   9.144 -0.3983 -0.1857 -0.2525
   21SAPC  H11R 2754   6.754   1.758   9.131  0.5979 -1.9541 -0.4833
   21SAPC  C212 2755   6.593   1.667   9.033  0.1916 -0.3211 -0.0972
   21SAPC  H12R 2756   6.635   1.683   8.933 -2.5875 -1.0121 -1.4955
   21SAPC  C213 2757   6.461   1.590   9.023  0.1670 -0.3139 -0.4724
   21SAPC  H13R 2758   6.443   1.511   9.099 -0.9855  0.7664  0.4236
   21SAPC  H13S 2759   6.454   1.531   8.929  1.4912  0.9698 -1.4346
   21SAPC  C214 2760   6.342   1.683   9.042 -0.4666  0.1613 -0.1309
   21SAPC  H14R 2761   6.359   1.769   9.108  4.8045  1.7916 -3.0543
   21SAPC  C215 2762   6.218   1.670   8.995 -0.9364 -0.4107 -0.2635
   21SAPC  H15R 2763   6.142   1.745   9.023 -0.3775  0.2719 -0.5715
   21SAPC  C216 2764   6.173   1.568   8.901  0.1402 -0.8132 -0.1476
   21SAPC  H16R 2765   6.080   1.516   8.932  0.2554 -0.4332  0.8739
   21SAPC  H16S 2766   6.249   1.494   8.870  0.4015 -1.0645  1.0653
   21SAPC  C217 2767   6.136   1.643   8.768 -0.3097  0.4746 -0.1865
   21SAPC  H17R 2768   6.231   1.680   8.722  0.7117 -2.3295 -0.5156
   21SAPC  H17S 2769   6.066   1.729   8.773  0.8691  1.4705 -0.2507
   21SAPC  C218 2770   6.098   1.539   8.657  0.5211 -0.0794  0.3941
   21SAPC  H18R 2771   6.145   1.441   8.676  1.0594  0.5393  2.4486
   21SAPC  H18S 2772   6.134   1.574   8.558  2.6391 -2.2586  0.3008
   21SAPC  C219 2773   5.943   1.525   8.638 -0.4076  0.0560  0.1560
   21SAPC  H19R 2774   5.926   1.476   8.540 -1.7701  0.8819 -0.0444
   21SAPC  H19S 2775   5.899   1.627   8.638 -0.8201 -0.1082  1.1093
   21SAPC  C220 2776   5.855   1.451   8.740  1.3625  0.5256 -0.4926
   21SAPC  H20R 2777   5.842   1.503   8.837  0.9369 -1.1166  0.3699
   21SAPC  H20S 2778   5.910   1.357   8.764  0.7158  0.4138  0.6022
   21SAPC  H20T 2779   5.762   1.414   8.693  1.9656 -0.3369 -1.0452
   21SAPC   C33 2780   6.008   2.314  10.239 -0.5610  0.0310  0.1734
   21SAPC   H3X 2781   6.007   2.420  10.207 -1.2959 -0.6097 -2.2042
   21SAPC   H3Y 2782   5.904   2.308  10.278 -0.2375 -2.1332  0.8414
   21SAPC   C34 2783   6.025   2.221  10.112  0.3603 -0.7753  0.2630
   21SAPC   H4X 2784   5.944   2.240  10.039  0.6297  0.3944  0.2442
   21SAPC   H4Y 2785   6.029   2.114  10.140 -0.1619 -0.9415 -0.2870
   21SAPC   C35 2786   6.153   2.261  10.036  0.1127  0.3246  0.6547
   21SAPC   H5X 2787   6.229   2.262  10.117 -0.3462  0.6029  1.0838
   21SAPC   H5Y 2788   6.138   2.365   9.999 -1.4446  0.6737  2.1356
   21SAPC   C36 2789   6.184   2.151   9.927 -0.0982  0.4065  0.6651
   21SAPC   H6X 2790   6.179   2.048   9.969 -0.4495 -0.1142 -0.6166
   21SAPC   H6Y 2791   6.291   2.159   9.897  0.2311  0.0067  1.6718
   21SAPC   C37 2792   6.094   2.157   9.800 -0.2325  0.2112 -0.6173
   21SAPC   H7X 2793   6.088   2.264   9.771 -1.4180  0.3427  0.0272
   21SAPC   H7Y 2794   5.988   2.137   9.825 -0.0152  1.2786  1.3474
   21SAPC   C38 2795   6.130   2.059   9.684 -0.0293 -0.6596  0.1482
   21SAPC   H8X 2796   6.107   1.959   9.725  0.1969  0.2567  2.7144
   21SAPC   H8Y 2797   6.238   2.069   9.660 -0.5775 -0.2878 -2.4312
   21SAPC   C39 2798   6.042   2.098   9.565 -0.0835  0.1742 -0.2217
   21SAPC   H9X 2799   6.041   2.205   9.534  0.7305  0.4392  0.6061
   21SAPC   H9Y 2800   5.940   2.081   9.608  0.0135 -2.5698 -0.8837
   21SAPC  C310 2801   6.056   2.003   9.448  0.1025 -0.0617  0.3620
   21SAPC  H10X 2802   6.029   1.904   9.490  0.8226  1.2556  4.2857
   21SAPC  H10Y 2803   6.158   2.008   9.403  0.1942  0.0584  0.5841
   21SAPC  C311 2804   5.942   2.017   9.344  0.0650 -0.5477  0.5609
   21SAPC  H11X 2805   5.939   2.125   9.319 -3.4327 -0.8941 -1.2091
   21SAPC  H11Y 2806   5.845   2.015   9.397 -0.0011  1.1958  0.5637
   21SAPC  C312 2807   5.960   1.927   9.218 -0.3201  0.0849 -0.8610
   21SAPC  H12X 2808   5.990   1.824   9.247  3.0814  0.9947 -0.7125
   21SAPC  H12Y 2809   6.050   1.965   9.166  1.8572 -1.3180  1.6366
   21SAPC  C313 2810   5.844   1.934   9.118  0.4979  0.0936 -0.6371
   21SAPC  H13X 2811   5.792   2.032   9.118 -0.8505 -0.5659  1.2539
   21SAPC  H13Y 2812   5.762   1.861   9.136  0.5498  0.0063 -0.7514
   21SAPC  C314 2813   5.893   1.899   8.975 -0.5380  0.5546  0.0324
   21SAPC  H14X 2814   5.958   1.809   8.980 -0.0426  0.9771  2.5648
   21SAPC  H14Y 2815   5.956   1.982   8.935  0.4911  0.5183  1.5125
   21SAPC  C315 2816   5.781   1.877   8.876  0.7975 -0.6823  0.7537
   21SAPC  H15X 2817   5.711   1.799   8.915  0.9371  0.0527  2.5441
   21SAPC  H15Y 2818   5.827   1.836   8.784  2.4870 -1.3668  1.8501
   21SAPC  C316 2819   5.705   2.005   8.854  0.7564  0.7235  0.0036
   21SAPC  H16X 2820   5.773   2.083   8.813  0.5131  1.6783  1.3511
   21SAPC  H16Y 2821   5.660   2.031   8.952 -1.8760  0.5263 -1.0596
   21SAPC  C317 2822   5.583   1.985   8.767  0.1795 -0.9142  0.4071
   21SAPC  H17X 2823   5.509   1.912   8.805 -1.3251 -0.0927 -0.8463
   21SAPC  H17Y 2824   5.622   1.957   8.667  0.5794  2.0744 -0.3870
   21SAPC  C318 2825   5.498   2.117   8.747 -0.0991 -0.3646 -0.6593
   21SAPC  H18X 2826   5.427   2.145   8.828  1.3047 -1.9071  1.1724
   21SAPC  H18Y 2827   5.429   2.096   8.662 -0.7651  1.3187 -0.5735
   21SAPC  H18Z 2828   5.569   2.200   8.732  0.6792 -1.0529 -0.8421
   22SAPC     N 2829   6.363   0.875  10.902 -0.5835  0.1859  0.1469
   22SAPC   C12 2830   6.293   1.000  10.950  0.2854  0.2158 -0.2170
   22SAPC  H12A 2831   6.258   0.961  11.044  0.4253 -1.1593 -0.7167
   22SAPC  H12B 2832   6.209   1.001  10.882  1.8481  1.5498 -2.2764
   22SAPC   C13 2833   6.386   0.874  10.753 -0.0565 -0.6624 -0.0246
   22SAPC  H13A 2834   6.457   0.948  10.720  2.1078 -2.5536  0.1524
   22SAPC  H13B 2835   6.446   0.787  10.729  1.3174  0.0386  0.7533
   22SAPC  H13C 2836   6.298   0.881  10.691  0.0111  0.9682  0.0375
   22SAPC   C14 2837   6.487   0.864  10.984 -0.9672  0.6370 -0.6461
   22SAPC  H14A 2838   6.466   0.865  11.090  0.2923  0.7522 -0.3724
   22SAPC  H14B 2839   6.555   0.787  10.950 -0.2365  1.9518 -2.3445
   22SAPC  H14C 2840   6.543   0.957  10.984  0.0239  0.1661  2.6592
   22SAPC   C15 2841   6.283   0.753  10.938 -0.3768 -0.3090 -0.2020
   22SAPC  H15A 2842   6.343   0.666  10.917  0.3557 -0.2460  1.5177
   22SAPC  H15B 2843   6.276   0.744  11.045 -1.1954  0.1279 -0.2080
   22SAPC  H15C 2844   6.185   0.739  10.893 -0.3104 -0.8772 -0.1807
   22SAPC   C11 2845   6.363   1.136  10.946  0.0293  0.4088  0.7719
   22SAPC  H11A 2846   6.459   1.128  11.002 -1.5480 -0.6932  3.5284
   22SAPC  H11B 2847   6.305   1.215  10.999 -0.8600  0.5860 -0.4240
   22SAPC     P 2848   6.282   1.236  10.717  0.3877 -0.0461  0.1675
   22SAPC   O13 2849   6.148   1.185  10.755  0.3327  0.1861 -0.2338
   22SAPC   O14 2850   6.288   1.385  10.711  0.0536 -0.3925  0.2806
   22SAPC   O12 2851   6.395   1.174  10.816  0.0466 -0.1150  0.0001
   22SAPC   O11 2852   6.339   1.179  10.580 -0.0012  0.1699 -0.1457
   22SAPC    C1 2853   6.293   1.224  10.452  0.1074  0.6842  0.0517
   22SAPC    HA 2854   6.183   1.222  10.440 -0.2430  1.1384  2.6314
   22SAPC    HB 2855   6.325   1.330  10.445  1.2844  0.2552 -1.4391
   22SAPC    C2 2856   6.351   1.126  10.348  0.0171 -0.8520 -0.1711
   22SAPC    HS 2857   6.449   1.092  10.388 -0.3462 -1.0416  0.5679
   22SAPC   O21 2858   6.365   1.203  10.229 -0.4073  0.4650  0.2007
   22SAPC   C21 2859   6.444   1.150  10.131 -0.3168  0.9175  0.2489
   22SAPC   O22 2860   6.500   1.042  10.140 -0.1413  0.1437  0.1061
   22SAPC   C22 2861   6.439   1.242  10.004  0.0410 -0.0775 -0.1884
   22SAPC   H2R 2862   6.373   1.185   9.935  0.5966  2.4718 -3.0446
   22SAPC   H2S 2863   6.377   1.329  10.034 -0.2809 -0.2291 -0.4096
   22SAPC    C3 2864   6.267   0.998  10.320 -0.9262  0.0224  0.0033
   22SAPC    HX 2865   6.237   0.951  10.416 -0.2435 -0.1397  0.1385
   22SAPC    HY 2866   6.338   0.925  10.276  0.2339  0.9622  0.2586
   22SAPC   O31 2867   6.152   1.023  10.234  0.6845  0.1993 -0.1388
   22SAPC   C31 2868   6.101   0.913  10.177  0.3218  0.4968  0.2865
   22SAPC   O32 2869   6.135   0.799  10.208 -0.2239  0.4122  0.4064
   22SAPC   C32 2870   5.994   0.950  10.074  0.6830  0.5621 -0.1510
   22SAPC   H2X 2871   6.002   1.058  10.048  0.7270  0.7355  0.5564
   22SAPC   H2Y 2872   5.898   0.924  10.124  1.1575 -4.2142 -1.2692
   22SAPC   C23 2873   6.568   1.287   9.936 -0.3415 -0.6187  0.1675
   22SAPC   H3R 2874   6.624   1.345  10.013 -0.2714 -1.2078  0.5687
   22SAPC   H3S 2875   6.545   1.354   9.851 -1.6401  1.4521  2.0358
   22SAPC   C24 2876   6.656   1.172   9.871 -0.4011  0.7494 -0.0297
   22SAPC   H4R 2877   6.706   1.117   9.953  1.0517  1.3074 -0.5092
   22SAPC   H4S 2878   6.736   1.225   9.816 -0.3147 -0.4019 -1.0407
   22SAPC   C25 2879   6.583   1.071   9.789  0.2483 -0.5652  0.1395
   22SAPC   H5R 2880   6.569   0.975   9.840  0.2130 -0.6138  0.0372
   22SAPC   C26 2881   6.550   1.089   9.661 -0.6238  0.6518 -0.6919
   22SAPC   H6R 2882   6.483   1.016   9.614 -0.9764  1.5017 -1.5607
   22SAPC   C27 2883   6.580   1.207   9.581  0.2083  0.1359  0.3481
   22SAPC   H7R 2884   6.572   1.300   9.642 -0.0653 -0.2026  0.8366
   22SAPC   H7S 2885   6.503   1.208   9.502 -1.1541 -0.8305  1.6057
   22SAPC   C28 2886   6.713   1.197   9.517 -0.3830 -0.2297  0.2219
   22SAPC   H8R 2887   6.799   1.208   9.584  0.8744  0.5613 -1.4528
   22SAPC   C29 2888   6.730   1.167   9.381 -0.1100 -0.5071  0.0397
   22SAPC   H9R 2889   6.830   1.169   9.334  0.2371  0.8328  0.7942
   22SAPC  C210 2890   6.619   1.149   9.284  0.3293  0.3281 -0.4992
   22SAPC  H10R 2891   6.580   1.244   9.242  0.1811  0.3010 -0.4268
   22SAPC  H10S 2892   6.521   1.119   9.327  0.4767  0.8172  0.2019
   22SAPC  C211 2893   6.655   1.053   9.165  0.1350 -0.8948  0.5115
   22SAPC  H11R 2894   6.671   0.947   9.191 -0.5573 -1.3470 -0.7969
   22SAPC  C212 2895   6.658   1.080   9.026  0.0092 -0.5286  0.2807
   22SAPC  H12R 2896   6.676   1.006   8.946 -0.7118  0.7848 -1.1393
   22SAPC  C213 2897   6.628   1.219   8.969 -0.5779 -0.1349 -0.2892
   22SAPC  H13R 2898   6.697   1.248   8.888 -1.4878  0.3922 -0.8889
   22SAPC  H13S 2899   6.650   1.299   9.043 -2.5905  2.0455 -1.9300
   22SAPC  C214 2900   6.487   1.248   8.927  0.3906  0.5956  0.2776
   22SAPC  H14R 2901   6.427   1.264   9.018  0.3987  1.9594  0.0655
   22SAPC  C215 2902   6.440   1.258   8.801  0.4913 -0.0651 -0.3798
   22SAPC  H15R 2903   6.333   1.277   8.786 -0.0694 -3.0198 -0.6334
   22SAPC  C216 2904   6.511   1.242   8.668  0.1278  0.6282 -0.5022
   22SAPC  H16R 2905   6.480   1.143   8.629  3.2159 -1.2774  1.3784
   22SAPC  H16S 2906   6.618   1.211   8.676 -0.3889 -1.3437 -0.7977
   22SAPC  C217 2907   6.496   1.351   8.567  0.1851 -0.1761 -0.0136
   22SAPC  H17R 2908   6.391   1.368   8.537 -0.1242 -0.9045  0.6452
   22SAPC  H17S 2909   6.553   1.309   8.481  2.1841 -0.6994  1.4724
   22SAPC  C218 2910   6.562   1.483   8.606  0.7065 -0.6305 -0.3508
   22SAPC  H18R 2911   6.667   1.470   8.638  2.3708  1.9785 -4.0366
   22SAPC  H18S 2912   6.508   1.538   8.687  0.6714  1.1362 -1.5098
   22SAPC  C219 2913   6.556   1.586   8.491 -0.2230 -0.6803 -0.6702
   22SAPC  H19R 2914   6.609   1.534   8.409  0.8808 -0.3836 -0.1659
   22SAPC  H19S 2915   6.620   1.669   8.529 -0.6038 -0.1834 -1.0986
   22SAPC  C220 2916   6.420   1.632   8.443  0.2136  0.3162  0.0016
   22SAPC  H20R 2917   6.437   1.726   8.387 -0.1333  0.5491  0.2813
   22SAPC  H20S 2918   6.366   1.659   8.536  2.1723 -1.1556  1.6681
   22SAPC  H20T 2919   6.368   1.558   8.379 -0.2134 -0.5914  1.3394
   22SAPC   C33 2920   6.005   0.865   9.943  0.1589  0.3760 -0.5853
   22SAPC   H3X 2921   5.924   0.879   9.869 -0.1902  0.1375 -0.2494
   22SAPC   H3Y 2922   5.989   0.758   9.967 -1.4956  0.4292 -1.3230
   22SAPC   C34 2923   6.133   0.886   9.856  0.3483 -0.3785 -0.0016
   22SAPC   H4X 2924   6.216   0.824   9.897  0.5379 -0.0091  0.1773
   22SAPC   H4Y 2925   6.155   0.995   9.855  1.2026 -0.5093  1.4547
   22SAPC   C35 2926   6.121   0.822   9.717 -0.5642 -0.3538  0.1364
   22SAPC   H5X 2927   6.037   0.870   9.662 -0.1815  1.6361  1.1983
   22SAPC   H5Y 2928   6.109   0.712   9.731 -2.0331 -0.2420 -0.0731
   22SAPC   C36 2929   6.235   0.855   9.622 -0.9890 -0.6540 -0.0663
   22SAPC   H6X 2930   6.338   0.826   9.654 -0.2443  0.4596 -1.3830
   22SAPC   H6Y 2931   6.234   0.966   9.619 -0.9398 -0.6540 -0.0844
   22SAPC   C37 2932   6.198   0.805   9.481  0.7573  0.1998  0.0894
   22SAPC   H7X 2933   6.114   0.870   9.448  1.1596  0.8975  0.3957
   22SAPC   H7Y 2934   6.169   0.699   9.471 -0.1631  0.6155 -2.0518
   22SAPC   C38 2935   6.317   0.808   9.388 -0.4337 -0.3533  0.2172
   22SAPC   H8X 2936   6.395   0.739   9.428 -1.9684 -2.5481 -0.3785
   22SAPC   H8Y 2937   6.360   0.910   9.394  0.6883 -0.8871  3.5976
   22SAPC   C39 2938   6.284   0.766   9.246 -0.8488 -0.7297  0.1553
   22SAPC   H9X 2939   6.195   0.822   9.209 -1.1634 -0.7119  0.9249
   22SAPC   H9Y 2940   6.258   0.658   9.246  2.2064 -1.5535  1.1666
   22SAPC  C310 2941   6.402   0.791   9.142 -0.0200 -0.2092 -0.7247
   22SAPC  H10X 2942   6.502   0.764   9.182  0.3303  0.1475 -1.3547
   22SAPC  H10Y 2943   6.412   0.901   9.134 -3.3920  0.1577 -1.0846
   22SAPC  C311 2944   6.385   0.742   9.006 -0.2256  0.1042 -0.0911
   22SAPC  H11X 2945   6.383   0.631   8.999  0.7781 -0.0320  1.4382
   22SAPC  H11Y 2946   6.481   0.761   8.954 -0.6523  0.0832 -0.9089
   22SAPC  C312 2947   6.256   0.798   8.935  0.9422 -0.4815 -0.8697
   22SAPC  H12X 2948   6.257   0.904   8.966  3.6439  0.2296 -2.9153
   22SAPC  H12Y 2949   6.171   0.752   8.990  0.7806  1.9911  1.1235
   22SAPC  C313 2950   6.241   0.773   8.785  0.1453 -0.1840  0.3416
   22SAPC  H13X 2951   6.333   0.814   8.738  0.3520 -0.2110  0.7158
   22SAPC  H13Y 2952   6.146   0.821   8.753 -0.4004 -1.3588  0.1620
   22SAPC  C314 2953   6.230   0.617   8.743 -0.7743 -0.0763  0.4755
   22SAPC  H14X 2954   6.137   0.581   8.792  0.4793 -0.6176  2.5843
   22SAPC  H14Y 2955   6.318   0.571   8.793  0.1774 -1.2008 -2.0530
   22SAPC  C315 2956   6.237   0.587   8.597 -0.3842  0.0222 -0.0912
   22SAPC  H15X 2957   6.175   0.655   8.534 -0.9122 -0.1349  0.2524
   22SAPC  H15Y 2958   6.205   0.484   8.568  0.8606  0.1940 -2.3056
   22SAPC  C316 2959   6.381   0.599   8.540 -0.1418 -0.0315 -0.2910
   22SAPC  H16X 2960   6.438   0.510   8.574 -0.0650 -0.8366 -2.3792
   22SAPC  H16Y 2961   6.444   0.684   8.574  2.3255 -1.3598 -1.2537
   22SAPC  C317 2962   6.386   0.584   8.388 -0.0024 -0.3226  0.2949
   22SAPC  H17X 2963   6.342   0.674   8.340  0.7936  0.2433  0.6070
   22SAPC  H17Y 2964   6.321   0.502   8.352 -1.7781  1.3832 -0.5148
   22SAPC  C318 2965   6.532   0.559   8.339 -0.5665 -0.4539 -0.3086
   22SAPC  H18X 2966   6.534   0.560   8.228 -1.7284 -0.3556 -0.3440
   22SAPC  H18Y 2967   6.577   0.464   8.375  0.3664 -0.9205 -2.5367
   22SAPC  H18Z 2968   6.593   0.647   8.370 -1.5953 -0.2931  1.4403
   23SAPC     N 2969   0.845   1.736  10.833 -0.5190 -0.6628 -0.5713
   23SAPC   C12 2970   0.790   1.607  10.889  0.2320 -0.1784  0.3365
   23SAPC  H12A 2971   0.732   1.619  10.979 -0.3709  0.0322 -0.0712
   23SAPC  H12B 2972   0.871   1.538  10.907 -0.0761 -1.0932 -1.4703
   23SAPC   C13 2973   0.923   1.722  10.707 -0.2757 -0.2044  0.8221
   23SAPC  H13A 2974   0.956   1.818  10.669 -0.4312 -0.2321  0.6151
   23SAPC  H13B 2975   1.009   1.659  10.722 -0.2130 -0.9586 -2.1892
   23SAPC  H13C 2976   0.874   1.673  10.624 -0.0806  0.8209  0.0841
   23SAPC   C14 2977   0.742   1.841  10.813  0.5291 -0.4434  0.4751
   23SAPC  H14A 2978   0.780   1.942  10.807  1.7219 -0.8554  0.8663
   23SAPC  H14B 2979   0.679   1.824  10.726 -4.0494  2.8847  2.6735
   23SAPC  H14C 2980   0.672   1.840  10.895 -0.8187 -0.4781 -0.6263
   23SAPC   C15 2981   0.946   1.784  10.933 -0.8358  0.0159  0.0859
   23SAPC  H15A 2982   0.910   1.786  11.035  1.4395 -0.4626  0.9754
   23SAPC  H15B 2983   1.030   1.715  10.932  1.0382  2.1459 -2.1438
   23SAPC  H15C 2984   0.987   1.881  10.909 -0.8802  0.1868  0.6832
   23SAPC   C11 2985   0.700   1.519  10.807 -0.0894  0.4933  0.6440
   23SAPC  H11A 2986   0.675   1.434  10.875 -0.1497  0.2803  0.3596
   23SAPC  H11B 2987   0.758   1.486  10.719  1.6270  1.9637  1.1746
   23SAPC     P 2988   0.477   1.564  10.672  0.3266 -0.1318 -0.0891
   23SAPC   O13 2989   0.468   1.424  10.628  0.6465  0.1177  0.2181
   23SAPC   O14 2990   0.342   1.620  10.713  0.7484 -0.6586  0.3333
   23SAPC   O12 2991   0.585   1.599  10.787  0.4285  0.2562  0.0980
   23SAPC   O11 2992   0.544   1.647  10.555  0.5465 -0.0760  0.6553
   23SAPC    C1 2993   0.497   1.782  10.518 -0.0413 -0.2938 -0.1334
   23SAPC    HA 2994   0.386   1.784  10.511 -0.1818 -0.7861  1.5209
   23SAPC    HB 2995   0.525   1.858  10.594  0.8861  0.4026 -1.1448
   23SAPC    C2 2996   0.547   1.829  10.378 -0.1004  0.1707  0.2345
   23SAPC    HS 2997   0.470   1.902  10.346 -0.1546 -0.4857 -1.2009
   23SAPC   O21 2998   0.543   1.716  10.289  0.0821 -0.3081  0.2971
   23SAPC   C21 2999   0.426   1.649  10.268 -0.6037 -1.0426 -0.2989
   23SAPC   O22 3000   0.318   1.695  10.296 -0.3616 -0.1830 -0.3283
   23SAPC   C22 3001   0.456   1.506  10.215  1.0138 -0.2302  0.2105
   23SAPC   H2R 3002   0.485   1.518  10.108  2.8709  1.4508  0.8416
   23SAPC   H2S 3003   0.543   1.475  10.276 -0.5785  0.6267  3.1211
   23SAPC    C3 3004   0.692   1.889  10.384 -0.2923 -0.2254 -0.0106
   23SAPC    HX 3005   0.765   1.818  10.428 -0.4193  0.8517  2.0572
   23SAPC    HY 3006   0.675   1.975  10.452  0.1801 -0.2836  0.1829
   23SAPC   O31 3007   0.744   1.941  10.263 -0.3776  0.6983 -0.1443
   23SAPC   C31 3008   0.812   1.853  10.184  0.7404 -0.6774  0.8708
   23SAPC   O32 3009   0.811   1.733  10.192  0.0352  0.7337  0.1897
   23SAPC   C32 3010   0.864   1.939  10.069  0.9254  0.3307  0.4271
   23SAPC   H2X 3011   0.971   1.965  10.085  0.7696  1.4543 -0.2621
   23SAPC   H2Y 3012   0.804   2.032  10.057  0.4460 -0.2232 -1.8687
   23SAPC   C23 3013   0.337   1.410  10.234  0.1921  0.4816  0.0369
   23SAPC   H3R 3014   0.264   1.440  10.157  2.6721  2.7742 -1.6368
   23SAPC   H3S 3015   0.309   1.426  10.341  1.9624 -1.7761  0.9170
   23SAPC   C24 3016   0.374   1.255  10.216 -0.4180  0.2252  0.2028
   23SAPC   H4R 3017   0.455   1.228  10.287 -0.4755 -2.1961 -0.5841
   23SAPC   H4S 3018   0.416   1.245  10.114 -0.7324  1.2740 -0.0470
   23SAPC   C25 3019   0.252   1.175  10.245  0.1463  0.2228 -0.5237
   23SAPC   H5R 3020   0.221   1.161  10.350 -0.8480 -2.1730 -1.0651
   23SAPC   C26 3021   0.185   1.111  10.147  0.3088  0.5862  0.7629
   23SAPC   H6R 3022   0.098   1.049  10.175 -0.0974  0.6322 -0.3427
   23SAPC   C27 3023   0.226   1.093   9.998  0.5293 -0.0616 -0.6449
   23SAPC   H7R 3024   0.332   1.061   9.998  0.9374  1.1365  0.9340
   23SAPC   H7S 3025   0.223   1.187   9.939  1.2933 -0.4449 -1.3082
   23SAPC   C28 3026   0.144   1.001   9.913  0.1780  0.4423  0.4207
   23SAPC   H8R 3027   0.052   0.955   9.952  0.6836 -1.1759 -0.2158
   23SAPC   C29 3028   0.178   0.963   9.790  0.2421 -0.1064  0.7497
   23SAPC   H9R 3029   0.115   0.894   9.732  2.4385 -0.3476 -1.5558
   23SAPC  C210 3030   0.304   1.008   9.718 -0.0791 -0.3479  1.0062
   23SAPC  H10R 3031   0.344   1.102   9.763  2.5343 -1.4305  1.1451
   23SAPC  H10S 3032   0.286   1.027   9.610  2.9610  1.7615  0.7407
   23SAPC  C211 3033   0.412   0.904   9.735 -1.0771 -0.5477 -0.3280
   23SAPC  H11R 3034   0.436   0.860   9.833 -1.9921 -1.6100 -0.5635
   23SAPC  C212 3035   0.471   0.837   9.637 -0.7737 -0.8724 -0.4405
   23SAPC  H12R 3036   0.538   0.752   9.656 -0.0270 -0.8010 -2.4795
   23SAPC  C213 3037   0.443   0.857   9.488  0.6644 -0.6631 -0.2843
   23SAPC  H13R 3038   0.365   0.934   9.470  1.8145  0.4274 -0.6891
   23SAPC  H13S 3039   0.406   0.764   9.440  2.0049 -1.9765  1.0886
   23SAPC  C214 3040   0.555   0.902   9.402 -0.5395  0.2072  1.0244
   23SAPC  H14R 3041   0.624   0.976   9.447 -1.5110  2.1477 -0.5498
   23SAPC  C215 3042   0.582   0.856   9.277 -0.0698 -1.0297 -0.6745
   23SAPC  H15R 3043   0.668   0.906   9.230 -0.1139  1.1483  1.3776
   23SAPC  C216 3044   0.512   0.751   9.199  0.1660  0.1299 -0.1475
   23SAPC  H16R 3045   0.507   0.789   9.095 -1.3693  1.0723  0.2375
   23SAPC  H16S 3046   0.417   0.726   9.250  2.4506 -3.2414  2.9482
   23SAPC  C217 3047   0.592   0.619   9.178  1.0103  0.0112 -0.0612
   23SAPC  H17R 3048   0.694   0.637   9.138  0.1835  0.5947 -2.0253
   23SAPC  H17S 3049   0.527   0.572   9.101 -0.2417  0.1096  0.9062
   23SAPC  C218 3050   0.588   0.546   9.318  0.4800 -0.2152  0.0067
   23SAPC  H18R 3051   0.481   0.522   9.340  0.3174 -0.1014 -0.6404
   23SAPC  H18S 3052   0.621   0.614   9.399  1.0218  0.2116 -0.5655
   23SAPC  C219 3053   0.662   0.419   9.336  0.3280  0.0379 -0.5054
   23SAPC  H19R 3054   0.648   0.352   9.248  0.0065  0.0627 -0.4731
   23SAPC  H19S 3055   0.615   0.366   9.421 -0.0063 -0.3170 -0.9047
   23SAPC  C220 3056   0.802   0.450   9.362 -0.0624 -0.3559 -0.1325
   23SAPC  H20R 3057   0.820   0.527   9.440 -1.7655  0.5804 -0.6184
   23SAPC  H20S 3058   0.855   0.479   9.269  0.0962 -0.8319 -0.1947
   23SAPC  H20T 3059   0.852   0.359   9.401  0.7081 -0.2333 -0.8129
   23SAPC   C33 3060   0.869   1.875   9.930  0.5779 -0.0051 -1.1297
   23SAPC   H3X 3061   0.770   1.834   9.898  0.3801  0.2224 -0.8133
   23SAPC   H3Y 3062   0.939   1.789   9.927  1.3903  0.5636  0.6503
   23SAPC   C34 3063   0.911   1.985   9.827  0.5685  0.5289  0.4464
   23SAPC   H4X 3064   0.998   2.047   9.859 -0.1529  1.5483  0.4751
   23SAPC   H4Y 3065   0.825   2.053   9.809 -0.4412 -0.8824 -0.2344
   23SAPC   C35 3066   0.927   1.938   9.677 -0.5865 -0.2235 -0.1566
   23SAPC   H5X 3067   0.890   1.836   9.651 -0.1837 -0.2142 -0.7970
   23SAPC   H5Y 3068   1.036   1.921   9.664 -0.4866  1.8367 -2.7353
   23SAPC   C36 3069   0.885   2.046   9.581 -0.4007  0.1870  0.0310
   23SAPC   H6X 3070   0.937   2.144   9.584  1.8138 -0.9489  0.3257
   23SAPC   H6Y 3071   0.774   2.049   9.591 -0.7700 -3.2143 -1.5820
   23SAPC   C37 3072   0.894   1.998   9.440  0.1333  0.2450  0.4117
   23SAPC   H7X 3073   0.837   1.903   9.428 -0.4857  0.5461  0.9318
   23SAPC   H7Y 3074   1.001   1.976   9.416  0.4158 -1.2441  2.7081
   23SAPC   C38 3075   0.841   2.096   9.339  0.1792 -0.3751  0.3072
   23SAPC   H8X 3076   0.883   2.197   9.358  1.0752 -0.4928 -0.9292
   23SAPC   H8Y 3077   0.736   2.121   9.364  0.7981  3.8667 -0.5725
   23SAPC   C39 3078   0.853   2.060   9.197 -0.5033  0.0660  0.0010
   23SAPC   H9X 3079   0.810   1.960   9.177 -1.0544  0.2727  0.1382
   23SAPC   H9Y 3080   0.961   2.057   9.172  0.1673 -0.0342  2.6506
   23SAPC  C310 3081   0.798   2.176   9.108  0.0486  0.9952 -0.3832
   23SAPC  H10X 3082   0.853   2.270   9.129  1.0477  0.4052 -0.2750
   23SAPC  H10Y 3083   0.694   2.190   9.143  0.6696 -1.1035  2.6938
   23SAPC  C311 3084   0.797   2.138   8.961  0.6867 -1.0263  0.6035
   23SAPC  H11X 3085   0.733   2.048   8.950 -2.2162  0.8223  1.2420
   23SAPC  H11Y 3086   0.903   2.108   8.951  1.5014  1.5295  0.9264
   23SAPC  C312 3087   0.741   2.246   8.867 -0.6519 -0.8885 -0.4219
   23SAPC  H12X 3088   0.809   2.334   8.872  0.3536 -1.5712 -1.4854
   23SAPC  H12Y 3089   0.636   2.263   8.899 -0.3397  1.1762 -0.3715
   23SAPC  C313 3090   0.745   2.200   8.721 -0.0186  0.3447  0.3002
   23SAPC  H13X 3091   0.672   2.118   8.709 -0.9710  1.3501 -1.0999
   23SAPC  H13Y 3092   0.854   2.186   8.701 -0.2852 -1.7495  0.0966
   23SAPC  C314 3093   0.691   2.311   8.630 -0.1916  0.8276 -0.4569
   23SAPC  H14X 3094   0.585   2.333   8.655 -0.6170 -1.2634 -0.2876
   23SAPC  H14Y 3095   0.699   2.273   8.526  2.9441 -1.1408  0.3797
   23SAPC  C315 3096   0.765   2.443   8.624  0.0717  0.5297 -0.5245
   23SAPC  H15X 3097   0.874   2.429   8.605  0.2165  3.1022 -2.0047
   23SAPC  H15Y 3098   0.763   2.479   8.729  0.3413 -0.6715 -0.0840
   23SAPC  C316 3099   0.706   2.537   8.521  0.4539 -0.6000 -0.1239
   23SAPC  H16X 3100   0.604   2.571   8.546  0.3329 -2.2427  1.8173
   23SAPC  H16Y 3101   0.703   2.475   8.429  1.3648 -0.9136  0.0505
   23SAPC  C317 3102   0.789   2.664   8.493 -0.6340  0.1506  0.0780
   23SAPC  H17X 3103   0.736   2.718   8.412 -1.0334 -0.7881 -0.2950
   23SAPC  H17Y 3104   0.893   2.639   8.464 -0.8901 -2.1803  0.9916
   23SAPC  C318 3105   0.816   2.755   8.610  0.1933 -0.1876 -0.0672
   23SAPC  H18X 3106   0.816   2.703   8.708  0.4033 -0.7208 -0.3478
   23SAPC  H18Y 3107   0.732   2.827   8.621  2.1954  2.5584 -1.5133
   23SAPC  H18Z 3108   0.912   2.810   8.607  0.7660 -0.9829  2.0739
   24SAPC     N 3109   1.273   3.862  10.900  0.5317  0.6466 -0.1049
   24SAPC   C12 3110   1.179   3.981  10.880 -0.3764 -0.1439 -0.2865
   24SAPC  H12A 3111   1.125   3.960  10.789 -1.4475 -0.0442  0.2995
   24SAPC  H12B 3112   1.239   4.069  10.861 -0.8969 -0.0560 -1.6200
   24SAPC   C13 3113   1.360   3.883  11.019 -1.2077  0.2852 -0.3937
   24SAPC  H13A 3114   1.419   3.798  11.052 -0.6736  1.0084  0.5766
   24SAPC  H13B 3115   1.438   3.956  11.003 -0.0207 -0.6537  0.7807
   24SAPC  H13C 3116   1.314   3.919  11.110 -1.1853 -0.7876  0.0592
   24SAPC   C14 3117   1.196   3.730  10.912 -0.1201 -0.2137  0.4235
   24SAPC  H14A 3118   1.254   3.651  10.958 -0.2828  0.0797  1.1454
   24SAPC  H14B 3119   1.102   3.744  10.963 -1.4845 -0.2501 -1.9197
   24SAPC  H14C 3120   1.162   3.683  10.820  0.1029 -0.1337  0.2998
   24SAPC   C15 3121   1.367   3.843  10.789  0.0148 -0.3495 -0.2610
   24SAPC  H15A 3122   1.418   3.749  10.809  0.8859  0.3327  0.8697
   24SAPC  H15B 3123   1.320   3.828  10.693  0.7173 -2.4225 -0.3493
   24SAPC  H15C 3124   1.449   3.913  10.783  0.1737 -0.4157  0.8212
   24SAPC   C11 3125   1.078   4.010  10.990 -0.5261  0.5266 -0.4685
   24SAPC  H11A 3126   1.037   4.107  10.954  1.8703  1.5819 -0.5890
   24SAPC  H11B 3127   1.126   4.029  11.088 -0.2563  0.4175 -0.5785
   24SAPC     P 3128   0.820   3.941  10.970  0.0428 -0.0334  0.0418
   24SAPC   O13 3129   0.736   3.813  10.973  0.1700 -0.6607  0.5065
   24SAPC   O14 3130   0.769   4.046  11.060  0.5581  0.4734  0.2176
   24SAPC   O12 3131   0.975   3.907  11.004 -0.3959 -0.4438 -0.4447
   24SAPC   O11 3132   0.824   4.001  10.821 -0.0166  0.3752 -0.4583
   24SAPC    C1 3133   0.893   3.940  10.710  0.0275 -0.9291 -0.2650
   24SAPC    HA 3134   0.982   4.002  10.689  0.7945 -1.8218  0.2302
   24SAPC    HB 3135   0.929   3.840  10.745 -2.3547 -1.4379  0.9355
   24SAPC    C2 3136   0.797   3.914  10.591 -0.1650 -0.3230 -0.5711
   24SAPC    HS 3137   0.859   3.916  10.499  0.3409 -0.0093 -0.2274
   24SAPC   O21 3138   0.700   4.020  10.582 -0.3866 -0.1266  0.5576
   24SAPC   C21 3139   0.763   4.144  10.579  0.6335 -0.0011  0.9288
   24SAPC   O22 3140   0.881   4.158  10.551 -0.2776 -0.1085 -0.3940
   24SAPC   C22 3141   0.654   4.251  10.608 -1.1499 -0.2376  0.5018
   24SAPC   H2R 3142   0.599   4.200  10.691  2.0064 -1.1461  2.2213
   24SAPC   H2S 3143   0.699   4.345  10.646 -4.0300  0.3035  2.9818
   24SAPC    C3 3144   0.714   3.784  10.596  0.1496 -0.1119 -0.1804
   24SAPC    HX 3145   0.610   3.798  10.632  0.5578 -0.3930  1.1707
   24SAPC    HY 3146   0.764   3.715  10.668 -0.4135  0.1946  0.5200
   24SAPC   O31 3147   0.731   3.715  10.468  0.0818 -0.3096 -0.0579
   24SAPC   C31 3148   0.650   3.614  10.457 -1.0968 -0.2759 -0.0588
   24SAPC   O32 3149   0.574   3.568  10.540  0.3808 -0.3836 -0.1198
   24SAPC   C32 3150   0.675   3.552  10.322  0.0654 -0.3349  0.1727
   24SAPC   H2X 3151   0.786   3.557  10.311  0.3805 -3.4435  0.9986
   24SAPC   H2Y 3152   0.628   3.617  10.246  0.5046  0.4199  0.5308
   24SAPC   C23 3153   0.562   4.283  10.483  0.5492  0.0621 -0.2682
   24SAPC   H3R 3154   0.465   4.318  10.524 -0.7655 -2.3910 -1.0788
   24SAPC   H3S 3155   0.542   4.186  10.432 -2.2355 -0.0506  0.8912
   24SAPC   C24 3156   0.633   4.384  10.395 -0.1421  0.1808  0.0764
   24SAPC   H4R 3157   0.733   4.352  10.359 -0.6119 -2.6749  1.0415
   24SAPC   H4S 3158   0.642   4.475  10.458 -3.1353  1.0315 -0.5372
   24SAPC   C25 3159   0.545   4.416  10.274  0.3726  0.3400 -0.2522
   24SAPC   H5R 3160   0.523   4.328  10.213 -1.5721  0.3774  0.3409
   24SAPC   C26 3161   0.496   4.534  10.242  0.0082 -0.1734  0.6895
   24SAPC   H6R 3162   0.429   4.527  10.155  0.6584  2.0949 -0.0687
   24SAPC   C27 3163   0.498   4.672  10.303  0.9720 -0.1250 -0.2852
   24SAPC   H7R 3164   0.588   4.730  10.274  0.1344  1.8771  0.8882
   24SAPC   H7S 3165   0.495   4.671  10.414 -0.9379  1.1186 -0.2720
   24SAPC   C28 3166   0.375   4.748  10.267 -0.2510 -0.7644 -0.2594
   24SAPC   H8R 3167   0.385   4.817  10.181  1.9870 -0.5693  0.1016
   24SAPC   C29 3168   0.261   4.748  10.334 -0.4407 -0.0505  0.4386
   24SAPC   H9R 3169   0.173   4.807  10.307  0.2743  1.1294  0.6195
   24SAPC  C210 3170   0.232   4.649  10.444  0.8688  0.2680 -0.5865
   24SAPC  H10R 3171   0.246   4.696  10.544 -2.4769 -0.7959  0.5020
   24SAPC  H10S 3172   0.295   4.558  10.459  0.1324  0.0385  1.3625
   24SAPC  C211 3173   0.089   4.599  10.455  0.2094 -0.0280 -0.2427
   24SAPC  H11R 3174   0.017   4.668  10.503  0.2120  0.2701 -0.6596
   24SAPC  C212 3175   0.051   4.476  10.409  0.1154 -0.3143 -0.3830
   24SAPC  H12R 3176  -0.054   4.449  10.428  0.3064 -0.6153  0.2936
   24SAPC  C213 3177   0.137   4.363  10.346  0.2836 -0.1393 -0.0098
   24SAPC  H13R 3178   0.161   4.293  10.429 -1.4232 -0.0619  0.5787
   24SAPC  H13S 3179   0.232   4.409  10.310  1.1254 -1.1649  0.8371
   24SAPC  C214 3180   0.057   4.300  10.228 -0.2731  0.3339 -0.1028
   24SAPC  H14R 3181  -0.052   4.312  10.226 -0.4863 -1.3895 -0.9631
   24SAPC  C215 3182   0.113   4.226  10.128  0.7305  0.5724 -0.1460
   24SAPC  H15R 3183   0.047   4.189  10.049 -0.3945 -0.2657  1.1365
   24SAPC  C216 3184   0.259   4.195  10.096  0.5279 -0.0854 -1.0413
   24SAPC  H16R 3185   0.278   4.092  10.135  0.5568  0.2547 -0.1434
   24SAPC  H16S 3186   0.321   4.263  10.157 -0.7588 -0.0536  0.2726
   24SAPC  C217 3187   0.326   4.216   9.951  1.0922  0.3659 -0.3217
   24SAPC  H17R 3188   0.436   4.210   9.962  1.3781 -0.1555 -2.7744
   24SAPC  H17S 3189   0.307   4.322   9.920 -2.4756  0.1880  0.8358
   24SAPC  C218 3190   0.275   4.113   9.848  0.0250  0.4627  0.5944
   24SAPC  H18R 3191   0.165   4.100   9.849  0.0848 -0.4189 -1.1444
   24SAPC  H18S 3192   0.324   4.016   9.870  2.1661  1.0361 -1.2556
   24SAPC  C219 3193   0.314   4.151   9.712 -0.1054  0.4058 -1.1090
   24SAPC  H19R 3194   0.421   4.183   9.704  0.1652  0.2822  1.2929
   24SAPC  H19S 3195   0.262   4.248   9.697  3.6470  2.4502 -2.2858
   24SAPC  C220 3196   0.284   4.053   9.598  0.2030  0.0362 -0.6832
   24SAPC  H20R 3197   0.191   3.996   9.616  1.0440 -2.0150 -2.3764
   24SAPC  H20S 3198   0.368   3.981   9.593  0.8924  0.8420 -0.9531
   24SAPC  H20T 3199   0.273   4.099   9.497  1.1550 -0.6197 -1.1004
   24SAPC   C33 3200   0.631   3.411  10.304 -0.0666  0.1657  0.1036
   24SAPC   H3X 3201   0.520   3.404  10.302  0.0151 -2.1928  0.0545
   24SAPC   H3Y 3202   0.672   3.339  10.378  1.3436  0.6482 -0.1897
   24SAPC   C34 3203   0.676   3.355  10.169  0.6849 -0.6507  0.5441
   24SAPC   H4X 3204   0.633   3.253  10.161 -0.7205 -0.0355 -0.1801
   24SAPC   H4Y 3205   0.786   3.335  10.170  1.3975  2.4777 -0.7896
   24SAPC   C35 3206   0.645   3.447  10.056 -0.0836  0.1044  0.2492
   24SAPC   H5X 3207   0.705   3.540  10.057  0.5216 -0.2804  0.5999
   24SAPC   H5Y 3208   0.541   3.484  10.068  0.3395  1.3783  0.0991
   24SAPC   C36 3209   0.640   3.360   9.929 -0.0307 -0.4557  0.3608
   24SAPC   H6X 3210   0.579   3.272   9.959 -0.6213  0.1071  0.8292
   24SAPC   H6Y 3211   0.742   3.318   9.911  0.5238  1.2113 -0.5433
   24SAPC   C37 3212   0.593   3.434   9.803 -0.0028  0.7666 -0.5227
   24SAPC   H7X 3213   0.670   3.507   9.773 -0.5228  1.4275 -0.2787
   24SAPC   H7Y 3214   0.500   3.491   9.825  0.2481  0.6862  0.8835
   24SAPC   C38 3215   0.566   3.345   9.683 -0.1696  0.8073  0.8090
   24SAPC   H8X 3216   0.493   3.263   9.704 -0.0305  0.1969 -0.9595
   24SAPC   H8Y 3217   0.659   3.295   9.648 -1.6279 -1.8163  0.4088
   24SAPC   C39 3218   0.522   3.425   9.556  0.1149 -0.2065 -0.4836
   24SAPC   H9X 3219   0.568   3.526   9.552 -2.2750  1.0671  1.5315
   24SAPC   H9Y 3220   0.414   3.447   9.561  0.0482  0.4625 -3.3691
   24SAPC  C310 3221   0.529   3.349   9.423 -0.1211  0.5796 -0.3575
   24SAPC  H10X 3222   0.467   3.258   9.436  1.4071 -0.4804 -0.1814
   24SAPC  H10Y 3223   0.629   3.307   9.399 -1.1591 -0.9484 -2.3438
   24SAPC  C311 3224   0.462   3.431   9.310 -0.4961 -0.0622  0.7808
   24SAPC  H11X 3225   0.512   3.526   9.282 -0.7664 -0.2016 -0.2293
   24SAPC  H11Y 3226   0.359   3.458   9.343 -1.1168 -1.9307  0.5231
   24SAPC  C312 3227   0.449   3.344   9.180  0.2179 -0.1588  0.4071
   24SAPC  H12X 3228   0.393   3.252   9.203  1.1619 -1.6432 -2.6563
   24SAPC  H12Y 3229   0.548   3.319   9.135 -0.3550 -1.2262 -0.3058
   24SAPC  C313 3230   0.368   3.415   9.075 -0.3441  0.2257  0.5719
   24SAPC  H13X 3231   0.405   3.509   9.028 -0.8091  0.1699  0.0904
   24SAPC  H13Y 3232   0.271   3.444   9.120 -0.5230  0.8268 -0.1830
   24SAPC  C314 3233   0.336   3.321   8.954  0.3022 -0.1013  0.3963
   24SAPC  H14X 3234   0.256   3.250   8.984  0.3895 -0.7374 -0.8127
   24SAPC  H14Y 3235   0.423   3.260   8.921  0.6433  0.8010 -0.4322
   24SAPC  C315 3236   0.290   3.394   8.832 -0.0960  0.3238  0.3958
   24SAPC  H15X 3237   0.373   3.432   8.769 -0.2938 -0.9142 -0.6721
   24SAPC  H15Y 3238   0.232   3.483   8.863  1.3837  1.8804 -1.0646
   24SAPC  C316 3239   0.212   3.308   8.730  0.4630  0.6925 -0.0164
   24SAPC  H16X 3240   0.106   3.292   8.760  0.9452 -1.8680  0.5863
   24SAPC  H16Y 3241   0.271   3.214   8.725 -1.6134 -0.8086  1.7064
   24SAPC  C317 3242   0.228   3.363   8.593 -0.2031 -0.2265 -0.5536
   24SAPC  H17X 3243   0.164   3.297   8.531  0.7204 -2.6578  0.9233
   24SAPC  H17Y 3244   0.329   3.350   8.548 -0.6880 -1.5033 -1.3382
   24SAPC  C318 3245   0.179   3.502   8.568  0.4748 -0.6783  0.1126
   24SAPC  H18X 3246   0.073   3.508   8.600  0.7931 -1.0721  1.2698
   24SAPC  H18Y 3247   0.196   3.527   8.461 -0.1259  0.1083  0.1849
   24SAPC  H18Z 3248   0.230   3.590   8.613 -0.4446 -0.3204  0.4916
   25SAPC     N 3249   1.890   6.574   6.086 -0.0708  0.0847  0.6172
   25SAPC   C12 3250   1.925   6.634   6.217 -1.1774 -0.2068  0.1701
   25SAPC  H12A 3251   1.856   6.614   6.298  1.3684 -0.2228  2.4629
   25SAPC  H12B 3252   1.935   6.742   6.215 -0.4037 -0.2664 -2.0107
   25SAPC   C13 3253   1.973   6.628   5.970 -0.8665 -0.1861 -0.8699
   25SAPC  H13A 3254   1.923   6.604   5.878 -1.0422 -1.0586 -0.5552
   25SAPC  H13B 3255   1.984   6.736   5.972 -0.1548 -0.1585  3.1670
   25SAPC  H13C 3256   2.077   6.600   5.977 -0.6012  0.9400 -0.0308
   25SAPC   C14 3257   1.900   6.424   6.088 -0.7702 -0.1764 -0.2769
   25SAPC  H14A 3258   1.832   6.385   6.162  0.0172 -0.1710  0.4671
   25SAPC  H14B 3259   1.877   6.383   5.991  1.8444 -2.4529 -0.0455
   25SAPC  H14C 3260   2.002   6.398   6.111 -0.2385 -0.5868 -2.8486
   25SAPC   C15 3261   1.745   6.612   6.050  0.1745  0.3264  0.2555
   25SAPC  H15A 3262   1.739   6.716   6.022  0.3738  0.1077 -0.6316
   25SAPC  H15B 3263   1.712   6.555   5.964 -1.0795 -1.8588  2.0634
   25SAPC  H15C 3264   1.667   6.598   6.123  0.3543 -0.7341  0.2637
   25SAPC   C11 3265   2.048   6.573   6.280  0.5121 -0.4849 -0.2738
   25SAPC  H11A 3266   2.039   6.464   6.298  0.3706 -0.5394 -0.6673
   25SAPC  H11B 3267   2.040   6.625   6.378 -2.0490 -0.1298 -0.6096
   25SAPC     P 3268   2.228   6.743   6.217 -0.1337 -0.2789 -0.0769
   25SAPC   O13 3269   2.312   6.779   6.103 -0.0496  0.6408  0.1967
   25SAPC   O14 3270   2.118   6.843   6.238 -0.3213  0.1848  0.1822
   25SAPC   O12 3271   2.163   6.603   6.198  0.6280  0.5000 -0.0968
   25SAPC   O11 3272   2.315   6.723   6.345 -0.3020  0.1928  0.0506
   25SAPC    C1 3273   2.365   6.600   6.400 -0.3409 -0.4131 -0.2126
   25SAPC    HA 3274   2.332   6.509   6.344  2.2839 -1.0543 -0.8479
   25SAPC    HB 3275   2.475   6.610   6.395 -0.2386  0.1934  2.2360
   25SAPC    C2 3276   2.325   6.579   6.543 -0.2068  0.6105  0.7324
   25SAPC    HS 3277   2.214   6.573   6.552 -0.3010  2.1132  0.8738
   25SAPC   O21 3278   2.373   6.684   6.632 -0.7596  0.4054  0.2232
   25SAPC   C21 3279   2.294   6.783   6.644  0.1743 -0.1548  0.2403
   25SAPC   O22 3280   2.180   6.797   6.601 -0.1112 -0.4070  0.4980
   25SAPC   C22 3281   2.373   6.891   6.714  0.6639  0.8582  0.2363
   25SAPC   H2R 3282   2.411   6.852   6.811 -0.1440  0.1498  0.2823
   25SAPC   H2S 3283   2.456   6.910   6.643  0.4029  4.9352  0.8042
   25SAPC    C3 3284   2.394   6.449   6.585 -0.3252 -0.0882 -0.4481
   25SAPC    HX 3285   2.503   6.472   6.591 -0.5254  0.5276  1.2948
   25SAPC    HY 3286   2.384   6.361   6.518  1.3823 -0.9673  0.3797
   25SAPC   O31 3287   2.349   6.411   6.714  0.4028  0.1885  0.4014
   25SAPC   C31 3288   2.255   6.315   6.717 -0.2737 -1.0059  0.0163
   25SAPC   O32 3289   2.220   6.251   6.619  0.4960 -0.2781  0.1183
   25SAPC   C32 3290   2.193   6.301   6.853  0.0391  0.4010 -0.4426
   25SAPC   H2X 3291   2.133   6.390   6.881  3.2893  1.2370  5.2272
   25SAPC   H2Y 3292   2.283   6.276   6.914 -1.1766 -0.9438  0.8633
   25SAPC   C23 3293   2.298   7.019   6.745 -0.1451 -0.3415  0.2094
   25SAPC   H3R 3294   2.193   7.009   6.779 -0.5623  0.0269 -0.9210
   25SAPC   H3S 3295   2.289   7.079   6.652  0.3807 -0.0970  0.3113
   25SAPC   C24 3296   2.371   7.120   6.845  0.0555 -0.2297 -0.3557
   25SAPC   H4R 3297   2.340   7.078   6.943  2.8196 -0.3614  0.5545
   25SAPC   H4S 3298   2.325   7.221   6.838 -0.7961 -0.4845  1.2276
   25SAPC   C25 3299   2.517   7.126   6.826 -0.3926  0.0387  0.5103
   25SAPC   H5R 3300   2.552   7.140   6.722  2.6395 -2.0485  1.1179
   25SAPC   C26 3301   2.612   7.095   6.917 -1.0529  0.0275 -0.3844
   25SAPC   H6R 3302   2.716   7.110   6.887 -0.7240  0.6746  0.9867
   25SAPC   C27 3303   2.594   7.055   7.065 -0.8320 -0.2841  0.8485
   25SAPC   H7R 3304   2.695   7.069   7.109 -0.6195 -0.4183  0.4091
   25SAPC   H7S 3305   2.562   6.949   7.074 -1.8249 -0.3291 -2.2355
   25SAPC   C28 3306   2.497   7.135   7.149 -0.3924  0.3309  0.6228
   25SAPC   H8R 3307   2.414   7.173   7.088 -0.2313 -1.8413 -1.0453
   25SAPC   C29 3308   2.502   7.166   7.284  0.4464 -0.4970  0.4502
   25SAPC   H9R 3309   2.421   7.226   7.329  2.2120  0.1280  3.0120
   25SAPC  C210 3310   2.607   7.121   7.380  0.5906 -0.0083  0.5648
   25SAPC  H10R 3311   2.637   7.199   7.453  0.0761  2.3088 -1.5829
   25SAPC  H10S 3312   2.697   7.106   7.316  1.0400  1.0790  0.9242
   25SAPC  C211 3313   2.567   6.989   7.447 -1.0226  0.2280 -0.3297
   25SAPC  H11R 3314   2.556   6.910   7.372 -0.2561 -0.5625  0.3592
   25SAPC  C212 3315   2.558   6.957   7.582  0.2296  0.5450  0.4193
   25SAPC  H12R 3316   2.541   6.853   7.613  1.4628  0.5101  1.0339
   25SAPC  C213 3317   2.566   7.050   7.698 -0.6475 -0.0550  0.4860
   25SAPC  H13R 3318   2.645   7.124   7.671 -0.1402 -0.5429  0.6373
   25SAPC  H13S 3319   2.601   6.987   7.782 -2.4301 -3.5596 -1.2114
   25SAPC  C214 3320   2.441   7.121   7.713  0.9698 -0.0533 -0.1888
   25SAPC  H14R 3321   2.394   7.158   7.620  0.2991 -0.8376 -0.1758
   25SAPC  C215 3322   2.370   7.140   7.826  0.3814  0.3951  0.4354
   25SAPC  H15R 3323   2.271   7.188   7.835 -0.8862 -1.5646 -2.0219
   25SAPC  C216 3324   2.419   7.091   7.956 -0.0378 -0.7084  0.2274
   25SAPC  H16R 3325   2.517   7.136   7.983  0.3308 -1.7499  0.6602
   25SAPC  H16S 3326   2.436   6.981   7.950  0.1760 -0.6950  0.5856
   25SAPC  C217 3327   2.308   7.105   8.060  1.0646 -0.1197  0.6566
   25SAPC  H17R 3328   2.319   7.056   8.159 -2.7519 -1.6559  0.4744
   25SAPC  H17S 3329   2.215   7.051   8.033  1.6613 -0.1927 -1.4533
   25SAPC  C218 3330   2.247   7.249   8.091 -0.0368  0.3069  0.0227
   25SAPC  H18R 3331   2.200   7.294   8.001 -2.2770 -2.4883 -0.3538
   25SAPC  H18S 3332   2.330   7.314   8.125  1.0889 -0.1294 -1.7581
   25SAPC  C219 3333   2.139   7.248   8.208  0.0635  0.6511 -0.5307
   25SAPC  H19R 3334   2.188   7.183   8.283 -1.5301  0.7431  0.6408
   25SAPC  H19S 3335   2.044   7.204   8.171  0.3778 -1.5260  1.0675
   25SAPC  C220 3336   2.109   7.383   8.271  0.0685 -0.0164 -0.3420
   25SAPC  H20R 3337   2.024   7.430   8.217  0.1363 -0.2481 -0.6545
   25SAPC  H20S 3338   2.207   7.436   8.271  1.4307 -2.3353 -0.3354
   25SAPC  H20T 3339   2.083   7.364   8.377  1.8068  1.0503  0.3259
   25SAPC   C33 3340   2.105   6.182   6.876 -0.0200 -0.1897  0.0775
   25SAPC   H3X 3341   2.153   6.089   6.838  0.7149  0.6504 -1.1182
   25SAPC   H3Y 3342   2.011   6.190   6.818  1.9991  1.2453 -3.3517
   25SAPC   C34 3343   2.056   6.171   7.023  0.1751 -0.0769  0.0777
   25SAPC   H4X 3344   2.020   6.270   7.057 -3.0627 -1.7552  1.9662
   25SAPC   H4Y 3345   2.138   6.140   7.092  0.4869  1.6488  0.5343
   25SAPC   C35 3346   1.929   6.078   7.033 -0.6032  0.1892  0.1343
   25SAPC   H5X 3347   1.982   5.986   6.999 -0.4512 -0.0380  0.9556
   25SAPC   H5Y 3348   1.842   6.099   6.968 -0.1055 -2.0163 -1.3528
   25SAPC   C36 3349   1.869   6.046   7.172  0.5350  0.3418  0.0636
   25SAPC   H6X 3350   1.784   5.977   7.151  0.6244 -0.1814  1.3214
   25SAPC   H6Y 3351   1.816   6.135   7.211  0.3653 -0.2646  1.2473
   25SAPC   C37 3352   1.959   5.993   7.284  0.1072  0.4477  0.3784
   25SAPC   H7X 3353   2.023   6.072   7.328 -1.5334  1.4026  1.1667
   25SAPC   H7Y 3354   2.028   5.929   7.225  1.4865  1.3273  1.0117
   25SAPC   C38 3355   1.884   5.919   7.396  0.0939 -0.0605  0.5660
   25SAPC   H8X 3356   1.966   5.894   7.467  0.4517 -0.2841  0.0872
   25SAPC   H8Y 3357   1.827   5.839   7.343  0.3696  0.5902 -0.7625
   25SAPC   C39 3358   1.779   6.016   7.466 -0.2980 -1.1368  0.2437
   25SAPC   H9X 3359   1.699   6.044   7.394  1.7796  0.5784 -1.5150
   25SAPC   H9Y 3360   1.839   6.103   7.500 -1.2120 -1.3324  2.5448
   25SAPC  C310 3361   1.716   5.947   7.588  0.1248  0.2970 -0.6307
   25SAPC  H10X 3362   1.805   5.927   7.651 -0.0266 -1.9837 -1.0378
   25SAPC  H10Y 3363   1.658   5.855   7.565 -1.8695  0.9698  1.4330
   25SAPC  C311 3364   1.621   6.051   7.657  0.5665  0.5375 -0.2498
   25SAPC  H11X 3365   1.663   6.145   7.697 -1.6968  1.7168 -0.4728
   25SAPC  H11Y 3366   1.580   5.997   7.745  0.2023  2.9602  1.1624
   25SAPC  C312 3367   1.495   6.092   7.571  0.5127  0.9267  0.3920
   25SAPC  H12X 3368   1.466   6.001   7.515 -0.4224  1.2084  0.3945
   25SAPC  H12Y 3369   1.533   6.158   7.490 -0.7564 -0.2004 -1.1891
   25SAPC  C313 3370   1.378   6.140   7.658  0.4269 -0.4540 -0.2393
   25SAPC  H13X 3371   1.313   6.196   7.587 -0.1476 -0.4653  0.2666
   25SAPC  H13Y 3372   1.426   6.211   7.728 -0.2613  1.2409 -1.4100
   25SAPC  C314 3373   1.300   6.029   7.740 -0.6120  0.2624  0.2790
   25SAPC  H14X 3374   1.343   5.932   7.709  0.1097  0.6366  0.0900
   25SAPC  H14Y 3375   1.191   6.037   7.718 -0.7936 -1.8817  0.2612
   25SAPC  C315 3376   1.307   6.053   7.894  0.2663 -0.0375 -0.0245
   25SAPC  H15X 3377   1.415   6.060   7.918 -0.0233  1.0139  1.0262
   25SAPC  H15Y 3378   1.277   5.958   7.944  0.3416  1.0544  2.2195
   25SAPC  C316 3379   1.230   6.174   7.943  0.4952 -0.0996  0.2567
   25SAPC  H16X 3380   1.162   6.140   8.024  0.4261 -1.7490 -0.4442
   25SAPC  H16Y 3381   1.169   6.221   7.863  1.9472  2.9874  0.8197
   25SAPC  C317 3382   1.323   6.290   7.991  0.2356  0.1338 -0.0656
   25SAPC  H17X 3383   1.260   6.381   7.996 -3.5413 -2.2296  0.0397
   25SAPC  H17Y 3384   1.415   6.303   7.930  0.0470 -1.4954 -0.7408
   25SAPC  C318 3385   1.377   6.258   8.127 -0.1417 -0.6934  0.2127
   25SAPC  H18X 3386   1.444   6.170   8.130  1.8874  0.7749  3.5666
   25SAPC  H18Y 3387   1.301   6.241   8.206 -0.8783  3.9357  0.7920
   25SAPC  H18Z 3388   1.430   6.349   8.161 -1.6505  0.2443  0.1576
   26SAPC     N 3389   1.191   2.602   5.910  0.0302 -0.2833 -0.0789
   26SAPC   C12 3390   1.224   2.504   6.028 -0.6541  0.3447  0.0298
   26SAPC  H12A 3391   1.324   2.522   6.063 -0.2621 -1.9112  0.2162
   26SAPC  H12B 3392   1.247   2.405   5.993 -0.5125  0.8963 -1.4970
   26SAPC   C13 3393   1.160   2.738   5.972  0.5986  0.2421 -0.0897
   26SAPC  H13A 3394   1.062   2.727   6.015  1.9547 -0.1058  3.1985
   26SAPC  H13B 3395   1.238   2.772   6.038 -0.0664 -0.9318  1.3598
   26SAPC  H13C 3396   1.162   2.803   5.885  0.9151  1.5272  0.8599
   26SAPC   C14 3397   1.306   2.615   5.813 -0.2932  0.2159 -0.2281
   26SAPC  H14A 3398   1.334   2.518   5.774  1.1188  0.4438  0.1354
   26SAPC  H14B 3399   1.270   2.681   5.736 -1.9816 -0.7989 -0.3565
   26SAPC  H14C 3400   1.403   2.646   5.849  0.1701  0.8105 -1.9232
   26SAPC   C15 3401   1.079   2.546   5.841  0.1822 -0.2585  0.4972
   26SAPC  H15A 3402   0.997   2.537   5.910  0.4835 -0.0121  0.8875
   26SAPC  H15B 3403   1.034   2.604   5.761 -0.5972  0.2577  1.2918
   26SAPC  H15C 3404   1.095   2.447   5.801 -1.5798  0.6004 -2.6811
   26SAPC   C11 3405   1.130   2.499   6.154 -0.0971  0.4176 -0.0154
   26SAPC  H11A 3406   1.123   2.599   6.202 -0.5417 -1.4424  4.2796
   26SAPC  H11B 3407   1.180   2.449   6.239  1.0362  0.7860 -0.4456
   26SAPC     P 3408   0.869   2.507   6.148  0.5456 -0.0504 -0.4004
   26SAPC   O13 3409   0.859   2.633   6.074 -0.0681 -0.6171  0.0412
   26SAPC   O14 3410   0.776   2.394   6.118 -0.6472  0.9522  0.2395
   26SAPC   O12 3411   1.003   2.444   6.113  0.2637  0.8552 -0.0701
   26SAPC   O11 3412   0.878   2.534   6.305  0.1015 -0.0875  0.0600
   26SAPC    C1 3413   0.900   2.430   6.400  0.3829  0.4531  0.5638
   26SAPC    HA 3414   0.842   2.340   6.374  0.4144  0.3618  0.8039
   26SAPC    HB 3415   1.007   2.400   6.396  0.1438 -0.3056 -0.5583
   26SAPC    C2 3416   0.860   2.458   6.547  0.1610 -0.4427  0.1562
   26SAPC    HS 3417   0.752   2.482   6.543  0.4630  0.7834 -2.7824
   26SAPC   O21 3418   0.931   2.580   6.599  0.1034  0.5263 -0.1199
   26SAPC   C21 3419   0.853   2.681   6.624  0.4699 -0.0025 -0.1694
   26SAPC   O22 3420   0.735   2.697   6.594 -0.5319  0.2150  0.0929
   26SAPC   C22 3421   0.925   2.784   6.716 -0.1160 -0.5262  0.1332
   26SAPC   H2R 3422   1.033   2.761   6.709  0.4874  2.0478 -0.0364
   26SAPC   H2S 3423   0.916   2.882   6.665  3.5495 -0.5721 -0.8850
   26SAPC    C3 3424   0.867   2.328   6.628 -0.2815  0.7494 -0.7818
   26SAPC    HX 3425   0.976   2.307   6.617  0.4273  1.8897  2.7759
   26SAPC    HY 3426   0.809   2.252   6.572 -1.2154  2.4171 -2.1608
   26SAPC   O31 3427   0.828   2.343   6.768 -0.0357 -0.3856  0.2819
   26SAPC   C31 3428   0.870   2.251   6.846  0.1666 -0.1204 -1.2351
   26SAPC   O32 3429   0.930   2.148   6.823  0.5557 -0.0523  0.4498
   26SAPC   C32 3430   0.841   2.306   6.986  0.4909 -0.1009  0.6810
   26SAPC   H2X 3431   0.734   2.336   6.990  1.0773  2.0697  1.8900
   26SAPC   H2Y 3432   0.896   2.398   7.015 -0.2063  0.0946  1.4344
   26SAPC   C23 3433   0.887   2.788   6.866  0.1989 -0.0651  0.5849
   26SAPC   H3R 3434   0.962   2.833   6.934 -1.3446  0.3445  2.0815
   26SAPC   H3S 3435   0.877   2.685   6.908 -0.9855 -0.1236  0.2053
   26SAPC   C24 3436   0.754   2.864   6.894 -0.0461  0.5912  0.1682
   26SAPC   H4R 3437   0.691   2.852   6.803 -0.0241 -0.2780  0.2574
   26SAPC   H4S 3438   0.776   2.971   6.915  1.0964  0.2459  0.8013
   26SAPC   C25 3439   0.674   2.804   7.006 -0.4630 -0.2855  0.7318
   26SAPC   H5R 3440   0.596   2.733   6.975 -1.1125  0.2665  1.0897
   26SAPC   C26 3441   0.682   2.834   7.136  0.0909 -0.5251 -0.3694
   26SAPC   H6R 3442   0.634   2.772   7.214 -1.2656 -0.0383 -0.7846
   26SAPC   C27 3443   0.770   2.934   7.203 -0.4657  0.4429  0.4146
   26SAPC   H7R 3444   0.854   2.962   7.135  0.1787 -2.0372  0.0942
   26SAPC   H7S 3445   0.810   2.888   7.296  2.8356 -1.7331 -1.8369
   26SAPC   C28 3446   0.685   3.054   7.223  0.3279 -0.0865 -0.2143
   26SAPC   H8R 3447   0.581   3.050   7.187  0.8270  0.9464 -1.8930
   26SAPC   C29 3448   0.712   3.163   7.294  0.2354 -0.3132 -0.0561
   26SAPC   H9R 3449   0.644   3.248   7.305  1.6264  1.1474 -1.9147
   26SAPC  C210 3450   0.841   3.195   7.362 -0.2056 -0.1053 -0.8699
   26SAPC  H10R 3451   0.836   3.304   7.385  0.3599 -0.2577  0.0355
   26SAPC  H10S 3452   0.928   3.176   7.296  0.3228  0.1259 -0.2509
   26SAPC  C211 3453   0.868   3.115   7.492  0.6324  0.3098 -0.0507
   26SAPC  H11R 3454   0.856   3.006   7.483  0.3882  0.3618 -0.3400
   26SAPC  C212 3455   0.891   3.157   7.626  0.7901  0.4561  0.2815
   26SAPC  H12R 3456   0.902   3.084   7.708 -0.9245  1.1319  1.1594
   26SAPC  C213 3457   0.898   3.301   7.665  0.5325 -0.6080  0.4666
   26SAPC  H13R 3458   0.803   3.320   7.719  0.5048  1.9837 -0.3498
   26SAPC  H13S 3459   0.907   3.371   7.579  1.3270 -0.0157  1.0101
   26SAPC  C214 3460   1.015   3.333   7.746 -0.2175  0.5836  0.7684
   26SAPC  H14R 3461   1.098   3.379   7.690 -0.1830  0.1837  0.4907
   26SAPC  C215 3462   1.020   3.305   7.882 -0.5709  0.0733  0.5673
   26SAPC  H15R 3463   1.111   3.334   7.936 -0.3102  2.7661 -1.1173
   26SAPC  C216 3464   0.909   3.234   7.963 -0.0466 -0.2771 -0.4283
   26SAPC  H16R 3465   0.920   3.123   7.959 -0.5923 -0.3129 -1.1202
   26SAPC  H16S 3466   0.809   3.249   7.919 -2.1942 -4.2136  2.5112
   26SAPC  C217 3467   0.875   3.293   8.098  0.2611 -0.8036  0.0824
   26SAPC  H17R 3468   0.849   3.398   8.070 -1.0958 -1.7050 -2.2956
   26SAPC  H17S 3469   0.960   3.295   8.170 -0.2249  2.3662  0.7079
   26SAPC  C218 3470   0.753   3.226   8.175 -0.2385  0.0760 -0.1776
   26SAPC  H18R 3471   0.672   3.205   8.102  1.6741 -0.1978 -2.3450
   26SAPC  H18S 3472   0.712   3.306   8.241  1.7764  2.8248 -2.0579
   26SAPC  C219 3473   0.793   3.103   8.262  0.5789  1.1734  0.8199
   26SAPC  H19R 3474   0.884   3.137   8.315  0.6901  0.2734  1.2091
   26SAPC  H19S 3475   0.828   3.016   8.203  1.6767  1.2332  1.3574
   26SAPC  C220 3476   0.685   3.060   8.360  0.0973  0.0376  0.0364
   26SAPC  H20R 3477   0.732   2.979   8.419  0.2351 -0.0546 -0.2014
   26SAPC  H20S 3478   0.591   3.015   8.320 -1.0712 -0.5933  3.1823
   26SAPC  H20T 3479   0.648   3.143   8.424 -0.1657  1.6835 -2.1233
   26SAPC   C33 3480   0.850   2.197   7.097  0.5412 -0.2307 -0.0351
   26SAPC   H3X 3481   0.858   2.245   7.197  2.5856 -0.2501 -0.1428
   26SAPC   H3Y 3482   0.949   2.147   7.083  0.3482 -0.3467 -1.0530
   26SAPC   C34 3483   0.738   2.095   7.095 -0.3586 -0.4404 -0.6643
   26SAPC   H4X 3484   0.759   2.050   6.996 -0.4819  1.8470 -1.7976
   26SAPC   H4Y 3485   0.636   2.141   7.100 -0.2587 -0.3380  1.0037
   26SAPC   C35 3486   0.758   1.987   7.197 -0.1062  0.2736 -0.4704
   26SAPC   H5X 3487   0.859   1.943   7.186  0.1071  0.9558 -1.2347
   26SAPC   H5Y 3488   0.688   1.900   7.191  1.7984 -1.3592 -0.1519
   26SAPC   C36 3489   0.766   2.024   7.343 -0.7377  0.4614  0.2365
   26SAPC   H6X 3490   0.676   2.075   7.384 -0.5198  0.7939  0.3037
   26SAPC   H6Y 3491   0.855   2.084   7.374  1.3601 -2.6863  0.7141
   26SAPC   C37 3492   0.774   1.903   7.440  0.0173  0.0560 -0.2740
   26SAPC   H7X 3493   0.864   1.852   7.400  0.9551  1.6625 -0.2574
   26SAPC   H7Y 3494   0.684   1.838   7.430  0.0825  0.0774 -1.0821
   26SAPC   C38 3495   0.798   1.956   7.584  0.1908 -0.2656  0.2102
   26SAPC   H8X 3496   0.713   2.019   7.619  1.1809  0.8326  0.6960
   26SAPC   H8Y 3497   0.882   2.029   7.578 -1.0738  1.2140 -0.0757
   26SAPC   C39 3498   0.820   1.837   7.677 -0.1984 -0.2755 -0.7644
   26SAPC   H9X 3499   0.893   1.760   7.643 -0.0738 -0.3759 -0.2777
   26SAPC   H9Y 3500   0.724   1.783   7.693 -0.3695  0.5909  1.5270
   26SAPC  C310 3501   0.863   1.888   7.821 -0.4543 -0.1504  0.4253
   26SAPC  H10X 3502   0.827   1.815   7.897 -0.4270  0.2440  0.8204
   26SAPC  H10Y 3503   0.809   1.983   7.841  0.0789  0.7676 -2.1177
   26SAPC  C311 3504   1.011   1.898   7.853  0.3759 -0.1318  0.1436
   26SAPC  H11X 3505   1.040   1.976   7.780  0.0701 -1.3432 -1.3332
   26SAPC  H11Y 3506   1.046   1.793   7.843 -0.6915 -0.3570 -1.6316
   26SAPC  C312 3507   1.044   1.939   7.996 -0.2925  0.4722 -0.3209
   26SAPC  H12X 3508   1.154   1.928   8.010 -0.2245  2.4025  0.9533
   26SAPC  H12Y 3509   0.991   1.875   8.069  3.9258 -0.9356  1.8848
   26SAPC  C313 3510   1.010   2.085   8.033  0.1642 -0.2018  0.0318
   26SAPC  H13X 3511   0.901   2.089   8.055  0.4735  1.6175  1.5115
   26SAPC  H13Y 3512   1.029   2.152   7.946  0.2468 -1.1444 -0.6878
   26SAPC  C314 3513   1.070   2.116   8.172  0.3779 -0.0791 -0.3747
   26SAPC  H14X 3514   1.181   2.111   8.173  0.3418 -1.0750 -0.2563
   26SAPC  H14Y 3515   1.032   2.037   8.239  2.6195 -1.6086 -0.7882
   26SAPC  C315 3516   1.028   2.242   8.248 -0.6365 -0.1753 -0.7403
   26SAPC  H15X 3517   0.920   2.261   8.233 -0.0857  3.4952 -0.8394
   26SAPC  H15Y 3518   1.076   2.326   8.193  2.2927 -0.9998  0.3724
   26SAPC  C316 3519   1.085   2.250   8.390 -0.2492  0.1210 -0.0360
   26SAPC  H16X 3520   1.191   2.217   8.382 -0.6107 -1.1913  0.4520
   26SAPC  H16Y 3521   1.029   2.179   8.455  0.0211  2.3763  2.9110
   26SAPC  C317 3522   1.079   2.391   8.449 -0.0596 -0.1993 -0.7874
   26SAPC  H17X 3523   1.054   2.391   8.557 -1.6800  1.4176 -1.1205
   26SAPC  H17Y 3524   0.993   2.442   8.402 -0.1750  0.0581 -0.3031
   26SAPC  C318 3525   1.204   2.482   8.437  0.8611  0.5328  0.5033
   26SAPC  H18X 3526   1.272   2.443   8.515 -0.3395 -2.4358  0.2028
   26SAPC  H18Y 3527   1.186   2.592   8.443  0.3780  0.4467  0.6417
   26SAPC  H18Z 3528   1.252   2.464   8.338  0.2605 -0.5368  0.3923
   27SAPC     N 3529   4.657   1.997   6.243  0.0583 -0.2398  0.1172
   27SAPC   C12 3530   4.594   1.899   6.341  0.8024  0.2178 -0.0071
   27SAPC  H12A 3531   4.649   1.806   6.345  0.0740 -0.2113  0.2558
   27SAPC  H12B 3532   4.501   1.879   6.290  0.3586  0.2463  0.7660
   27SAPC   C13 3533   4.575   2.112   6.208  0.0133  0.4353 -0.8024
   27SAPC  H13A 3534   4.550   2.162   6.301 -0.5125  0.5948 -1.0299
   27SAPC  H13B 3535   4.640   2.182   6.157 -0.2781  1.5786  0.3357
   27SAPC  H13C 3536   4.481   2.086   6.161  0.0077  1.4719 -1.3888
   27SAPC   C14 3537   4.778   2.058   6.308 -0.5847  0.1784  0.0847
   27SAPC  H14A 3538   4.842   1.976   6.338 -0.6073 -0.9504 -2.6871
   27SAPC  H14B 3539   4.821   2.137   6.248 -0.0224 -0.6055 -0.5664
   27SAPC  H14C 3540   4.746   2.105   6.400 -0.3921 -2.0336  1.3374
   27SAPC   C15 3541   4.697   1.930   6.113  0.8591 -0.2480  0.5492
   27SAPC  H15A 3542   4.611   1.887   6.064  0.2346  1.0430  0.4790
   27SAPC  H15B 3543   4.730   2.002   6.041 -1.7273 -0.3584 -0.8658
   27SAPC  H15C 3544   4.772   1.854   6.133 -0.4429 -1.0121  2.9673
   27SAPC   C11 3545   4.564   1.944   6.485 -0.0996 -0.1408 -0.1897
   27SAPC  H11A 3546   4.657   1.949   6.545 -1.1820  2.5257  1.4750
   27SAPC  H11B 3547   4.501   1.867   6.536  1.5264  0.4310  2.9497
   27SAPC     P 3548   4.505   2.177   6.592  0.1205 -0.0211  0.0382
   27SAPC   O13 3549   4.641   2.227   6.578  0.0361 -0.7893 -0.0977
   27SAPC   O14 3550   4.394   2.269   6.569 -0.5328  0.1259  0.0431
   27SAPC   O12 3551   4.487   2.063   6.487 -0.7655 -0.0264 -0.6121
   27SAPC   O11 3552   4.493   2.116   6.735  0.0631  0.0386  0.0075
   27SAPC    C1 3553   4.374   2.045   6.775 -0.3353 -0.4949 -1.1748
   27SAPC    HA 3554   4.294   2.113   6.811 -0.9045 -2.1115  0.8011
   27SAPC    HB 3555   4.330   1.978   6.698 -0.3863 -2.2120  0.2829
   27SAPC    C2 3556   4.408   1.951   6.898  0.2457 -0.0998  0.2310
   27SAPC    HS 3557   4.324   1.879   6.904  0.2378 -0.3121 -1.8951
   27SAPC   O21 3558   4.413   2.035   7.014 -0.1450 -0.0846 -0.5198
   27SAPC   C21 3559   4.393   1.972   7.128  0.2775 -0.0358 -0.3193
   27SAPC   O22 3560   4.355   1.857   7.144  0.1867 -0.0327 -0.5169
   27SAPC   C22 3561   4.389   2.083   7.241 -0.4555  0.3516  0.4346
   27SAPC   H2R 3562   4.490   2.127   7.224  0.8230 -2.9347 -1.4378
   27SAPC   H2S 3563   4.314   2.160   7.212  0.3915  0.5759 -1.2659
   27SAPC    C3 3564   4.541   1.873   6.874  0.6767 -0.2922  0.1063
   27SAPC    HX 3565   4.624   1.944   6.852 -0.6201  0.8872 -1.2174
   27SAPC    HY 3566   4.531   1.808   6.784  2.5306 -0.8319  0.2517
   27SAPC   O31 3567   4.589   1.804   6.991  0.0264  0.2040 -0.5807
   27SAPC   C31 3568   4.544   1.680   7.007  0.2284 -0.4123  0.2578
   27SAPC   O32 3569   4.473   1.619   6.933  0.5937 -0.2483  0.6298
   27SAPC   C32 3570   4.608   1.628   7.137 -0.1599  0.2012 -1.2817
   27SAPC   H2X 3571   4.652   1.719   7.184  0.2258  0.3186 -1.8652
   27SAPC   H2Y 3572   4.688   1.558   7.104 -0.1855 -0.6010  0.2240
   27SAPC   C23 3573   4.373   2.018   7.376 -1.0460  0.0732  0.0666
   27SAPC   H3R 3574   4.432   1.924   7.385 -4.0220 -2.0335 -1.0867
   27SAPC   H3S 3575   4.267   1.986   7.379 -1.6592  1.7137 -2.0453
   27SAPC   C24 3576   4.408   2.107   7.501 -0.1057  1.1385 -0.0333
   27SAPC   H4R 3577   4.515   2.128   7.484  0.1176 -1.8446 -3.5341
   27SAPC   H4S 3578   4.404   2.036   7.587  1.1456 -1.4897 -2.0214
   27SAPC   C25 3579   4.311   2.224   7.504 -0.1064 -0.4108 -0.5308
   27SAPC   H5R 3580   4.299   2.276   7.408  1.8020 -1.4277 -1.3768
   27SAPC   C26 3581   4.252   2.263   7.613  0.2026 -0.3182 -0.0648
   27SAPC   H6R 3582   4.165   2.330   7.603 -2.6632 -3.9990 -1.8644
   27SAPC   C27 3583   4.259   2.213   7.757  0.2307  0.4252  0.1722
   27SAPC   H7R 3584   4.263   2.306   7.818  2.3097  0.1815  0.4688
   27SAPC   H7S 3585   4.360   2.169   7.774 -0.1003 -0.2810  0.3691
   27SAPC   C28 3586   4.154   2.110   7.794  1.0838  0.6515 -0.3712
   27SAPC   H8R 3587   4.071   2.102   7.723  0.8933  2.8277 -0.4638
   27SAPC   C29 3588   4.150   2.016   7.896  0.2288  0.1366  0.2385
   27SAPC   H9R 3589   4.059   1.954   7.902  0.7872 -0.6705  0.5139
   27SAPC  C210 3590   4.257   1.983   7.998  0.5925 -0.4881  0.3001
   27SAPC  H10R 3591   4.224   2.006   8.101  1.9063 -2.6968  1.2880
   27SAPC  H10S 3592   4.357   2.031   7.985  0.4279 -0.3360 -0.4671
   27SAPC  C211 3593   4.286   1.835   7.989  0.0046  0.0540 -0.1418
   27SAPC  H11R 3594   4.251   1.772   7.907 -1.0688 -0.3277  0.5853
   27SAPC  C212 3595   4.366   1.770   8.078  0.4604 -1.0264 -0.1515
   27SAPC  H12R 3596   4.398   1.667   8.055 -0.7382 -1.3268 -0.5834
   27SAPC  C213 3597   4.437   1.837   8.196  0.3384 -0.0324  0.2222
   27SAPC  H13R 3598   4.439   1.948   8.200 -3.6090  0.1538  0.8770
   27SAPC  H13S 3599   4.545   1.810   8.195  0.2354 -0.7302  2.8119
   27SAPC  C214 3600   4.374   1.797   8.328  0.0883 -0.2537  0.8477
   27SAPC  H14R 3601   4.294   1.722   8.323  0.5757 -0.7131 -0.3967
   27SAPC  C215 3602   4.417   1.827   8.450  0.0050 -0.0192 -0.9956
   27SAPC  H15R 3603   4.348   1.792   8.529 -0.9980 -0.4441 -2.0233
   27SAPC  C216 3604   4.543   1.909   8.486  0.0302 -0.3892 -0.1400
   27SAPC  H16R 3605   4.612   1.903   8.398  0.0301 -1.8464 -0.0499
   27SAPC  H16S 3606   4.601   1.858   8.566 -1.9445 -1.0458  0.9305
   27SAPC  C217 3607   4.502   2.054   8.520  0.1378  0.2819  0.5559
   27SAPC  H17R 3608   4.449   2.053   8.618  3.4725 -3.4750  2.6749
   27SAPC  H17S 3609   4.437   2.090   8.438 -0.5699  0.6229  1.2567
   27SAPC  C218 3610   4.619   2.154   8.538  0.7841 -0.8206  0.4885
   27SAPC  H18R 3611   4.697   2.121   8.466 -0.7460  2.5410 -3.1002
   27SAPC  H18S 3612   4.642   2.142   8.646 -0.6196  2.6574  1.2933
   27SAPC  C219 3613   4.579   2.298   8.504 -0.3455 -0.4946  0.5079
   27SAPC  H19R 3614   4.662   2.362   8.540 -0.2561  1.3789 -2.6387
   27SAPC  H19S 3615   4.488   2.332   8.558  0.3763  0.7131  0.9907
   27SAPC  C220 3616   4.570   2.315   8.358 -0.2995  0.3126  0.0637
   27SAPC  H20R 3617   4.675   2.310   8.322  0.2260 -1.1296  1.6857
   27SAPC  H20S 3618   4.513   2.408   8.339 -0.6130  0.6130  2.2235
   27SAPC  H20T 3619   4.514   2.225   8.324  0.8053 -1.6989  3.0748
   27SAPC   C33 3620   4.513   1.569   7.242  0.1135 -0.0147  0.5890
   27SAPC   H3X 3621   4.445   1.499   7.189 -0.1986  0.9525 -0.3292
   27SAPC   H3Y 3622   4.453   1.654   7.281 -1.0997 -0.0291 -1.1585
   27SAPC   C34 3623   4.585   1.489   7.350 -0.2059  0.3921  0.4283
   27SAPC   H4X 3624   4.652   1.414   7.304 -1.2474  0.9375 -2.1256
   27SAPC   H4Y 3625   4.502   1.437   7.403  1.4875 -2.2927  0.6370
   27SAPC   C35 3626   4.667   1.578   7.436 -0.1180 -0.2088 -0.6192
   27SAPC   H5X 3627   4.610   1.670   7.462  1.2528  0.1940  1.2510
   27SAPC   H5Y 3628   4.757   1.614   7.381  0.0807  0.1248 -0.0932
   27SAPC   C36 3629   4.707   1.504   7.564 -0.2703  0.1281 -0.6109
   27SAPC   H6X 3630   4.690   1.397   7.542  1.1266 -0.3878  0.6195
   27SAPC   H6Y 3631   4.646   1.533   7.652 -1.2517 -0.2724 -1.1438
   27SAPC   C37 3632   4.856   1.526   7.590 -1.0206 -0.4560  0.0444
   27SAPC   H7X 3633   4.874   1.635   7.577 -2.0021 -0.0272  1.8715
   27SAPC   H7Y 3634   4.905   1.467   7.509 -1.0399  0.7651 -0.8905
   27SAPC   C38 3635   4.914   1.485   7.724 -0.0077  0.0363 -0.3086
   27SAPC   H8X 3636   4.907   1.374   7.729 -2.6394  0.1383 -0.3828
   27SAPC   H8Y 3637   4.846   1.508   7.809 -0.5805  2.5393 -1.3509
   27SAPC   C39 3638   5.065   1.521   7.754  1.0245  0.2981 -0.0495
   27SAPC   H9X 3639   5.071   1.511   7.864  0.4566 -1.0676 -0.1345
   27SAPC   H9Y 3640   5.072   1.629   7.728  0.8372  0.1654 -0.6764
   27SAPC  C310 3641   5.171   1.447   7.690 -0.4494 -0.3662 -0.3926
   27SAPC  H10X 3642   5.269   1.489   7.720 -0.5343 -0.6536  0.3268
   27SAPC  H10Y 3643   5.173   1.487   7.587  2.0710  2.5052  0.6114
   27SAPC  C311 3644   5.178   1.296   7.706 -0.5359 -0.2804 -0.4601
   27SAPC  H11X 3645   5.277   1.262   7.669  1.0288  0.1981  2.9222
   27SAPC  H11Y 3646   5.090   1.255   7.652 -2.1215  1.7250  0.4387
   27SAPC  C312 3647   5.173   1.264   7.864  0.0686  0.8655  0.4595
   27SAPC  H12X 3648   5.073   1.288   7.905 -0.2247  0.9386 -0.2779
   27SAPC  H12Y 3649   5.261   1.306   7.917  0.7014 -2.5145  2.4068
   27SAPC  C313 3650   5.183   1.107   7.873  0.1109  0.4285  0.2263
   27SAPC  H13X 3651   5.276   1.069   7.826  0.8961  0.6748  1.5454
   27SAPC  H13Y 3652   5.091   1.066   7.825  1.4202  0.4626 -2.5143
   27SAPC  C314 3653   5.184   1.079   8.025  0.0710  0.2109  0.3491
   27SAPC  H14X 3654   5.089   1.125   8.062 -1.0682 -1.1750 -0.7396
   27SAPC  H14Y 3655   5.273   1.133   8.064  0.6340 -0.9585  0.7102
   27SAPC  C315 3656   5.174   0.928   8.058 -0.6617 -0.1882 -0.2085
   27SAPC  H15X 3657   5.274   0.883   8.041 -0.9013 -0.1932 -1.7130
   27SAPC  H15Y 3658   5.102   0.888   7.983 -0.6972  1.4276 -1.0686
   27SAPC  C316 3659   5.125   0.897   8.197  0.3375 -0.0548  0.0811
   27SAPC  H16X 3660   5.016   0.878   8.188  0.1919 -0.1634  1.6689
   27SAPC  H16Y 3661   5.139   0.982   8.267  1.4829 -0.7233  0.6945
   27SAPC  C317 3662   5.185   0.770   8.255 -0.3342  0.0708  0.0280
   27SAPC  H17X 3663   5.137   0.761   8.355  0.9228 -1.1530  0.5576
   27SAPC  H17Y 3664   5.287   0.787   8.296 -1.0829  0.7105  1.7292
   27SAPC  C318 3665   5.180   0.637   8.171 -0.0376  0.5351  0.1416
   27SAPC  H18X 3666   5.079   0.618   8.131  0.0248 -0.5283  0.4707
   27SAPC  H18Y 3667   5.218   0.549   8.227 -0.5452  0.2342  0.0097
   27SAPC  H18Z 3668   5.247   0.655   8.085 -1.0092  0.2430 -0.6890
   28SAPC     N 3669   3.655   6.768   6.251 -0.8010 -0.7127 -0.5892
   28SAPC   C12 3670   3.779   6.673   6.236 -0.8016  0.6012 -0.6127
   28SAPC  H12A 3671   3.787   6.639   6.134 -2.1249 -0.2827 -0.4380
   28SAPC  H12B 3672   3.756   6.586   6.296 -0.2743  1.2974  0.6596
   28SAPC   C13 3673   3.676   6.870   6.145  0.2369 -0.3386  0.2752
   28SAPC  H13A 3674   3.764   6.928   6.168 -0.8450  2.2591 -1.6022
   28SAPC  H13B 3675   3.686   6.825   6.047  2.1257 -0.2173  0.3667
   28SAPC  H13C 3676   3.587   6.928   6.130  0.9723  0.1733 -2.9601
   28SAPC   C14 3677   3.528   6.680   6.241  0.3055 -0.5893 -0.2489
   28SAPC  H14A 3678   3.548   6.594   6.178 -1.0768  0.4307 -2.1660
   28SAPC  H14B 3679   3.496   6.638   6.335 -1.0998 -0.7397 -0.7809
   28SAPC  H14C 3680   3.437   6.729   6.211  0.3117  0.6884  1.6294
   28SAPC   C15 3681   3.651   6.844   6.374 -0.0378 -0.7744 -0.1453
   28SAPC  H15A 3682   3.748   6.891   6.384 -0.3179  0.0937 -1.2421
   28SAPC  H15B 3683   3.579   6.925   6.367  1.1425  0.3520  0.3988
   28SAPC  H15C 3684   3.622   6.778   6.454 -2.8887 -0.8525 -1.1067
   28SAPC   C11 3685   3.912   6.720   6.302 -0.7899 -0.9675 -0.6311
   28SAPC  H11A 3686   3.991   6.642   6.290 -1.8969 -2.3543  0.7006
   28SAPC  H11B 3687   3.895   6.731   6.411 -0.1936  1.0854 -0.7012
   28SAPC     P 3688   4.038   6.948   6.307 -0.2635 -0.1587 -0.0815
   28SAPC   O13 3689   4.147   6.975   6.212 -0.5273 -0.0039  1.0440
   28SAPC   O14 3690   3.945   7.059   6.328 -0.1719  0.7972 -0.2689
   28SAPC   O12 3691   3.951   6.835   6.239  0.5298 -0.3530 -0.4771
   28SAPC   O11 3692   4.102   6.897   6.444  0.7156  0.0053 -0.2978
   28SAPC    C1 3693   4.213   6.807   6.436  0.0917 -0.0831 -0.1853
   28SAPC    HA 3694   4.222   6.764   6.334  2.5985 -1.4018  0.5204
   28SAPC    HB 3695   4.305   6.866   6.454  0.4541 -1.0501  1.2081
   28SAPC    C2 3696   4.210   6.699   6.546 -0.2061 -0.0568  0.8366
   28SAPC    HS 3697   4.109   6.653   6.552 -0.6236  0.6069 -0.6892
   28SAPC   O21 3698   4.242   6.770   6.669  0.1370 -0.2437  0.2783
   28SAPC   C21 3699   4.139   6.830   6.724  0.1719  0.1049  1.1034
   28SAPC   O22 3700   4.022   6.816   6.700  0.5492  0.1879  0.1836
   28SAPC   C22 3701   4.188   6.921   6.834 -0.2501  0.8680  0.7235
   28SAPC   H2R 3702   4.285   6.885   6.876 -0.4403 -1.1572 -0.4405
   28SAPC   H2S 3703   4.201   7.023   6.790  2.7338  0.4472  0.3616
   28SAPC    C3 3704   4.316   6.594   6.513 -0.5294 -0.4335  0.0458
   28SAPC    HX 3705   4.412   6.642   6.485  0.1904 -2.3990 -1.0707
   28SAPC    HY 3706   4.289   6.522   6.433 -1.0211 -0.5382  0.3012
   28SAPC   O31 3707   4.341   6.518   6.634 -0.4850  0.2664  0.2205
   28SAPC   C31 3708   4.257   6.423   6.656  0.0751  0.3886  0.2525
   28SAPC   O32 3709   4.162   6.395   6.581  0.0395 -0.1694 -0.4330
   28SAPC   C32 3710   4.288   6.362   6.788  0.5906 -0.3504 -0.2565
   28SAPC   H2X 3711   4.398   6.369   6.799  0.7916  0.4173 -2.3406
   28SAPC   H2Y 3712   4.270   6.252   6.780  0.7686 -0.2838 -1.7820
   28SAPC   C23 3713   4.095   6.924   6.954 -0.6330 -0.2954  0.1183
   28SAPC   H3R 3714   4.066   6.820   6.982 -2.2643 -0.8708 -3.1607
   28SAPC   H3S 3715   4.003   6.977   6.919 -1.0985 -1.7086 -0.9378
   28SAPC   C24 3716   4.156   7.001   7.073  0.8512  0.3414  0.1974
   28SAPC   H4R 3717   4.233   7.070   7.032 -0.9090  0.4734 -3.2793
   28SAPC   H4S 3718   4.072   7.058   7.116  1.2832  0.4411  0.9255
   28SAPC   C25 3719   4.220   6.913   7.177  0.7895 -0.7401 -0.2458
   28SAPC   H5R 3720   4.226   6.807   7.148 -0.9781 -0.6266 -1.1228
   28SAPC   C26 3721   4.247   6.950   7.303  0.7449 -0.1295 -0.4091
   28SAPC   H6R 3722   4.277   6.872   7.375  0.8380  0.2316 -0.0593
   28SAPC   C27 3723   4.210   7.087   7.361 -0.2898  0.7101  0.2740
   28SAPC   H7R 3724   4.194   7.163   7.282 -2.1161  0.0538 -0.0456
   28SAPC   H7S 3725   4.293   7.130   7.420 -0.8913  0.5780  1.2492
   28SAPC   C28 3726   4.078   7.082   7.431  0.7009  0.0717  0.1808
   28SAPC   H8R 3727   3.996   7.112   7.363 -0.9987 -0.6626  1.8179
   28SAPC   C29 3728   4.050   7.068   7.562 -0.4924  0.9012  0.0248
   28SAPC   H9R 3729   3.952   7.074   7.610 -0.1413  1.6204  0.6727
   28SAPC  C210 3730   4.151   7.040   7.671 -0.0782  0.5245 -0.0184
   28SAPC  H10R 3731   4.123   7.109   7.754  0.0518  1.1157 -0.4597
   28SAPC  H10S 3732   4.250   7.070   7.631  1.0714  1.7238  3.3888
   28SAPC  C211 3733   4.155   6.893   7.699  0.3089  0.8262  0.6318
   28SAPC  H11R 3734   4.169   6.829   7.610 -1.5382 -3.7395  3.2884
   28SAPC  C212 3735   4.149   6.828   7.818  0.0669  0.2697  0.4724
   28SAPC  H12R 3736   4.172   6.721   7.821  0.4034  0.3545  2.6502
   28SAPC  C213 3737   4.137   6.895   7.955  0.4597  0.5996  0.7299
   28SAPC  H13R 3738   4.149   7.006   7.955  2.5822  0.4566 -0.9568
   28SAPC  H13S 3739   4.215   6.848   8.019 -0.6728 -2.7594 -0.1542
   28SAPC  C214 3740   4.003   6.854   8.017  0.4823  0.9174 -0.0065
   28SAPC  H14R 3741   3.933   6.828   7.936  1.4197 -1.4109 -0.1569
   28SAPC  C215 3742   3.973   6.875   8.148  0.2076  1.2740 -0.6618
   28SAPC  H15R 3743   3.870   6.853   8.178  0.4483 -1.9194 -1.8812
   28SAPC  C216 3744   4.060   6.909   8.261 -0.4274 -0.6937 -0.1988
   28SAPC  H16R 3745   4.165   6.932   8.233 -1.0431  1.9961 -0.5142
   28SAPC  H16S 3746   4.085   6.820   8.323  3.2466 -0.0271 -0.5136
   28SAPC  C217 3747   4.025   7.032   8.347 -0.6736 -0.0120  0.7629
   28SAPC  H17R 3748   3.917   7.052   8.365 -0.6208 -1.3347  2.8700
   28SAPC  H17S 3749   4.063   7.117   8.285 -1.4233  0.4804  0.9636
   28SAPC  C218 3750   4.091   7.013   8.483 -0.0854  0.0198  0.0755
   28SAPC  H18R 3751   4.109   7.119   8.513 -3.0456 -0.0085  2.4254
   28SAPC  H18S 3752   4.180   6.946   8.477 -0.8228 -0.8499 -2.3076
   28SAPC  C219 3753   3.992   6.956   8.592 -0.1850  0.0617 -0.1722
   28SAPC  H19R 3754   3.973   6.848   8.574 -0.8390 -0.0725  1.1977
   28SAPC  H19S 3755   3.893   7.006   8.582 -1.3726 -2.1826 -0.3298
   28SAPC  C220 3756   4.036   6.977   8.732 -0.2285 -0.6216  0.0465
   28SAPC  H20R 3757   4.141   6.944   8.745 -0.6175 -0.7653  3.9231
   28SAPC  H20S 3758   3.987   6.901   8.797  1.9957 -0.2405  2.3350
   28SAPC  H20T 3759   4.030   7.079   8.777  0.2392 -0.5952  0.0511
   28SAPC   C33 3760   4.210   6.438   6.896  0.0581 -0.0676  0.8213
   28SAPC   H3X 3761   4.106   6.398   6.906  0.3976 -0.7527  1.8952
   28SAPC   H3Y 3762   4.205   6.546   6.872 -1.7278 -0.3948 -0.4875
   28SAPC   C34 3763   4.290   6.436   7.030 -0.8994  0.5020  0.4689
   28SAPC   H4X 3764   4.384   6.491   7.008 -0.4683  0.5037  2.1055
   28SAPC   H4Y 3765   4.311   6.330   7.057  0.7896 -0.4576 -3.8278
   28SAPC   C35 3766   4.218   6.497   7.143 -0.1131 -0.3935 -0.4800
   28SAPC   H5X 3767   4.152   6.419   7.187  0.2294 -0.4074  0.0121
   28SAPC   H5Y 3768   4.139   6.569   7.115  0.4970 -0.0881 -1.4999
   28SAPC   C36 3769   4.309   6.551   7.246 -0.5247  0.3554 -0.3665
   28SAPC   H6X 3770   4.369   6.636   7.207  0.5998  0.3517  1.2625
   28SAPC   H6Y 3771   4.382   6.470   7.269  0.5285  1.2105 -0.6078
   28SAPC   C37 3772   4.259   6.591   7.391  0.2775 -0.1656  0.1787
   28SAPC   H7X 3773   4.173   6.660   7.383  0.7208  0.4884  0.8986
   28SAPC   H7Y 3774   4.344   6.647   7.437 -0.4799  0.3948  0.9118
   28SAPC   C38 3775   4.219   6.465   7.471 -0.0598 -0.1468 -0.0490
   28SAPC   H8X 3776   4.301   6.391   7.454 -0.4461 -0.4168 -0.7410
   28SAPC   H8Y 3777   4.122   6.429   7.433 -0.1234 -1.0874  0.9540
   28SAPC   C39 3778   4.216   6.511   7.617 -0.3482  0.3714  0.6897
   28SAPC   H9X 3779   4.142   6.593   7.627 -0.3184  0.3971  0.6973
   28SAPC   H9Y 3780   4.315   6.554   7.645  1.1715 -0.1841 -3.2069
   28SAPC  C310 3781   4.161   6.407   7.721  0.2312  0.2721  0.2455
   28SAPC  H10X 3782   4.221   6.314   7.721 -0.4749 -0.1939  0.8751
   28SAPC  H10Y 3783   4.052   6.388   7.709  0.4550 -0.9829  0.0687
   28SAPC  C311 3784   4.170   6.454   7.868  0.3120  0.0339 -0.5982
   28SAPC  H11X 3785   4.097   6.534   7.889  0.8521  0.1315  1.0189
   28SAPC  H11Y 3786   4.274   6.487   7.888  0.6175 -0.4765 -1.2754
   28SAPC  C312 3787   4.144   6.333   7.966  0.0796  0.5828  0.3436
   28SAPC  H12X 3788   4.240   6.278   7.980 -0.6659 -0.8317  0.0599
   28SAPC  H12Y 3789   4.066   6.264   7.929 -0.1639  1.0472 -0.0209
   28SAPC  C313 3790   4.102   6.368   8.108 -0.9182 -0.5093  0.2899
   28SAPC  H13X 3791   4.167   6.451   8.142  0.4006 -1.7409  0.9221
   28SAPC  H13Y 3792   4.126   6.278   8.169  0.6450 -0.5126 -0.2629
   28SAPC  C314 3793   3.957   6.394   8.121 -0.0709  0.0416 -0.4805
   28SAPC  H14X 3794   3.903   6.319   8.059 -1.6222  1.1724 -0.5387
   28SAPC  H14Y 3795   3.955   6.490   8.065 -0.1749 -0.2437 -0.9772
   28SAPC  C315 3796   3.904   6.419   8.263 -0.1312  0.3144  0.2165
   28SAPC  H15X 3797   3.923   6.322   8.313  2.1313 -0.4872 -1.9901
   28SAPC  H15Y 3798   3.796   6.446   8.265 -0.9721 -2.5457 -1.0906
   28SAPC  C316 3799   3.988   6.520   8.345 -0.3198  0.2029  0.3901
   28SAPC  H16X 3800   4.021   6.599   8.275  0.1695  0.0795  0.4737
   28SAPC  H16Y 3801   4.081   6.473   8.386 -0.7411  1.1016  2.5163
   28SAPC  C317 3802   3.922   6.566   8.475 -0.2201  0.8644  0.5806
   28SAPC  H17X 3803   4.004   6.607   8.538  1.8752  0.2119 -1.5705
   28SAPC  H17Y 3804   3.879   6.478   8.526 -5.3753  2.0103 -1.1705
   28SAPC  C318 3805   3.811   6.665   8.443  0.2684 -0.0561 -0.4307
   28SAPC  H18X 3806   3.851   6.762   8.406 -2.0781  0.9120 -0.6006
   28SAPC  H18Y 3807   3.762   6.701   8.536  0.9673 -2.2267  0.8459
   28SAPC  H18Z 3808   3.736   6.629   8.370  0.6067  0.7484 -1.1879
   29SAPC     N 3809   0.849   3.258   6.165  0.8094 -0.0674  0.5735
   29SAPC   C12 3810   0.755   3.136   6.160  0.7960  0.8884 -0.6751
   29SAPC  H12A 3811   0.764   3.076   6.249 -0.1400  1.6731 -0.0278
   29SAPC  H12B 3812   0.771   3.074   6.073  0.1626 -1.5893  0.8760
   29SAPC   C13 3813   0.989   3.208   6.145  0.3304 -0.3772 -0.4900
   29SAPC  H13A 3814   1.036   3.165   6.232  0.2421  1.3902  0.4796
   29SAPC  H13B 3815   0.990   3.143   6.058 -0.1722 -0.0577 -0.7363
   29SAPC  H13C 3816   1.058   3.286   6.115 -2.2346  1.8489 -0.9261
   29SAPC   C14 3817   0.814   3.361   6.058  0.5104 -0.5363  0.0925
   29SAPC  H14A 3818   0.710   3.388   6.067  0.7067  0.2255  0.1542
   29SAPC  H14B 3819   0.865   3.454   6.078  0.1475 -0.3857  0.3298
   29SAPC  H14C 3820   0.829   3.324   5.957 -1.1181 -0.0303 -0.3665
   29SAPC   C15 3821   0.840   3.323   6.306 -0.6938  0.1481 -0.4638
   29SAPC  H15A 3822   0.864   3.428   6.304  3.0216 -0.5292  1.1499
   29SAPC  H15B 3823   0.744   3.304   6.352  0.5944 -1.3886  1.7494
   29SAPC  H15C 3824   0.896   3.274   6.384  0.4891  2.5457  0.2944
   29SAPC   C11 3825   0.605   3.170   6.148  0.7368  0.1318 -1.1640
   29SAPC  H11A 3826   0.542   3.081   6.129  0.3678  0.3657 -1.0540
   29SAPC  H11B 3827   0.590   3.249   6.071  1.2881  0.2035 -1.2051
   29SAPC     P 3828   0.429   3.268   6.317  0.1424  0.3968 -0.4926
   29SAPC   O13 3829   0.424   3.413   6.322 -0.7085 -0.4529 -0.3285
   29SAPC   O14 3830   0.335   3.204   6.226  0.0582 -0.4228  0.0052
   29SAPC   O12 3831   0.574   3.223   6.276  0.0809 -0.3092 -1.0935
   29SAPC   O11 3832   0.428   3.205   6.463  0.0531  0.4433 -0.7059
   29SAPC    C1 3833   0.450   3.064   6.491  0.7085 -0.4095 -0.1012
   29SAPC    HA 3834   0.354   3.018   6.524  0.5671  0.0455  0.1268
   29SAPC    HB 3835   0.469   3.010   6.396 -0.8313 -1.8429  0.3613
   29SAPC    C2 3836   0.569   3.038   6.591  0.1274 -0.3984  0.8145
   29SAPC    HS 3837   0.565   2.929   6.612  0.4583 -0.8339 -1.2367
   29SAPC   O21 3838   0.550   3.125   6.704  0.1462  0.3861 -0.9225
   29SAPC   C21 3839   0.455   3.091   6.791 -0.4382  0.4855  0.2916
   29SAPC   O22 3840   0.373   3.003   6.773  1.0911 -0.4008  0.1491
   29SAPC   C22 3841   0.464   3.188   6.909 -0.7226 -0.2164 -0.7001
   29SAPC   H2R 3842   0.407   3.140   6.991  3.2189 -1.1722  1.7204
   29SAPC   H2S 3843   0.568   3.177   6.947 -0.4958 -1.5347 -1.6441
   29SAPC    C3 3844   0.713   3.074   6.523 -1.0001  0.0093 -0.3685
   29SAPC    HX 3845   0.699   3.155   6.448  1.0326 -0.0414 -0.8608
   29SAPC    HY 3846   0.736   2.982   6.465 -1.4970 -0.2096 -0.2225
   29SAPC   O31 3847   0.808   3.099   6.626 -0.5806  0.4260 -0.3696
   29SAPC   C31 3848   0.830   3.228   6.664 -0.5595 -0.3393  0.2260
   29SAPC   O32 3849   0.801   3.328   6.600 -0.0673 -0.6561 -0.3524
   29SAPC   C32 3850   0.915   3.224   6.785  0.8161  0.1326  0.4016
   29SAPC   H2X 3851   1.023   3.216   6.762  1.0399 -2.0369  1.9540
   29SAPC   H2Y 3852   0.895   3.126   6.833 -0.3754  0.5102  0.7099
   29SAPC   C23 3853   0.410   3.325   6.880 -0.2981 -0.6117 -0.3290
   29SAPC   H3R 3854   0.299   3.322   6.873 -0.3797 -0.7124  0.7929
   29SAPC   H3S 3855   0.437   3.358   6.777  0.3953 -0.6577 -0.1663
   29SAPC   C24 3856   0.439   3.427   6.993 -0.1776  0.4596  0.3921
   29SAPC   H4R 3857   0.383   3.520   6.971 -0.1162  0.7063  1.2685
   29SAPC   H4S 3858   0.545   3.458   6.978  0.4096 -2.2052 -1.8410
   29SAPC   C25 3859   0.400   3.370   7.133 -0.0356 -0.3072  0.9605
   29SAPC   H5R 3860   0.328   3.287   7.128 -1.6511  1.0158  1.4569
   29SAPC   C26 3861   0.433   3.425   7.251  0.4207  0.1837 -0.8491
   29SAPC   H6R 3862   0.396   3.377   7.343  1.4882 -2.4591 -1.7111
   29SAPC   C27 3863   0.529   3.541   7.266 -0.0461  0.7526  0.2397
   29SAPC   H7R 3864   0.539   3.598   7.171  0.0647  1.0763  0.4439
   29SAPC   H7S 3865   0.631   3.503   7.290 -1.0988 -0.5660  2.9040
   29SAPC   C28 3866   0.475   3.631   7.372 -0.4210  0.1458  0.2662
   29SAPC   H8R 3867   0.436   3.726   7.334  0.7895 -0.1589 -1.9096
   29SAPC   C29 3868   0.480   3.616   7.506  0.1174 -0.1135 -0.4839
   29SAPC   H9R 3869   0.427   3.700   7.553 -0.4972  0.3755 -1.9814
   29SAPC  C210 3870   0.543   3.511   7.593 -0.1745  0.0646 -1.0021
   29SAPC  H10R 3871   0.590   3.432   7.531 -0.9398 -0.6696 -0.6640
   29SAPC  H10S 3872   0.457   3.470   7.651  2.0630  0.6397  3.1054
   29SAPC  C211 3873   0.645   3.544   7.704  0.1168  0.5934  0.3826
   29SAPC  H11R 3874   0.751   3.542   7.675  0.3172  2.9361  0.7656
   29SAPC  C212 3875   0.626   3.577   7.832 -0.2801 -0.6734 -0.3699
   29SAPC  H12R 3876   0.713   3.601   7.895  1.6016 -4.0741 -1.4449
   29SAPC  C213 3877   0.496   3.594   7.891  0.9433  0.2232 -0.4091
   29SAPC  H13R 3878   0.415   3.605   7.815  1.4132  0.9048 -0.8217
   29SAPC  H13S 3879   0.488   3.691   7.943 -1.5248  0.5313 -1.2290
   29SAPC  C214 3880   0.462   3.477   7.973 -0.0696  0.2341  0.9273
   29SAPC  H14R 3881   0.479   3.381   7.922 -0.6105  0.8407 -0.4474
   29SAPC  C215 3882   0.444   3.479   8.105 -0.0199  0.0255  0.5239
   29SAPC  H15R 3883   0.445   3.380   8.153 -2.1298 -1.7037 -2.6157
   29SAPC  C216 3884   0.447   3.595   8.198 -0.2372 -0.0380  0.0893
   29SAPC  H16R 3885   0.356   3.597   8.262 -0.2940 -0.3124  0.0180
   29SAPC  H16S 3886   0.440   3.692   8.144 -2.1013  0.7201  1.5628
   29SAPC  C217 3887   0.562   3.594   8.297 -0.3771  0.5924  0.0935
   29SAPC  H17R 3888   0.571   3.691   8.350 -1.2161 -0.2471  1.8661
   29SAPC  H17S 3889   0.651   3.584   8.232 -0.6287  0.3534 -0.2150
   29SAPC  C218 3890   0.547   3.485   8.407 -0.0644 -0.0038  0.4759
   29SAPC  H18R 3891   0.539   3.381   8.367 -1.7404 -0.0629  0.8998
   29SAPC  H18S 3892   0.464   3.491   8.480 -0.1797  0.3214  0.3202
   29SAPC  C219 3893   0.675   3.473   8.495  0.6026  0.6082 -0.1225
   29SAPC  H19R 3894   0.756   3.458   8.420 -0.9397 -0.2146 -1.7033
   29SAPC  H19S 3895   0.656   3.382   8.555 -0.5606 -0.2729 -1.7442
   29SAPC  C220 3896   0.703   3.595   8.583 -0.5195 -0.2784 -0.5264
   29SAPC  H20R 3897   0.768   3.560   8.666 -2.6392 -0.6915  1.0585
   29SAPC  H20S 3898   0.613   3.634   8.635  0.6679  0.8264  0.7626
   29SAPC  H20T 3899   0.748   3.680   8.528 -1.2034 -0.2148 -1.0092
   29SAPC   C33 3900   0.881   3.334   6.889 -0.2188  0.0113 -0.4766
   29SAPC   H3X 3901   0.773   3.335   6.915 -0.3114  1.8155 -0.8316
   29SAPC   H3Y 3902   0.932   3.422   6.844  3.2645 -1.6802 -0.1796
   29SAPC   C34 3903   0.954   3.300   7.015 -0.4880  0.0466  0.0235
   29SAPC   H4X 3904   1.059   3.271   6.993  0.0391  1.8194  0.0720
   29SAPC   H4Y 3905   0.906   3.213   7.065  1.8024 -1.9281 -0.9516
   29SAPC   C35 3906   0.955   3.427   7.105  1.3419  0.6023  0.0047
   29SAPC   H5X 3907   0.856   3.429   7.156 -0.7834 -1.2771 -3.6504
   29SAPC   H5Y 3908   0.967   3.512   7.036  0.6712  2.6173  2.2327
   29SAPC   C36 3909   1.062   3.432   7.209 -0.5651 -0.1149  0.1756
   29SAPC   H6X 3910   1.158   3.449   7.156 -1.2769 -1.5011 -1.6629
   29SAPC   H6Y 3911   1.080   3.346   7.278 -0.2616 -0.6782 -0.5863
   29SAPC   C37 3912   1.045   3.556   7.309 -0.0321 -0.3055  0.1597
   29SAPC   H7X 3913   0.944   3.541   7.352 -0.3255  1.6344  0.2313
   29SAPC   H7Y 3914   1.038   3.655   7.260  2.6969  0.5621  1.3145
   29SAPC   C38 3915   1.154   3.554   7.415 -0.8709 -0.3946 -0.9448
   29SAPC   H8X 3916   1.256   3.556   7.372  0.4590  0.2270  1.9512
   29SAPC   H8Y 3917   1.142   3.455   7.465 -1.9233  0.5966  0.8941
   29SAPC   C39 3918   1.129   3.668   7.523  0.7215  0.8538 -0.0192
   29SAPC   H9X 3919   1.027   3.654   7.565  0.6856  3.2076  0.8443
   29SAPC   H9Y 3920   1.137   3.765   7.470  0.0650  0.5194 -0.7539
   29SAPC  C310 3921   1.227   3.653   7.646 -0.0243  0.1680  0.9124
   29SAPC  H10X 3922   1.324   3.650   7.593 -1.4007 -1.0983 -1.7226
   29SAPC  H10Y 3923   1.195   3.558   7.693  1.1230 -1.2444 -1.0444
   29SAPC  C311 3924   1.217   3.769   7.743 -0.7910  0.1119  0.2668
   29SAPC  H11X 3925   1.114   3.778   7.785 -0.4940  0.9350  0.8375
   29SAPC  H11Y 3926   1.243   3.866   7.697 -1.9241  0.3828  0.1757
   29SAPC  C312 3927   1.329   3.750   7.847 -0.1255  0.5590  0.1139
   29SAPC  H12X 3928   1.428   3.766   7.799 -0.8859 -0.0907 -1.7378
   29SAPC  H12Y 3929   1.324   3.644   7.880 -0.3941 -0.2270 -2.3122
   29SAPC  C313 3930   1.324   3.835   7.972  0.4909  0.0829  0.6236
   29SAPC  H13X 3931   1.344   3.940   7.941 -0.2753  0.9278  2.8239
   29SAPC  H13Y 3932   1.397   3.814   8.053 -1.4955  0.2988  2.5520
   29SAPC  C314 3933   1.187   3.823   8.039 -0.0174 -0.0670 -0.0073
   29SAPC  H14X 3934   1.111   3.881   7.983 -0.8579 -0.9605  0.1755
   29SAPC  H14Y 3935   1.197   3.862   8.143  3.2940 -2.5615  0.7841
   29SAPC  C315 3936   1.150   3.676   8.073  0.3246  0.3095  0.1410
   29SAPC  H15X 3937   1.237   3.650   8.137  2.2160  5.0143 -0.1071
   29SAPC  H15Y 3938   1.150   3.605   7.988 -0.4563 -2.5057  2.3195
   29SAPC  C316 3939   1.017   3.657   8.138 -0.1820  0.0389 -0.4605
   29SAPC  H16X 3940   0.966   3.560   8.116  0.7222 -1.5066  3.3899
   29SAPC  H16Y 3941   0.959   3.749   8.116 -0.8095 -0.2301  0.0071
   29SAPC  C317 3942   1.027   3.652   8.291 -0.3211  0.0940  0.0075
   29SAPC  H17X 3943   0.925   3.667   8.330 -0.1809  0.7189  0.1506
   29SAPC  H17Y 3944   1.085   3.735   8.337  2.2376 -0.4345 -1.9736
   29SAPC  C318 3945   1.094   3.519   8.352 -0.0356 -0.7847 -0.5662
   29SAPC  H18X 3946   1.076   3.520   8.462  2.0784 -1.7776 -0.1595
   29SAPC  H18Y 3947   1.204   3.515   8.334 -0.1933 -1.7618 -1.3882
   29SAPC  H18Z 3948   1.051   3.430   8.301  0.1787 -1.0277 -0.3272
   30SAPC     N 3949   1.298   3.876   5.656  0.2274  0.1687 -0.6161
   30SAPC   C12 3950   1.262   3.797   5.783 -0.3699 -0.0090 -0.5625
   30SAPC  H12A 3951   1.155   3.781   5.790 -0.8180  3.0046  0.8804
   30SAPC  H12B 3952   1.284   3.858   5.869  0.5947 -2.0115  0.6775
   30SAPC   C13 3953   1.187   3.975   5.634  0.6595  0.6206 -0.1126
   30SAPC  H13A 3954   1.170   4.042   5.716  1.8747  3.1919 -1.8096
   30SAPC  H13B 3955   1.218   4.037   5.550  3.8943 -2.3108 -1.3425
   30SAPC  H13C 3956   1.089   3.934   5.614  0.0309  1.0572  1.8347
   30SAPC   C14 3957   1.427   3.956   5.688 -0.2838 -0.1466 -0.3385
   30SAPC  H14A 3958   1.461   4.010   5.601 -1.8829  0.5950 -0.5473
   30SAPC  H14B 3959   1.420   4.023   5.772  1.6662 -0.8335  0.4074
   30SAPC  H14C 3960   1.507   3.887   5.707 -0.3906 -0.2086 -0.1176
   30SAPC   C15 3961   1.322   3.791   5.540  0.6887  0.4732 -0.0535
   30SAPC  H15A 3962   1.382   3.703   5.559  0.9309  0.8644  1.0328
   30SAPC  H15B 3963   1.225   3.768   5.500  1.0894  1.1328 -1.4706
   30SAPC  H15C 3964   1.370   3.852   5.464 -1.2856 -0.0871 -1.8681
   30SAPC   C11 3965   1.331   3.667   5.814  0.3762  0.2114  0.0140
   30SAPC  H11A 3966   1.433   3.684   5.774 -0.3472  1.6596 -1.3023
   30SAPC  H11B 3967   1.278   3.593   5.751 -1.5067  1.7987 -0.3644
   30SAPC     P 3968   1.208   3.575   6.025 -0.3164 -0.0343  0.3782
   30SAPC   O13 3969   1.094   3.660   6.004  0.0646  0.2797  0.4904
   30SAPC   O14 3970   1.198   3.430   5.992 -0.3357  0.6964  0.3690
   30SAPC   O12 3971   1.330   3.646   5.950 -0.6513 -0.4210 -0.0500
   30SAPC   O11 3972   1.262   3.583   6.177  0.5430 -0.0962  0.2962
   30SAPC    C1 3973   1.191   3.656   6.275 -0.0966 -0.8058 -0.1675
   30SAPC    HA 3974   1.082   3.668   6.257 -0.2589  0.2265  1.3056
   30SAPC    HB 3975   1.193   3.605   6.373 -2.7347 -0.1905  0.2969
   30SAPC    C2 3976   1.243   3.808   6.291 -0.0283  0.2643 -0.6049
   30SAPC    HS 3977   1.275   3.840   6.189  0.9547  2.3817  0.3181
   30SAPC   O21 3978   1.355   3.794   6.379  0.1904 -0.6066  0.0977
   30SAPC   C21 3979   1.426   3.905   6.387  0.2699 -0.4749  0.1589
   30SAPC   O22 3980   1.418   4.001   6.314  0.0815  0.6809  0.1139
   30SAPC   C22 3981   1.520   3.889   6.501 -0.5333 -0.2152 -0.1063
   30SAPC   H2R 3982   1.536   3.787   6.542  0.4413  0.0480  0.2058
   30SAPC   H2S 3983   1.622   3.913   6.463 -0.3789  0.7309  0.8759
   30SAPC    C3 3984   1.141   3.908   6.346  0.3713  0.0415 -0.2522
   30SAPC    HX 3985   1.043   3.900   6.295  0.9631 -0.4951 -1.3419
   30SAPC    HY 3986   1.182   4.010   6.330  0.7274 -0.1041 -0.2774
   30SAPC   O31 3987   1.127   3.898   6.492  0.1515  0.0734  0.1751
   30SAPC   C31 3988   1.034   3.806   6.536 -0.5091  0.0902 -0.6872
   30SAPC   O32 3989   0.964   3.736   6.471 -0.1801 -0.1613  0.6418
   30SAPC   C32 3990   1.042   3.790   6.688 -0.2466  0.1869 -0.2585
   30SAPC   H2X 3991   0.953   3.837   6.734 -0.4715 -0.7437  0.2748
   30SAPC   H2Y 3992   1.132   3.846   6.722 -0.5516 -0.2495  1.3147
   30SAPC   C23 3993   1.496   3.988   6.613  0.8098  0.2900 -0.7296
   30SAPC   H3R 3994   1.417   3.947   6.680 -0.6679  1.4265 -1.7084
   30SAPC   H3S 3995   1.462   4.090   6.587  1.0288  0.6186  0.2139
   30SAPC   C24 3996   1.635   3.997   6.689  0.1798 -0.5042  0.3408
   30SAPC   H4R 3997   1.709   4.043   6.621 -0.0679 -0.5085  0.0633
   30SAPC   H4S 3998   1.671   3.893   6.704 -1.0095 -1.0136 -0.1814
   30SAPC   C25 3999   1.618   4.058   6.823  0.5334  0.4410 -0.2372
   30SAPC   H5R 4000   1.519   4.055   6.871  0.3097  0.1582 -0.7045
   30SAPC   C26 4001   1.703   4.140   6.884 -0.0322 -0.3062 -0.1888
   30SAPC   H6R 4002   1.689   4.165   6.990 -0.3050  0.5217 -0.4100
   30SAPC   C27 4003   1.837   4.190   6.826 -0.5876 -0.3795  0.5943
   30SAPC   H7R 4004   1.887   4.107   6.772  0.0284  0.0860  0.4433
   30SAPC   H7S 4005   1.899   4.212   6.915 -0.7008 -1.1209  0.8643
   30SAPC   C28 4006   1.815   4.303   6.724 -0.3046  0.8038  0.5272
   30SAPC   H8R 4007   1.737   4.273   6.653  1.6816 -0.8176 -1.1167
   30SAPC   C29 4008   1.872   4.427   6.734 -0.1674  0.2349  0.7479
   30SAPC   H9R 4009   1.862   4.488   6.643 -0.1820 -0.2059  0.4466
   30SAPC  C210 4010   1.953   4.482   6.848 -0.5724  0.8859  0.3745
   30SAPC  H10R 4011   2.032   4.547   6.806 -0.4635  1.2830  1.1741
   30SAPC  H10S 4012   1.999   4.400   6.907 -2.3497 -1.1771 -0.9412
   30SAPC  C211 4013   1.865   4.575   6.933 -0.6164  0.7403  0.3907
   30SAPC  H11R 4014   1.815   4.653   6.874  1.7362  1.3894 -0.8643
   30SAPC  C212 4015   1.850   4.565   7.068 -0.4876  0.0288 -0.3026
   30SAPC  H12R 4016   1.782   4.637   7.117 -1.1340 -0.4509 -0.4837
   30SAPC  C213 4017   1.907   4.458   7.162  0.1284 -0.8688 -0.3209
   30SAPC  H13R 4018   1.969   4.512   7.237  0.7268 -1.9118 -0.0406
   30SAPC  H13S 4019   1.981   4.396   7.108  1.9600  0.6611  0.3156
   30SAPC  C214 4020   1.802   4.364   7.233 -0.1800  0.5214  0.0459
   30SAPC  H14R 4021   1.761   4.293   7.159 -0.3627  0.2918  0.3687
   30SAPC  C215 4022   1.764   4.361   7.358 -0.0462  0.0351 -0.0010
   30SAPC  H15R 4023   1.682   4.293   7.386 -0.3276  0.1379 -0.5566
   30SAPC  C216 4024   1.825   4.449   7.472  0.0625  0.9556 -0.8794
   30SAPC  H16R 4025   1.929   4.478   7.449  0.6752  0.4637  1.0722
   30SAPC  H16S 4026   1.828   4.388   7.565  1.9663 -0.1836 -1.6306
   30SAPC  C217 4027   1.734   4.570   7.481  0.3016  0.0220 -0.7925
   30SAPC  H17R 4028   1.632   4.536   7.509  0.6971 -1.2498 -0.8349
   30SAPC  H17S 4029   1.728   4.621   7.383 -3.1213 -2.1097 -1.8591
   30SAPC  C218 4030   1.787   4.663   7.594 -0.0638  0.4212  0.6774
   30SAPC  H18R 4031   1.887   4.700   7.562  0.2983 -0.5049  0.7240
   30SAPC  H18S 4032   1.790   4.614   7.694 -1.5832  2.3216  1.7397
   30SAPC  C219 4033   1.689   4.779   7.623 -1.0092 -0.0089  0.2913
   30SAPC  H19R 4034   1.740   4.839   7.702 -0.0530 -0.5574  0.1075
   30SAPC  H19S 4035   1.586   4.747   7.648  0.0276 -2.2579  1.9867
   30SAPC  C220 4036   1.681   4.879   7.506 -0.3820  0.0264 -0.2397
   30SAPC  H20R 4037   1.654   4.978   7.550  0.6851  0.3214 -0.2201
   30SAPC  H20S 4038   1.600   4.862   7.433  0.9356 -2.5289 -1.2210
   30SAPC  H20T 4039   1.780   4.872   7.455 -0.0365 -1.0596  0.5471
   30SAPC   C33 4040   1.048   3.639   6.741 -0.0122 -0.8098 -0.0039
   30SAPC   H3X 4041   0.962   3.580   6.703 -1.9494  1.2244  1.0479
   30SAPC   H3Y 4042   1.027   3.648   6.850  1.5635  1.3042  0.1828
   30SAPC   C34 4043   1.191   3.577   6.728  0.8124  0.7191 -0.2818
   30SAPC   H4X 4044   1.229   3.554   6.626 -1.7563 -1.2685 -0.9041
   30SAPC   H4Y 4045   1.173   3.482   6.781  1.0920  1.4280  1.1280
   30SAPC   C35 4046   1.300   3.656   6.814  0.3904 -0.1262 -0.1500
   30SAPC   H5X 4047   1.243   3.684   6.906 -1.4441 -0.0642 -1.2642
   30SAPC   H5Y 4048   1.333   3.753   6.771 -0.6709  1.0947  1.6035
   30SAPC   C36 4049   1.420   3.568   6.840 -0.8206  0.1792 -0.6537
   30SAPC   H6X 4050   1.477   3.557   6.745 -1.8173 -3.0796 -0.9948
   30SAPC   H6Y 4051   1.399   3.463   6.870  0.2706  0.5088  1.4268
   30SAPC   C37 4052   1.527   3.614   6.944  0.8565 -0.2187 -0.2909
   30SAPC   H7X 4053   1.555   3.716   6.907 -0.8803  0.7788  0.9908
   30SAPC   H7Y 4054   1.611   3.541   6.940  0.1852 -0.9647 -1.2781
   30SAPC   C38 4055   1.467   3.625   7.086 -0.1540  0.4139 -0.0765
   30SAPC   H8X 4056   1.405   3.536   7.112 -1.3038  1.3339  0.4060
   30SAPC   H8Y 4057   1.400   3.710   7.111  0.1824  0.5453  0.3815
   30SAPC   C39 4058   1.582   3.599   7.191 -0.0186  0.2293  0.1964
   30SAPC   H9X 4059   1.657   3.681   7.187  1.7868 -1.3345  0.3026
   30SAPC   H9Y 4060   1.641   3.509   7.163 -0.3198  0.5017 -1.4383
   30SAPC  C310 4061   1.531   3.594   7.335  0.3320 -0.2993 -0.2601
   30SAPC  H10X 4062   1.441   3.529   7.332 -1.0777  1.5809 -2.0242
   30SAPC  H10Y 4063   1.479   3.689   7.363 -0.7330 -1.3092  1.3838
   30SAPC  C311 4064   1.627   3.544   7.441 -1.0253 -0.5493 -0.1662
   30SAPC  H11X 4065   1.725   3.594   7.435 -0.1322 -2.3147 -1.2681
   30SAPC  H11Y 4066   1.638   3.439   7.405  2.9689  0.4169 -2.3085
   30SAPC  C312 4067   1.574   3.550   7.586 -0.2015 -0.3731  0.3800
   30SAPC  H12X 4068   1.475   3.501   7.595 -1.0544  1.3232  0.6829
   30SAPC  H12Y 4069   1.557   3.656   7.613  0.3982 -0.0906 -0.3167
   30SAPC  C313 4070   1.674   3.486   7.683 -0.4958 -0.4555  0.3279
   30SAPC  H13X 4071   1.770   3.513   7.634 -0.4697 -3.3558 -1.4846
   30SAPC  H13Y 4072   1.669   3.375   7.685 -0.3238 -0.4609  2.2246
   30SAPC  C314 4073   1.659   3.537   7.825  0.4456 -0.7454 -0.2014
   30SAPC  H14X 4074   1.554   3.532   7.861  0.5272 -2.4346 -0.1205
   30SAPC  H14Y 4075   1.686   3.645   7.822 -0.3299 -0.5697 -1.6136
   30SAPC  C315 4076   1.746   3.460   7.925  0.1102 -0.2348  1.4495
   30SAPC  H15X 4077   1.851   3.484   7.898 -0.4700 -0.0112 -0.8674
   30SAPC  H15Y 4078   1.730   3.352   7.904 -1.0617  0.3444 -0.9890
   30SAPC  C316 4079   1.716   3.494   8.070 -0.5588  0.1218 -0.4805
   30SAPC  H16X 4080   1.738   3.602   8.087  0.2899 -0.1444  0.2339
   30SAPC  H16Y 4081   1.786   3.438   8.137 -1.0716 -0.6855 -0.6070
   30SAPC  C317 4082   1.578   3.466   8.119 -0.0812 -0.5309 -0.3074
   30SAPC  H17X 4083   1.540   3.373   8.071 -0.9888 -0.0754 -0.4966
   30SAPC  H17Y 4084   1.512   3.551   8.090  0.2973  1.3243  3.6013
   30SAPC  C318 4085   1.563   3.451   8.274 -0.0622  0.1070 -0.3040
   30SAPC  H18X 4086   1.461   3.487   8.297 -0.1786 -1.4289  1.8926
   30SAPC  H18Y 4087   1.639   3.513   8.327  0.9121 -3.2568  2.5782
   30SAPC  H18Z 4088   1.573   3.345   8.304 -0.2323 -0.5268 -2.3315
   31SAPC     N 4089   2.199   3.753   6.263 -0.4386  0.0142  0.1579
   31SAPC   C12 4090   2.260   3.665   6.370 -0.1456 -0.1430  0.8522
   31SAPC  H12A 4091   2.308   3.579   6.326  3.4303  1.2369  1.7034
   31SAPC  H12B 4092   2.178   3.631   6.431  0.2762 -1.6562  0.6084
   31SAPC   C13 4093   2.091   3.848   6.319  0.0684  0.0413 -0.5796
   31SAPC  H13A 4094   2.104   3.886   6.419 -3.5965  0.6631 -0.1909
   31SAPC  H13B 4095   2.081   3.933   6.254 -1.6873 -1.9297 -3.1072
   31SAPC  H13C 4096   1.995   3.801   6.335 -0.8258  1.7147 -0.7868
   31SAPC   C14 4097   2.310   3.825   6.193  0.7434 -0.1658  0.0709
   31SAPC  H14A 4098   2.268   3.878   6.109  0.0875  1.1794  1.2074
   31SAPC  H14B 4099   2.352   3.895   6.264 -0.5496  0.7680 -0.0600
   31SAPC  H14C 4100   2.380   3.749   6.162  0.2442 -0.3649 -0.5804
   31SAPC   C15 4101   2.135   3.668   6.162  0.4677  0.0431 -0.0849
   31SAPC  H15A 4102   2.052   3.615   6.206  1.9767 -3.1735 -0.8425
   31SAPC  H15B 4103   2.100   3.720   6.073 -0.0871 -0.3053 -0.0748
   31SAPC  H15C 4104   2.197   3.589   6.124  0.7615  0.3764 -0.3132
   31SAPC   C11 4105   2.356   3.734   6.461 -0.4741 -0.5260  0.1397
   31SAPC  H11A 4106   2.369   3.677   6.555  1.9571  0.1767  0.2879
   31SAPC  H11B 4107   2.320   3.831   6.502  1.9397  0.6441 -0.3656
   31SAPC     P 4108   2.594   3.653   6.405  0.2350 -0.0018  0.5009
   31SAPC   O13 4109   2.534   3.521   6.393 -0.5699 -0.2533 -0.7545
   31SAPC   O14 4110   2.693   3.690   6.296  0.4193 -0.0703 -0.0829
   31SAPC   O12 4111   2.481   3.770   6.404  0.0333 -0.3160 -0.0439
   31SAPC   O11 4112   2.662   3.661   6.548 -0.3744  0.4944 -0.2975
   31SAPC    C1 4113   2.732   3.782   6.593 -0.9502 -0.1839 -1.0302
   31SAPC    HA 4114   2.834   3.788   6.548  0.4568 -2.6854  1.4988
   31SAPC    HB 4115   2.675   3.878   6.587  1.0973  1.4728  2.6327
   31SAPC    C2 4116   2.758   3.780   6.745 -1.0006 -0.0481  0.6166
   31SAPC    HS 4117   2.821   3.692   6.770  0.0784  0.5465  0.0589
   31SAPC   O21 4118   2.632   3.771   6.803  0.2008 -0.1938 -0.0539
   31SAPC   C21 4119   2.581   3.664   6.849  0.5098  0.6981 -0.1541
   31SAPC   O22 4120   2.609   3.547   6.822  0.3843 -0.0793 -0.7178
   31SAPC   C22 4121   2.459   3.695   6.930 -0.5485  0.0307  0.5532
   31SAPC   H2R 4122   2.449   3.806   6.939 -1.1893  0.4869 -3.4620
   31SAPC   H2S 4123   2.369   3.663   6.871 -0.3540 -0.6319  0.6093
   31SAPC    C3 4124   2.834   3.908   6.798 -0.2541 -0.1237  0.1019
   31SAPC    HX 4125   2.771   3.998   6.782 -0.3737 -0.0619  0.8642
   31SAPC    HY 4126   2.926   3.935   6.742  0.8858  0.0436  1.9583
   31SAPC   O31 4127   2.868   3.896   6.939  0.7714 -0.6410 -0.1927
   31SAPC   C31 4128   2.963   3.808   6.965  0.8776  0.1732  0.2773
   31SAPC   O32 4129   3.028   3.742   6.887 -0.0045  0.2551 -0.3124
   31SAPC   C32 4130   2.963   3.794   7.114  0.0037  0.0696  0.4375
   31SAPC   H2X 4131   2.869   3.790   7.172  0.1864 -1.3769  0.6764
   31SAPC   H2Y 4132   3.026   3.879   7.146  0.0561  1.1612 -2.2800
   31SAPC   C23 4133   2.441   3.625   7.066  1.0199 -0.2221 -0.0354
   31SAPC   H3R 4134   2.430   3.516   7.046 -1.0438  0.0578 -0.6402
   31SAPC   H3S 4135   2.343   3.659   7.105 -0.1784 -0.9357 -2.2198
   31SAPC   C24 4136   2.552   3.635   7.171  0.0654  0.2281 -0.4478
   31SAPC   H4R 4137   2.643   3.581   7.137  0.0356 -0.7052  0.8981
   31SAPC   H4S 4138   2.519   3.584   7.264  0.2081  3.2013  1.4081
   31SAPC   C25 4139   2.580   3.777   7.202  0.1838  0.2938  0.2126
   31SAPC   H5R 4140   2.625   3.834   7.120 -2.4090  0.0374 -1.4992
   31SAPC   C26 4141   2.544   3.835   7.318  0.8605  0.5151 -0.1753
   31SAPC   H6R 4142   2.564   3.942   7.332 -1.9169  1.4232 -2.1748
   31SAPC   C27 4143   2.471   3.772   7.441  0.8046 -0.9476 -0.3208
   31SAPC   H7R 4144   2.415   3.685   7.402  1.5525 -2.0777  1.0300
   31SAPC   H7S 4145   2.391   3.844   7.468  2.2369  0.6265 -0.0626
   31SAPC   C28 4146   2.555   3.730   7.560  0.6132 -0.1273 -0.3256
   31SAPC   H8R 4147   2.631   3.656   7.530 -1.0077 -1.7451 -0.5590
   31SAPC   C29 4148   2.534   3.772   7.688 -0.3549  0.1189 -0.1959
   31SAPC   H9R 4149   2.607   3.736   7.762 -1.4724 -0.3447  0.7113
   31SAPC  C210 4150   2.422   3.861   7.739  0.0121  0.3900  0.3868
   31SAPC  H10R 4151   2.340   3.794   7.772 -2.4526  2.0642 -1.9058
   31SAPC  H10S 4152   2.381   3.924   7.657 -3.8251 -0.6365  1.3173
   31SAPC  C211 4153   2.454   3.947   7.849 -0.4881 -0.3671 -0.0248
   31SAPC  H11R 4154   2.476   4.049   7.817 -1.1355 -0.7546 -1.7997
   31SAPC  C212 4155   2.463   3.927   7.981 -0.5624  0.1815  0.5090
   31SAPC  H12R 4156   2.500   4.010   8.042  0.5351 -2.0561  3.0853
   31SAPC  C213 4157   2.451   3.785   8.044 -0.7269  0.8781  0.1150
   31SAPC  H13R 4158   2.552   3.753   8.078 -0.5329  2.0578  0.7125
   31SAPC  H13S 4159   2.410   3.719   7.964  1.7746 -1.2560  0.4535
   31SAPC  C214 4160   2.356   3.789   8.159  0.0960  0.5852  0.7082
   31SAPC  H14R 4161   2.257   3.832   8.134 -0.4231 -1.4188 -0.9613
   31SAPC  C215 4162   2.390   3.768   8.287 -0.1747 -1.3447  0.5177
   31SAPC  H15R 4163   2.315   3.779   8.366  1.1074  1.1467  1.5170
   31SAPC  C216 4164   2.532   3.737   8.340 -0.5495 -0.1130 -0.0058
   31SAPC  H16R 4165   2.591   3.667   8.277  1.8598  1.9339 -0.1956
   31SAPC  H16S 4166   2.534   3.694   8.442  2.2134 -0.8588 -0.2671
   31SAPC  C217 4167   2.617   3.863   8.341 -0.1599  0.4769 -0.5522
   31SAPC  H17R 4168   2.553   3.929   8.404 -0.9992 -0.9499  0.1308
   31SAPC  H17S 4169   2.619   3.906   8.239  0.3327  3.2249  0.5343
   31SAPC  C218 4170   2.766   3.840   8.383 -0.3736 -0.6020 -0.0973
   31SAPC  H18R 4171   2.817   3.766   8.318  0.5226 -0.2258  0.1627
   31SAPC  H18S 4172   2.781   3.796   8.484  1.1866  1.6325  0.7435
   31SAPC  C219 4173   2.854   3.972   8.396 -0.1131 -0.8326  0.0100
   31SAPC  H19R 4174   2.884   3.982   8.289  0.2215 -0.6609  0.1156
   31SAPC  H19S 4175   2.949   3.952   8.451 -0.5326 -0.9095  0.7071
   31SAPC  C220 4176   2.792   4.100   8.448  0.1072 -0.6431 -0.2355
   31SAPC  H20R 4177   2.806   4.101   8.558 -0.3678  0.2781 -0.1672
   31SAPC  H20S 4178   2.690   4.132   8.417  1.4105  1.5157 -2.6881
   31SAPC  H20T 4179   2.857   4.183   8.413  0.1925  0.0288  1.4096
   31SAPC   C33 4180   3.028   3.658   7.155  0.6508 -0.2099 -0.2061
   31SAPC   H3X 4181   3.074   3.669   7.255 -1.1926 -0.9981  0.7761
   31SAPC   H3Y 4182   3.109   3.621   7.089  0.5261 -0.9309  0.0405
   31SAPC   C34 4183   2.916   3.548   7.167 -0.6778 -0.1170 -0.1123
   31SAPC   H4X 4184   2.868   3.531   7.068  0.3118 -2.6409 -0.2535
   31SAPC   H4Y 4185   2.842   3.589   7.239  0.4237  1.8110 -0.0209
   31SAPC   C35 4186   2.983   3.415   7.205  0.0477  0.7506  0.1109
   31SAPC   H5X 4187   2.892   3.351   7.208  0.5200  0.0795  0.4667
   31SAPC   H5Y 4188   3.022   3.404   7.309 -0.5466  0.4331  0.3087
   31SAPC   C36 4189   3.073   3.363   7.097  0.1226  0.6203  1.2628
   31SAPC   H6X 4190   3.177   3.398   7.115  0.7773 -1.0824  1.0267
   31SAPC   H6Y 4191   3.044   3.414   7.003 -0.1114 -0.5309  0.6888
   31SAPC   C37 4192   3.069   3.205   7.075 -0.5005 -0.7003  0.3767
   31SAPC   H7X 4193   3.145   3.183   6.997  1.6922  2.7353  1.3275
   31SAPC   H7Y 4194   2.967   3.198   7.032 -1.0917  3.3103  0.7324
   31SAPC   C38 4195   3.105   3.131   7.208 -0.1458  0.4701  0.2614
   31SAPC   H8X 4196   3.051   3.184   7.290  1.2419  0.7755  1.0069
   31SAPC   H8Y 4197   3.214   3.152   7.215 -0.6759  3.0600  1.7715
   31SAPC   C39 4198   3.087   2.981   7.215  0.0858  0.9104 -0.0595
   31SAPC   H9X 4199   3.187   2.933   7.204  0.5388  1.1016  2.6006
   31SAPC   H9Y 4200   3.016   2.949   7.135  0.7137 -0.2376 -0.1900
   31SAPC  C310 4201   3.034   2.944   7.356  0.3284 -0.8126  0.0282
   31SAPC  H10X 4202   3.013   2.835   7.364  0.8138 -0.8045  1.7020
   31SAPC  H10Y 4203   2.943   3.003   7.380  0.7729 -0.5938  1.2243
   31SAPC  C311 4204   3.116   2.983   7.491  0.3425  0.2730  0.6083
   31SAPC  H11X 4205   3.116   3.094   7.499 -3.0970  0.3791  1.0372
   31SAPC  H11Y 4206   3.219   2.944   7.480 -0.4430 -1.6853 -0.2892
   31SAPC  C312 4207   3.060   2.911   7.615 -0.4664 -0.7977  1.0543
   31SAPC  H12X 4208   3.071   2.801   7.602 -0.8919 -0.8114  0.7931
   31SAPC  H12Y 4209   2.953   2.933   7.633 -0.3286 -0.5787  1.6486
   31SAPC  C313 4210   3.138   2.945   7.746 -0.0694 -0.0033  0.1930
   31SAPC  H13X 4211   3.111   3.051   7.768  1.5823  0.6025 -0.4968
   31SAPC  H13Y 4212   3.248   2.947   7.735 -0.3109  0.1067 -3.3786
   31SAPC  C314 4213   3.098   2.848   7.856  0.4637  0.0639 -1.1524
   31SAPC  H14X 4214   3.132   2.747   7.826  0.4824 -0.3850  0.3076
   31SAPC  H14Y 4215   2.988   2.846   7.871  0.6263 -0.5057  0.0834
   31SAPC  C315 4216   3.163   2.878   8.000 -0.7114  0.9666  0.2052
   31SAPC  H15X 4217   3.130   2.972   8.049  0.7495  2.2304 -1.1310
   31SAPC  H15Y 4218   3.273   2.880   7.984 -0.8089 -0.8358 -0.9507
   31SAPC  C316 4219   3.162   2.757   8.104  0.6879 -0.4560  0.3055
   31SAPC  H16X 4220   3.192   2.664   8.051  0.6610 -0.0380 -0.4505
   31SAPC  H16Y 4221   3.057   2.746   8.137 -0.5023  1.0543 -2.6641
   31SAPC  C317 4222   3.243   2.786   8.233  0.0527  0.6389  0.1370
   31SAPC  H17X 4223   3.234   2.895   8.253 -0.7717  0.3915  1.1591
   31SAPC  H17Y 4224   3.349   2.772   8.200  0.1246 -1.5414  1.1085
   31SAPC  C318 4225   3.223   2.696   8.355  0.1465 -0.1979  0.3553
   31SAPC  H18X 4226   3.281   2.601   8.352  0.0360 -0.2429 -0.3927
   31SAPC  H18Y 4227   3.114   2.676   8.347 -0.1006  0.7369  1.2562
   31SAPC  H18Z 4228   3.245   2.747   8.451  0.3467 -1.7153  1.1620
   32SAPC     N 4229   4.095   4.438   5.807  0.4316  0.6981  0.4011
   32SAPC   C12 4230   4.126   4.405   5.954  0.1248  0.0223 -0.6501
   32SAPC  H12A 4231   4.126   4.297   5.964  1.5483  0.1433  1.2169
   32SAPC  H12B 4232   4.039   4.445   6.003 -0.7920 -1.0528 -1.3547
   32SAPC   C13 4233   3.974   4.350   5.766 -0.3493  0.4579 -0.6442
   32SAPC  H13A 4234   3.930   4.381   5.672 -1.9154  1.3921  0.3669
   32SAPC  H13B 4235   3.998   4.246   5.749  0.3305  0.7242 -1.3989
   32SAPC  H13C 4236   3.895   4.347   5.839  1.2998  2.2162  1.3307
   32SAPC   C14 4237   4.081   4.583   5.782 -0.5793 -0.0177 -0.4423
   32SAPC  H14A 4238   3.985   4.627   5.806 -0.2709  1.8732 -2.3622
   32SAPC  H14B 4239   4.162   4.637   5.829 -0.6017 -1.3285  1.2060
   32SAPC  H14C 4240   4.085   4.607   5.677 -2.9587  1.5236 -0.2480
   32SAPC   C15 4241   4.210   4.385   5.723 -0.0347 -0.1213 -0.0782
   32SAPC  H15A 4242   4.298   4.435   5.761  0.4406 -0.0023 -1.3101
   32SAPC  H15B 4243   4.213   4.277   5.729 -3.0218 -0.4703 -2.5136
   32SAPC  H15C 4244   4.192   4.410   5.620  1.1038 -3.7543 -1.3016
   32SAPC   C11 4245   4.243   4.471   6.031 -0.0288  0.4554 -0.3665
   32SAPC  H11A 4246   4.329   4.427   5.977 -0.4922  0.6461 -1.2946
   32SAPC  H11B 4247   4.240   4.433   6.135 -1.6064 -1.7896 -1.1635
   32SAPC     P 4248   4.136   4.688   6.125  0.1867 -0.2571 -0.1443
   32SAPC   O13 4249   4.125   4.825   6.074 -0.0714  0.1585 -0.6877
   32SAPC   O14 4250   4.010   4.614   6.136 -0.0457 -0.0435 -0.4212
   32SAPC   O12 4251   4.241   4.611   6.029  0.2103 -0.0559  0.5793
   32SAPC   O11 4252   4.210   4.691   6.265  0.3701  0.2438  0.4553
   32SAPC    C1 4253   4.342   4.738   6.281  0.1914  0.3354 -0.2871
   32SAPC    HA 4254   4.402   4.646   6.265 -0.4293 -0.1320  0.0088
   32SAPC    HB 4255   4.383   4.806   6.204  1.2394 -1.3707 -1.3055
   32SAPC    C2 4256   4.368   4.790   6.426 -0.2963  0.3157  0.1499
   32SAPC    HS 4257   4.479   4.796   6.434 -0.2246 -0.2553 -0.3101
   32SAPC   O21 4258   4.304   4.703   6.525 -0.3995 -0.1804 -0.4519
   32SAPC   C21 4259   4.375   4.689   6.635 -1.1266  0.0794 -0.4206
   32SAPC   O22 4260   4.487   4.741   6.657 -0.2350  0.7049 -0.7813
   32SAPC   C22 4261   4.303   4.596   6.735  0.4079  0.1526 -1.0907
   32SAPC   H2R 4262   4.232   4.528   6.683 -1.5999  2.9721 -2.3190
   32SAPC   H2S 4263   4.382   4.542   6.791 -0.7436 -1.3795 -0.8863
   32SAPC    C3 4264   4.308   4.930   6.447  0.3901  0.7341  0.7650
   32SAPC    HX 4265   4.202   4.901   6.437  1.0153 -0.8891 -3.0201
   32SAPC    HY 4266   4.328   5.002   6.364  1.5221 -1.2417 -0.7715
   32SAPC   O31 4267   4.335   4.985   6.583 -0.2853 -0.5600 -0.3320
   32SAPC   C31 4268   4.446   5.057   6.585 -0.2035  0.1690  0.4607
   32SAPC   O32 4269   4.531   5.052   6.499  0.0710 -0.9498 -0.1770
   32SAPC   C32 4270   4.442   5.148   6.711  0.5096 -0.0847  0.7035
   32SAPC   H2X 4271   4.439   5.076   6.796  0.0842 -0.2882  0.5169
   32SAPC   H2Y 4272   4.343   5.199   6.714  0.8189  0.6155 -0.4182
   32SAPC   C23 4273   4.218   4.664   6.850  0.1688  0.5042 -0.3031
   32SAPC   H3R 4274   4.151   4.585   6.888 -2.1842  2.1666 -0.8000
   32SAPC   H3S 4275   4.151   4.740   6.805 -0.3871  0.7782  0.9304
   32SAPC   C24 4276   4.302   4.715   6.977 -0.2896 -0.1947  0.0085
   32SAPC   H4R 4277   4.229   4.758   7.048  1.1371 -0.4444  1.6793
   32SAPC   H4S 4278   4.360   4.798   6.930 -1.8926  0.3607 -1.0966
   32SAPC   C25 4279   4.380   4.598   7.038 -0.4638  0.2735 -0.2200
   32SAPC   H5R 4280   4.474   4.570   6.988 -0.9202 -0.5548 -0.6455
   32SAPC   C26 4281   4.340   4.527   7.142 -0.5921  0.3735 -0.0339
   32SAPC   H6R 4282   4.410   4.456   7.187 -0.9654  0.8922  1.4010
   32SAPC   C27 4283   4.220   4.535   7.224 -0.7900 -0.1394  0.0558
   32SAPC   H7R 4284   4.129   4.500   7.170 -1.1745  1.8493 -0.6836
   32SAPC   H7S 4285   4.198   4.643   7.239 -1.2453 -0.2414  0.1164
   32SAPC   C28 4286   4.229   4.461   7.356  0.2725 -0.0932 -0.0289
   32SAPC   H8R 4287   4.188   4.359   7.349  1.5437 -0.7483  1.4041
   32SAPC   C29 4288   4.258   4.515   7.469  0.1323 -0.0840  0.1628
   32SAPC   H9R 4289   4.249   4.446   7.554 -0.6021  0.7202  0.7552
   32SAPC  C210 4290   4.303   4.657   7.496 -0.1077 -0.3236  0.0100
   32SAPC  H10R 4291   4.253   4.675   7.593 -2.6557 -2.4584 -0.7718
   32SAPC  H10S 4292   4.261   4.727   7.421  0.3011 -1.9741 -1.8562
   32SAPC  C211 4293   4.454   4.674   7.500  0.0950  0.3741 -0.2232
   32SAPC  H11R 4294   4.499   4.665   7.400  0.5718  0.3965 -0.0088
   32SAPC  C212 4295   4.538   4.666   7.608 -0.1960 -0.3806  0.0323
   32SAPC  H12R 4296   4.644   4.686   7.591  0.8166 -2.4253  3.1603
   32SAPC  C213 4297   4.500   4.643   7.751 -0.2254 -0.0742 -0.1853
   32SAPC  H13R 4298   4.394   4.612   7.766 -1.3929  3.5494 -0.0741
   32SAPC  H13S 4299   4.504   4.743   7.800 -4.2130  0.6169 -0.9285
   32SAPC  C214 4300   4.595   4.548   7.820  0.2735 -0.6433 -0.3201
   32SAPC  H14R 4301   4.599   4.453   7.765 -0.2919  0.4788 -2.4187
   32SAPC  C215 4302   4.660   4.570   7.941 -0.3141  0.9647  0.2866
   32SAPC  H15R 4303   4.732   4.492   7.968 -0.3162 -0.5693 -3.5858
   32SAPC  C216 4304   4.654   4.686   8.032 -0.2955  0.0262  0.2651
   32SAPC  H16R 4305   4.551   4.728   8.031 -0.4627 -0.3789 -0.0173
   32SAPC  H16S 4306   4.711   4.768   7.983  0.8248 -0.7742  0.1887
   32SAPC  C217 4307   4.715   4.677   8.170  0.0825  0.2167 -0.1610
   32SAPC  H17R 4308   4.825   4.669   8.160  0.0185 -0.6001 -0.2927
   32SAPC  H17S 4309   4.700   4.578   8.218  0.3130 -0.1224 -0.7800
   32SAPC  C218 4310   4.679   4.801   8.256  0.9446 -0.0320  0.6450
   32SAPC  H18R 4311   4.571   4.806   8.280 -0.1199  0.1751 -3.4601
   32SAPC  H18S 4312   4.700   4.897   8.204 -0.4189  1.0353  1.9469
   32SAPC  C219 4313   4.754   4.803   8.392 -0.1295 -0.0462  0.0239
   32SAPC  H19R 4314   4.736   4.890   8.459  1.7570  0.0781  0.4365
   32SAPC  H19S 4315   4.862   4.803   8.364 -0.9357 -0.3529 -3.6243
   32SAPC  C220 4316   4.725   4.687   8.475  0.4941 -0.7606 -0.6007
   32SAPC  H20R 4317   4.792   4.686   8.563 -1.5699  1.2748  1.1191
   32SAPC  H20S 4318   4.733   4.583   8.437 -0.6818 -2.3785  3.0292
   32SAPC  H20T 4319   4.618   4.693   8.507  1.0523 -1.7105  1.6318
   32SAPC   C33 4320   4.556   5.246   6.715  0.0258  0.7139  0.3067
   32SAPC   H3X 4321   4.545   5.302   6.620 -2.8334 -0.0336  0.0929
   32SAPC   H3Y 4322   4.650   5.186   6.719  0.2831  1.2144  2.4346
   32SAPC   C34 4323   4.552   5.332   6.838  0.9209 -0.1542  1.5133
   32SAPC   H4X 4324   4.461   5.396   6.833  0.1396 -1.2958  0.6431
   32SAPC   H4Y 4325   4.637   5.399   6.815  0.6920 -0.1886  0.5393
   32SAPC   C35 4326   4.575   5.262   6.969  0.5467  0.1391  0.6508
   32SAPC   H5X 4327   4.680   5.230   6.982  0.0167 -2.6561 -1.0817
   32SAPC   H5Y 4328   4.520   5.166   6.971 -1.0436  0.9165 -1.3332
   32SAPC   C36 4329   4.529   5.350   7.091  0.0183 -0.3579  0.1720
   32SAPC   H6X 4330   4.420   5.346   7.068 -0.0602  1.1165  0.2073
   32SAPC   H6Y 4331   4.549   5.458   7.073 -0.8803 -0.3478 -0.9146
   32SAPC   C37 4332   4.532   5.305   7.240 -0.4903  0.4004  0.7332
   32SAPC   H7X 4333   4.641   5.292   7.258 -0.3289  2.1610  1.1595
   32SAPC   H7Y 4334   4.484   5.206   7.256  0.0762  0.1723  1.0450
   32SAPC   C38 4335   4.470   5.409   7.330  0.6820  0.0400 -0.5332
   32SAPC   H8X 4336   4.365   5.429   7.300  0.3758 -1.5140 -0.5849
   32SAPC   H8Y 4337   4.528   5.502   7.314  0.5504  0.4728  1.2749
   32SAPC   C39 4338   4.484   5.387   7.482 -0.0046 -0.5768  0.1038
   32SAPC   H9X 4339   4.593   5.388   7.500  0.0146 -0.2467 -0.0239
   32SAPC   H9Y 4340   4.441   5.287   7.504 -0.1579 -0.9290 -1.6180
   32SAPC  C310 4341   4.417   5.491   7.570 -0.0942 -0.2783  0.1240
   32SAPC  H10X 4342   4.307   5.475   7.565 -0.3128  1.1928 -0.1615
   32SAPC  H10Y 4343   4.438   5.596   7.541  0.9190 -0.4849  0.0749
   32SAPC  C311 4344   4.468   5.477   7.716  0.3847  0.6485  0.1472
   32SAPC  H11X 4345   4.577   5.492   7.733  0.8379 -0.9352 -1.0736
   32SAPC  H11Y 4346   4.450   5.371   7.745  0.0914  0.2492 -1.3992
   32SAPC  C312 4347   4.396   5.563   7.820 -0.2176 -0.3747  0.4241
   32SAPC  H12X 4348   4.386   5.669   7.790 -1.0690 -0.6532 -0.3296
   32SAPC  H12Y 4349   4.466   5.564   7.906  1.3391  0.8671 -0.8051
   32SAPC  C313 4350   4.249   5.515   7.833  0.0517  0.6332  0.4573
   32SAPC  H13X 4351   4.243   5.404   7.843  2.1749  0.5434  1.0881
   32SAPC  H13Y 4352   4.200   5.547   7.739  1.1356 -0.6490 -0.5865
   32SAPC  C314 4353   4.185   5.579   7.959  0.4599  0.0874 -0.6079
   32SAPC  H14X 4354   4.158   5.685   7.941 -3.0169 -0.5474  0.0191
   32SAPC  H14Y 4355   4.264   5.573   8.036 -2.3736 -2.6553  2.4360
   32SAPC  C315 4356   4.066   5.512   8.026 -0.3043  0.6696 -0.1901
   32SAPC  H15X 4357   4.103   5.416   8.070 -0.8671  0.2906 -0.5286
   32SAPC  H15Y 4358   3.993   5.475   7.951 -0.9867 -0.2844  0.8899
   32SAPC  C316 4359   3.984   5.600   8.118 -0.2742 -0.1725  0.0027
   32SAPC  H16X 4360   3.927   5.681   8.067 -1.9655 -0.4983  1.2904
   32SAPC  H16Y 4361   4.045   5.639   8.202  0.1620 -0.4846 -0.1667
   32SAPC  C317 4362   3.879   5.522   8.203 -0.6040  0.0607  0.1962
   32SAPC  H17X 4363   3.921   5.439   8.262 -0.9688  0.5675  1.1933
   32SAPC  H17Y 4364   3.799   5.484   8.136  0.3454  1.0570 -1.5641
   32SAPC  C318 4365   3.796   5.616   8.294 -0.1399  0.0548  0.4543
   32SAPC  H18X 4366   3.733   5.545   8.352 -1.1768  1.0269  0.5516
   32SAPC  H18Y 4367   3.724   5.690   8.255 -0.0551  1.3482  2.5842
   32SAPC  H18Z 4368   3.860   5.674   8.364  2.3785 -0.2793 -1.4371
   33POPC     N 4369   0.733   6.397  10.482 -1.0159  0.3007 -0.6588
   33POPC   C12 4370   0.701   6.283  10.392  0.4881  0.5739 -0.2614
   33POPC  H12A 4371   0.794   6.249  10.347  0.6802 -0.1823  0.6730
   33POPC  H12B 4372   0.645   6.330  10.312  1.1777  0.5034 -0.7987
   33POPC   C13 4373   0.611   6.455  10.542 -0.3796  0.1497 -0.8658
   33POPC  H13A 4374   0.639   6.525  10.619  1.3640 -0.5046 -0.8704
   33POPC  H13B 4375   0.551   6.503  10.465  0.2561  2.4527 -0.0219
   33POPC  H13C 4376   0.551   6.371  10.572  2.4510 -1.7345 -0.0934
   33POPC   C14 4377   0.824   6.351  10.589 -0.2933 -0.1912 -0.8013
   33POPC  H14A 4378   0.918   6.323  10.545 -0.3819 -0.1032 -1.0478
   33POPC  H14B 4379   0.843   6.427  10.664  0.4379 -2.2890  1.2669
   33POPC  H14C 4380   0.799   6.259  10.640  0.9101 -0.5035 -0.7358
   33POPC   C15 4381   0.813   6.506  10.420 -0.2501 -0.0020  0.2153
   33POPC  H15A 4382   0.762   6.564  10.345 -0.9809 -1.8138 -0.7429
   33POPC  H15B 4383   0.904   6.472  10.374  0.3611  1.8687 -0.0445
   33POPC  H15C 4384   0.852   6.578  10.490  2.3476  1.0906 -2.1786
   33POPC   C11 4385   0.612   6.168  10.458  0.8883 -0.5128 -0.0753
   33POPC  H11A 4386   0.606   6.096  10.374  4.8777 -0.6249 -0.4216
   33POPC  H11B 4387   0.509   6.205  10.478  1.0315 -0.5644  0.7888
   33POPC     P 4388   0.590   5.992  10.628 -0.4137  0.2682 -0.2048
   33POPC   O13 4389   0.519   6.041  10.745  0.0888 -1.0625 -0.2677
   33POPC   O14 4390   0.673   5.870  10.655  0.3406  0.1744  0.0705
   33POPC   O12 4391   0.674   6.108  10.564  0.4477  0.2796  1.0976
   33POPC   O11 4392   0.479   5.961  10.514  0.1045 -0.7301  0.6858
   33POPC    C1 4393   0.447   5.827  10.471 -0.0607  0.1090 -0.4172
   33POPC    HA 4394   0.488   5.748  10.537  0.1423  0.3667 -0.2314
   33POPC    HB 4395   0.337   5.815  10.466  0.0198 -0.2997 -1.4542
   33POPC    C2 4396   0.510   5.801  10.329 -0.2344 -0.2835 -0.3004
   33POPC    HS 4397   0.620   5.807  10.343 -0.5899  1.9862  2.4042
   33POPC   O21 4398   0.480   5.904  10.238  0.2555 -0.3095  0.2800
   33POPC   C21 4399   0.542   5.907  10.127  0.3490 -0.1612 -0.0983
   33POPC   O22 4400   0.648   5.852  10.099  0.4891  0.4860  0.2592
   33POPC   C22 4401   0.469   6.011  10.039  0.8011 -0.3682  0.6867
   33POPC   H2R 4402   0.487   6.112  10.082 -1.8569  1.3831 -1.9220
   33POPC   H2S 4403   0.361   5.986  10.036  0.4220  1.2222 -1.7377
   33POPC    C3 4404   0.470   5.658  10.280 -0.3129  0.2469 -0.0994
   33POPC    HX 4405   0.364   5.631  10.293 -0.2484 -1.7173 -2.7624
   33POPC    HY 4406   0.522   5.584  10.345 -0.0922 -0.1062 -0.6655
   33POPC   O31 4407   0.502   5.620  10.141 -0.0171 -0.0952  0.6781
   33POPC   C31 4408   0.623   5.571  10.104  0.6603 -0.5929  0.1704
   33POPC   O32 4409   0.717   5.553  10.175  0.3427  0.2383 -0.0637
   33POPC   C32 4410   0.617   5.563   9.951 -0.2693 -0.4039  0.5154
   33POPC   H2X 4411   0.597   5.667   9.918 -2.3438 -1.4587 -1.8588
   33POPC   H2Y 4412   0.525   5.509   9.920 -2.0898  2.7354  0.0703
   33POPC   C23 4413   0.512   6.011   9.889  0.0206 -1.0071  0.0263
   33POPC   H3R 4414   0.503   5.911   9.842 -0.8510  0.4781 -3.1949
   33POPC   H3S 4415   0.620   6.037   9.890 -0.4777  1.2980  1.8968
   33POPC   C24 4416   0.435   6.114   9.803  0.2794  0.6738  0.0085
   33POPC   H4R 4417   0.436   6.214   9.852  0.4815 -0.3970  2.3704
   33POPC   H4S 4418   0.327   6.089   9.794  0.6871 -0.5666 -2.1205
   33POPC   C25 4419   0.480   6.116   9.659 -0.1619 -0.2231  0.1500
   33POPC   H5R 4420   0.484   6.014   9.616  0.5298 -1.0809  2.0997
   33POPC   H5S 4421   0.579   6.163   9.643  0.3035 -1.4103 -0.5493
   33POPC   C26 4422   0.382   6.201   9.576  0.3709 -0.0171 -0.0792
   33POPC   H6R 4423   0.399   6.309   9.595  0.7497  0.2069 -1.5965
   33POPC   H6S 4424   0.279   6.175   9.606  0.6412 -2.5250 -1.0262
   33POPC   C27 4425   0.410   6.189   9.429  0.0523 -0.0960 -0.3136
   33POPC   H7R 4426   0.397   6.089   9.384  2.0266 -0.6126  0.1534
   33POPC   H7S 4427   0.520   6.196   9.418  0.2277 -1.6551  0.3074
   33POPC   C28 4428   0.320   6.287   9.343 -0.1668 -0.2804 -0.2866
   33POPC   H8R 4429   0.344   6.387   9.386 -0.8986 -1.0070  1.9394
   33POPC   H8S 4430   0.213   6.270   9.366 -0.0311 -1.7583 -0.6822
   33POPC   C29 4431   0.359   6.294   9.198 -0.5121  0.5431 -0.1146
   33POPC   H91 4432   0.458   6.335   9.171  2.1185 -4.2609  1.1296
   33POPC  C210 4433   0.293   6.238   9.095 -0.3462 -0.2226 -0.3079
   33POPC  H101 4434   0.327   6.254   8.992 -1.3669  0.6202 -0.5301
   33POPC  C211 4435   0.175   6.137   9.111 -0.2953  0.6858  0.2668
   33POPC  H11R 4436   0.087   6.201   9.088 -0.7686  0.4135  1.2582
   33POPC  H11S 4437   0.168   6.107   9.217 -0.7756  1.2422  0.3992
   33POPC  C212 4438   0.189   6.021   9.016 -0.0218 -0.4232  0.6646
   33POPC  H12R 4439   0.101   5.956   9.035 -0.4181  0.2739  1.2966
   33POPC  H12S 4440   0.290   5.977   9.030  0.8095  1.6279  1.4858
   33POPC  C213 4441   0.185   6.047   8.866 -0.0801 -0.8212 -0.3377
   33POPC  H13R 4442   0.240   5.969   8.810  0.2933 -1.2430  0.6031
   33POPC  H13S 4443   0.235   6.144   8.845 -3.3963  0.6804 -2.0483
   33POPC  C214 4444   0.045   6.056   8.802  0.3388 -0.1507 -0.0669
   33POPC  H14R 4445  -0.015   6.132   8.857  1.8817  1.0064  0.0855
   33POPC  H14S 4446  -0.005   5.961   8.828 -0.9047  0.9708  1.8658
   33POPC  C215 4447   0.050   6.083   8.657 -0.2859 -0.5609  0.0420
   33POPC  H15R 4448  -0.055   6.089   8.619 -1.0137 -1.8284  1.7540
   33POPC  H15S 4449   0.103   6.001   8.604 -0.6467 -1.0939  0.4978
   33POPC  C216 4450   0.120   6.214   8.609 -0.8319 -0.0211 -0.3531
   33POPC  H16R 4451   0.228   6.210   8.634 -0.5277  2.0310 -1.1244
   33POPC  H16S 4452   0.083   6.296   8.675 -0.0773  0.6308 -0.7168
   33POPC  C217 4453   0.112   6.252   8.457  0.5123  0.2146 -0.7760
   33POPC  H17R 4454   0.153   6.354   8.440 -0.0017  1.0332  2.2654
   33POPC  H17S 4455   0.003   6.271   8.454  0.2974 -0.3902  1.3050
   33POPC  C218 4456   0.156   6.145   8.363  0.3598  0.3479  0.1933
   33POPC  H18R 4457   0.110   6.177   8.267  1.1701 -0.6820 -0.5602
   33POPC  H18S 4458   0.108   6.051   8.395  0.2422  0.3793  0.1095
   33POPC  H18T 4459   0.266   6.128   8.367  0.2930 -0.6700 -1.2790
   33POPC   C33 4460   0.735   5.486   9.890  0.0284  0.5329 -0.4861
   33POPC   H3X 4461   0.720   5.377   9.905 -2.2915  1.1998  3.7547
   33POPC   H3Y 4462   0.822   5.507   9.956  0.2679  0.5917 -0.8168
   33POPC   C34 4463   0.763   5.510   9.735 -0.0476 -0.1506 -0.2316
   33POPC   H4X 4464   0.872   5.513   9.712  0.1539  1.8506  0.7651
   33POPC   H4Y 4465   0.727   5.613   9.714  1.9355  1.1036  2.0273
   33POPC   C35 4466   0.695   5.406   9.654  0.5709 -0.3885  0.7201
   33POPC   H5X 4467   0.586   5.397   9.669  0.5786  1.2658  2.0819
   33POPC   H5Y 4468   0.738   5.305   9.673  0.7164 -0.2789  0.9738
   33POPC   C36 4469   0.719   5.444   9.502 -0.4348  0.7884  0.0567
   33POPC   H6X 4470   0.821   5.417   9.469 -0.5458 -0.5608  0.7822
   33POPC   H6Y 4471   0.714   5.555   9.497  1.7714  0.8716 -3.0274
   33POPC   C37 4472   0.618   5.386   9.406 -0.5583  0.2095  0.2395
   33POPC   H7X 4473   0.514   5.417   9.428 -1.3832 -0.3318 -2.4833
   33POPC   H7Y 4474   0.629   5.276   9.416  2.7584  0.3711 -0.5763
   33POPC   C38 4475   0.647   5.415   9.254 -0.6571 -0.3354 -0.0587
   33POPC   H8X 4476   0.749   5.386   9.223 -1.2808 -2.5374 -0.2429
   33POPC   H8Y 4477   0.638   5.526   9.247  0.3511 -0.1815  0.8404
   33POPC   C39 4478   0.570   5.340   9.144  0.0451 -1.6401  0.3200
   33POPC   H9X 4479   0.463   5.372   9.143 -0.0382 -1.9217 -0.9523
   33POPC   H9Y 4480   0.567   5.232   9.171  1.6225 -1.5839  0.7883
   33POPC  C310 4481   0.627   5.350   8.998  0.0997 -0.2336  0.3982
   33POPC  H10X 4482   0.733   5.320   9.007  0.5485  1.2385  0.1473
   33POPC  H10Y 4483   0.625   5.453   8.957  1.6956 -0.2589  0.2247
   33POPC  C311 4484   0.561   5.261   8.897  0.3354 -0.0603 -0.4157
   33POPC  H11X 4485   0.452   5.284   8.909  0.1134 -1.0383 -0.4893
   33POPC  H11Y 4486   0.574   5.151   8.901 -1.1424 -0.2254  1.7324
   33POPC  C312 4487   0.599   5.292   8.751 -0.4973 -0.0784 -0.0926
   33POPC  H12X 4488   0.710   5.298   8.742 -0.5495 -0.2818 -0.9512
   33POPC  H12Y 4489   0.567   5.391   8.711  2.7636  1.0131 -0.3718
   33POPC  C313 4490   0.535   5.194   8.657 -0.0118  0.5614  0.0227
   33POPC  H13X 4491   0.425   5.209   8.654  0.0317  0.9206 -3.2000
   33POPC  H13Y 4492   0.556   5.090   8.690  0.5704 -0.6199 -3.6754
   33POPC  C314 4493   0.602   5.199   8.513 -0.4180 -0.0865  0.1050
   33POPC  H14X 4494   0.603   5.304   8.477 -2.8954  0.4978  1.4886
   33POPC  H14Y 4495   0.533   5.138   8.451 -1.4126  1.4554 -0.3447
   33POPC  C315 4496   0.751   5.139   8.504  0.6911  0.5308  1.1773
   33POPC  H15X 4497   0.803   5.146   8.602  1.0525 -1.8541  1.2061
   33POPC  H15Y 4498   0.809   5.193   8.425 -0.1198 -1.7676 -1.1190
   33POPC  C316 4499   0.744   4.993   8.467 -0.1904  0.4489  0.3412
   33POPC  H16X 4500   0.844   4.944   8.469  0.1362  0.8636 -2.0338
   33POPC  H16Y 4501   0.700   4.966   8.369 -2.7857  1.8471  1.0307
   33POPC  H16Z 4502   0.674   4.945   8.538 -2.2629 -0.1922 -1.9912
   34POPC     N 4503   5.430   0.099  11.053 -0.3176  0.0337  0.0927
   34POPC   C12 4504   5.379   0.106  10.906 -0.1553  0.2281 -0.1633
   34POPC  H12A 4505   5.322   0.196  10.889 -2.1468 -0.8083  0.5669
   34POPC  H12B 4506   5.306   0.028  10.888 -2.3611  2.4307 -1.4038
   34POPC   C13 4507   5.547   0.191  11.076  0.3178 -0.1319 -0.2081
   34POPC  H13A 4508   5.522   0.295  11.094  1.0561 -0.0030  0.1385
   34POPC  H13B 4509   5.605   0.167  11.164  0.6314  2.0408  0.2593
   34POPC  H13C 4510   5.619   0.193  10.995  1.6133  1.1309  0.9053
   34POPC   C14 4511   5.322   0.140  11.142 -0.1474  0.5452 -0.2881
   34POPC  H14A 4512   5.343   0.140  11.248 -0.2364 -1.4934 -0.2329
   34POPC  H14B 4513   5.288   0.239  11.114  1.8471  1.1315 -0.8618
   34POPC  H14C 4514   5.236   0.080  11.116 -1.8296  3.2235 -1.3323
   34POPC   C15 4515   5.473  -0.037  11.083  0.1089 -0.7091  0.5058
   34POPC  H15A 4516   5.477  -0.059  11.189  0.6076  1.0193  0.8758
   34POPC  H15B 4517   5.573  -0.047  11.044  0.5062 -0.3427  1.3911
   34POPC  H15C 4518   5.416  -0.116  11.036 -0.9416  0.9780 -1.2069
   34POPC   C11 4519   5.489   0.079  10.792  0.2956 -0.1672 -0.6352
   34POPC  H11A 4520   5.566   0.159  10.791  1.1454 -0.9662 -0.3399
   34POPC  H11B 4521   5.439   0.083  10.693 -1.7696 -0.9098  0.3352
   34POPC     P 4522   5.500  -0.179  10.744  0.1521 -0.4023  0.1033
   34POPC   O13 4523   5.352  -0.174  10.772  0.1581 -0.4710  0.0368
   34POPC   O14 4524   5.569  -0.292  10.809 -0.3986 -0.4254  0.2438
   34POPC   O12 4525   5.560  -0.043  10.799 -0.4280  0.1590  0.3299
   34POPC   O11 4526   5.517  -0.186  10.582  0.2804 -0.4738 -0.3740
   34POPC    C1 4527   5.632  -0.263  10.545 -0.8373  0.2562 -0.7985
   34POPC    HA 4528   5.614  -0.371  10.563  0.0364  0.3517  0.9091
   34POPC    HB 4529   5.726  -0.232  10.595 -2.5215  1.2407  1.9980
   34POPC    C2 4530   5.659  -0.246  10.396 -0.0637  0.1914  0.2137
   34POPC    HS 4531   5.749  -0.300  10.360 -0.3145 -0.6803  0.8503
   34POPC   O21 4532   5.666  -0.103  10.368  0.3333  0.2230  0.4560
   34POPC   C21 4533   5.776  -0.050  10.405  0.1589 -0.2051 -0.1128
   34POPC   O22 4534   5.878  -0.116  10.430 -0.6927 -0.2353  0.0955
   34POPC   C22 4535   5.764   0.105  10.423 -0.7527  0.2604  0.9158
   34POPC   H2R 4536   5.855   0.147  10.470  0.7710 -1.0534 -0.7043
   34POPC   H2S 4537   5.673   0.118  10.484 -0.8002  1.3569  0.6308
   34POPC    C3 4538   5.539  -0.308  10.316 -1.0685  0.2738  0.1183
   34POPC    HX 4539   5.439  -0.286  10.359 -0.1581  1.0769  1.9539
   34POPC    HY 4540   5.552  -0.418  10.322 -1.7180  0.0581 -1.6277
   34POPC   O31 4541   5.535  -0.275  10.181  0.0352  0.2266 -0.3076
   34POPC   C31 4542   5.484  -0.164  10.138 -0.1408 -0.5848 -0.0509
   34POPC   O32 4543   5.426  -0.076  10.202 -0.2793  0.4746  0.4264
   34POPC   C32 4544   5.514  -0.150   9.993  0.0837 -0.3179  0.0275
   34POPC   H2X 4545   5.419  -0.123   9.942  0.5373 -0.7300 -1.0498
   34POPC   H2Y 4546   5.544  -0.248   9.951 -1.0810 -0.6179 -0.1492
   34POPC   C23 4547   5.732   0.172  10.293 -0.0579 -0.5017 -0.1170
   34POPC   H3R 4548   5.689   0.272  10.315  0.1257 -0.2548 -0.8361
   34POPC   H3S 4549   5.646   0.123  10.242  0.0718 -1.0753  0.2071
   34POPC   C24 4550   5.843   0.188  10.187 -0.4596  0.2136 -0.1937
   34POPC   H4R 4551   5.860   0.087  10.142 -1.6684  0.7852 -2.0696
   34POPC   H4S 4552   5.936   0.214  10.242 -1.3147  2.4613  0.2712
   34POPC   C25 4553   5.815   0.290  10.084  0.0790  0.0432  0.0843
   34POPC   H5R 4554   5.827   0.384  10.142  1.0360  0.5928 -0.9651
   34POPC   H5S 4555   5.711   0.297  10.045  0.6156  2.0257 -1.1289
   34POPC   C26 4556   5.920   0.289   9.970  0.2242 -0.4502  0.2629
   34POPC   H6R 4557   5.885   0.215   9.895 -0.8369 -0.0550  0.3512
   34POPC   H6S 4558   6.016   0.250  10.010  2.2822  1.5139 -2.4167
   34POPC   C27 4559   5.930   0.425   9.899 -0.5109  0.1278 -0.4699
   34POPC   H7R 4560   5.989   0.503   9.954 -1.4013  0.8320 -0.4897
   34POPC   H7S 4561   5.833   0.478   9.908 -1.4842 -1.5336 -0.9521
   34POPC   C28 4562   5.988   0.401   9.762  1.0413 -0.2812  0.4042
   34POPC   H8R 4563   6.064   0.321   9.770  0.1860 -1.0544  0.9218
   34POPC   H8S 4564   6.031   0.499   9.730 -1.5403  0.2602 -1.7580
   34POPC   C29 4565   5.873   0.373   9.662 -0.2554 -0.2000  0.0545
   34POPC   H91 4566   5.787   0.441   9.660  0.4629  0.7880 -3.4912
   34POPC  C210 4567   5.860   0.266   9.576 -0.2125  1.0564 -0.4259
   34POPC  H101 4568   5.766   0.265   9.518 -1.2983  0.1002  1.2608
   34POPC  C211 4569   5.959   0.153   9.556 -0.7502  0.2991  0.1124
   34POPC  H11R 4570   5.925   0.052   9.586  2.9615 -1.0100  0.4294
   34POPC  H11S 4571   6.042   0.155   9.630  0.8997 -0.0100 -1.6530
   34POPC  C212 4572   6.007   0.144   9.409  0.1238  0.6123 -0.1979
   34POPC  H12R 4573   5.919   0.156   9.341 -0.2849 -0.2284  0.1684
   34POPC  H12S 4574   6.046   0.040   9.401 -0.8068  0.1184  1.2713
   34POPC  C213 4575   6.104   0.254   9.365  0.3575 -0.0455 -0.3938
   34POPC  H13R 4576   6.202   0.228   9.411  1.0892  3.0040  0.0112
   34POPC  H13S 4577   6.076   0.358   9.392 -2.0740 -1.3722  2.9304
   34POPC  C214 4578   6.130   0.249   9.210 -0.4815  0.1686 -0.0871
   34POPC  H14R 4579   6.138   0.142   9.183 -3.4320 -0.7267  2.0302
   34POPC  H14S 4580   6.226   0.305   9.201 -0.9535  1.0939  0.4658
   34POPC  C215 4581   6.022   0.304   9.117 -0.0373 -0.2246  0.0912
   34POPC  H15R 4582   5.996   0.407   9.152  1.4197  0.0445  0.4408
   34POPC  H15S 4583   5.929   0.245   9.102 -0.6540  0.8213 -0.3952
   34POPC  C216 4584   6.071   0.324   8.971 -0.1176  0.5710 -0.0667
   34POPC  H16R 4585   6.169   0.374   8.976 -0.5103  1.3141  0.3321
   34POPC  H16S 4586   6.001   0.394   8.921  1.3842  1.9018 -0.3725
   34POPC  C217 4587   6.067   0.195   8.878 -0.0663 -0.4317 -0.1729
   34POPC  H17R 4588   5.964   0.154   8.890  0.1580 -0.4345  2.4147
   34POPC  H17S 4589   6.144   0.122   8.912 -0.9280 -1.0801  0.4561
   34POPC  C218 4590   6.083   0.231   8.735 -0.1199  0.1084  0.7965
   34POPC  H18R 4591   5.981   0.242   8.693  0.2216  1.1818  0.1860
   34POPC  H18S 4592   6.125   0.138   8.691 -0.2220  0.6571 -0.4963
   34POPC  H18T 4593   6.144   0.321   8.709  2.9200 -1.0205  3.3561
   34POPC   C33 4594   5.640  -0.056   9.974  0.2561  0.3837 -0.1202
   34POPC   H3X 4595   5.722  -0.125  10.004 -1.6876 -2.0181  0.0213
   34POPC   H3Y 4596   5.649   0.029  10.045  1.5194 -0.8910  1.3368
   34POPC   C34 4597   5.665  -0.004   9.831 -0.5044 -0.8121  0.2394
   34POPC   H4X 4598   5.752   0.064   9.828 -0.3834 -0.7346  3.0503
   34POPC   H4Y 4599   5.572   0.043   9.793 -0.0415  0.5251  0.7295
   34POPC   C35 4600   5.719  -0.110   9.735 -0.0003  0.8856 -0.8151
   34POPC   H5X 4601   5.699  -0.209   9.781  0.5902  1.0275 -0.2312
   34POPC   H5Y 4602   5.829  -0.103   9.719  0.6486 -0.0944  2.3908
   34POPC   C36 4603   5.657  -0.110   9.596  0.5367 -0.3341  0.6884
   34POPC   H6X 4604   5.670  -0.005   9.563 -0.1291 -0.8040 -1.1643
   34POPC   H6Y 4605   5.548  -0.132   9.602  0.3155  0.8853  1.3160
   34POPC   C37 4606   5.730  -0.200   9.498 -0.0190  0.6805  0.2026
   34POPC   H7X 4607   5.736  -0.309   9.518  5.0118  0.1983 -2.3904
   34POPC   H7Y 4608   5.835  -0.164   9.495 -0.2717  1.4037 -0.5051
   34POPC   C38 4609   5.682  -0.192   9.350  0.2739  0.7369  0.4949
   34POPC   H8X 4610   5.653  -0.085   9.337  0.1544  0.7014  0.4691
   34POPC   H8Y 4611   5.597  -0.260   9.328  1.0539  0.7809 -3.4080
   34POPC   C39 4612   5.793  -0.235   9.261 -0.4864 -0.0816 -1.3520
   34POPC   H9X 4613   5.818  -0.340   9.289 -1.4429  0.4134  1.6563
   34POPC   H9Y 4614   5.884  -0.175   9.280  0.1274 -1.4265  0.2172
   34POPC  C310 4615   5.765  -0.211   9.107 -0.0373 -0.2936  0.6884
   34POPC  H10X 4616   5.689  -0.286   9.077 -1.8180  1.8241 -0.3908
   34POPC  H10Y 4617   5.858  -0.234   9.050  0.1256 -3.5754  2.0347
   34POPC  C311 4618   5.725  -0.074   9.063 -0.0241  0.2153 -0.2852
   34POPC  H11X 4619   5.806  -0.006   9.095 -0.5592  0.6157  0.2409
   34POPC  H11Y 4620   5.632  -0.039   9.113 -0.0214 -1.6657  1.1418
   34POPC  C312 4621   5.707  -0.065   8.912  0.3286 -0.6865  0.0274
   34POPC  H12X 4622   5.639  -0.151   8.894 -0.7285  0.3141 -0.9998
   34POPC  H12Y 4623   5.801  -0.079   8.854  0.4579 -1.4186  0.4096
   34POPC  C313 4624   5.641   0.071   8.866 -0.4830 -0.5466 -0.5940
   34POPC  H13X 4625   5.690   0.161   8.909 -1.0932 -0.1817 -0.6390
   34POPC  H13Y 4626   5.538   0.074   8.908  0.1322 -3.3477  1.3447
   34POPC  C314 4627   5.661   0.079   8.711  0.3662 -0.1109 -0.1658
   34POPC  H14X 4628   5.592   0.004   8.667 -0.3543 -0.2087  1.0917
   34POPC  H14Y 4629   5.768   0.063   8.684  0.5418 -1.5080  1.1877
   34POPC  C315 4630   5.619   0.210   8.646  0.3897 -0.0161 -0.1623
   34POPC  H15X 4631   5.614   0.194   8.536 -0.7376  0.0675 -0.1301
   34POPC  H15Y 4632   5.692   0.293   8.659 -0.8909  0.9044  1.6119
   34POPC  C316 4633   5.485   0.272   8.693  0.4730 -0.2094 -0.6638
   34POPC  H16X 4634   5.461   0.367   8.640  0.7191  0.3586  0.2339
   34POPC  H16Y 4635   5.471   0.293   8.801  0.4776 -1.1446 -0.4768
   34POPC  H16Z 4636   5.401   0.202   8.673 -1.2577  1.2550  1.0812
   35POPC     N 4637   5.512   2.830  10.780  0.2149 -0.6916 -0.4482
   35POPC   C12 4638   5.531   2.954  10.870 -0.1227 -0.3888 -0.0900
   35POPC  H12A 4639   5.491   2.925  10.966  1.9452 -3.3135  0.0050
   35POPC  H12B 4640   5.462   3.025  10.827 -0.3138  0.8634  2.1682
   35POPC   C13 4641   5.566   2.864  10.641  0.6241 -0.5781  0.1741
   35POPC  H13A 4642   5.558   2.774  10.581 -1.5842 -1.9755  2.3830
   35POPC  H13B 4643   5.518   2.948  10.593  1.3586 -1.3103 -2.0013
   35POPC  H13C 4644   5.672   2.884  10.645  0.1158  2.6780 -0.1840
   35POPC   C14 4645   5.570   2.714  10.845  0.5181 -0.3620 -0.4435
   35POPC  H14A 4646   5.535   2.705  10.947  0.1611  0.4388 -0.4912
   35POPC  H14B 4647   5.533   2.622  10.801  0.9045 -0.8115  0.1656
   35POPC  H14C 4648   5.677   2.711  10.850  0.4771  0.1350  1.1591
   35POPC   C15 4649   5.365   2.811  10.773  0.4822  0.4100  0.3704
   35POPC  H15A 4650   5.312   2.902  10.750 -0.7366 -0.2378  0.5382
   35POPC  H15B 4651   5.329   2.768  10.866  1.1030 -0.8169  0.0667
   35POPC  H15C 4652   5.342   2.743  10.693 -1.1580  0.4693  0.7560
   35POPC   C11 4653   5.673   3.024  10.878  0.7743  0.2530 -0.3239
   35POPC  H11A 4654   5.666   3.123  10.928  0.2915 -0.1533  0.4370
   35POPC  H11B 4655   5.720   3.047  10.780  0.9169 -0.0539 -0.3282
   35POPC     P 4656   5.899   2.892  10.892 -0.4177  0.1110 -0.1028
   35POPC   O13 4657   5.951   2.789  10.985 -0.5921  0.8076  0.6376
   35POPC   O14 4658   5.983   3.007  10.855  0.5436  0.5675  0.1921
   35POPC   O12 4659   5.764   2.940  10.959  0.9402 -0.2190  0.0353
   35POPC   O11 4660   5.870   2.813  10.767 -0.1888  0.0064 -0.1039
   35POPC    C1 4661   5.982   2.785  10.680  0.5357 -0.2595  0.5131
   35POPC    HA 4662   6.038   2.696  10.714  2.4170  1.3155  1.7532
   35POPC    HB 4663   6.049   2.872  10.663 -0.2795  0.7338  2.0706
   35POPC    C2 4664   5.933   2.760  10.533 -0.3175  0.1449 -0.0810
   35POPC    HS 4665   6.026   2.751  10.473  0.3838  1.7342  0.6943
   35POPC   O21 4666   5.843   2.858  10.493  0.4670  0.3232  0.9835
   35POPC   C21 4667   5.893   2.966  10.442 -0.2199  0.0936  0.3987
   35POPC   O22 4668   6.012   2.991  10.438 -0.5567 -0.9367 -0.3950
   35POPC   C22 4669   5.785   3.066  10.397 -0.4168  0.2001 -0.4465
   35POPC   H2R 4670   5.839   3.148  10.345 -1.5509  1.2087 -0.0768
   35POPC   H2S 4671   5.753   3.104  10.496  2.3307 -0.8315  0.9440
   35POPC    C3 4672   5.868   2.615  10.515  0.0373  0.3304 -0.1737
   35POPC    HX 4673   5.783   2.612  10.586  0.9167  1.3766  0.9692
   35POPC    HY 4674   5.935   2.533  10.551 -1.1998  0.4965  2.7760
   35POPC   O31 4675   5.827   2.587  10.380 -0.0785 -0.3988 -0.3741
   35POPC   C31 4676   5.699   2.608  10.348 -0.3126 -0.6224  0.1926
   35POPC   O32 4677   5.617   2.668  10.422 -0.6177  0.5228  0.2446
   35POPC   C32 4678   5.665   2.534  10.216  0.5037  0.0066 -0.3578
   35POPC   H2X 4679   5.758   2.498  10.166  0.8577 -0.2687  0.4725
   35POPC   H2Y 4680   5.610   2.598  10.144 -1.3294 -0.5816  0.4671
   35POPC   C23 4681   5.677   3.012  10.305  0.1563  0.1180  0.1208
   35POPC   H3R 4682   5.594   3.085  10.296 -0.9068 -0.8029  1.8386
   35POPC   H3S 4683   5.646   2.917  10.354  1.4331 -0.1041  0.5362
   35POPC   C24 4684   5.724   2.988  10.163 -0.0542 -0.4104 -0.5030
   35POPC   H4R 4685   5.813   2.922  10.164  0.9384  0.8743  1.7213
   35POPC   H4S 4686   5.761   3.087  10.129 -2.0200 -0.2626 -2.4752
   35POPC   C25 4687   5.617   2.929  10.079  0.4006 -0.2792  0.4879
   35POPC   H5R 4688   5.519   2.980  10.068 -0.0777 -0.9920  1.2800
   35POPC   H5S 4689   5.595   2.843  10.146 -4.0561  1.6356  1.8282
   35POPC   C26 4690   5.663   2.879   9.941 -0.1099  0.3164 -0.6495
   35POPC   H6R 4691   5.763   2.835   9.963  0.3921  2.7494  2.6124
   35POPC   H6S 4692   5.675   2.957   9.863  2.8982 -0.7819 -1.4040
   35POPC   C27 4693   5.558   2.774   9.884  0.2449  0.4421 -0.1708
   35POPC   H7R 4694   5.461   2.829   9.887 -0.0593 -0.1195  0.8808
   35POPC   H7S 4695   5.559   2.682   9.946 -1.2252 -0.5946 -1.5996
   35POPC   C28 4696   5.597   2.734   9.738  0.3994  0.4528 -0.2456
   35POPC   H8R 4697   5.708   2.726   9.742  0.3409 -0.3380 -0.0277
   35POPC   H8S 4698   5.571   2.825   9.679  1.0904  2.3027  2.1330
   35POPC   C29 4699   5.522   2.617   9.681 -0.1236 -0.1531 -0.2258
   35POPC   H91 4700   5.463   2.559   9.754  0.3675 -1.1751 -0.6135
   35POPC  C210 4701   5.541   2.574   9.552  0.0775  0.0210  0.6061
   35POPC  H101 4702   5.476   2.490   9.525  0.5311  0.8158 -3.7097
   35POPC  C211 4703   5.628   2.636   9.450 -0.2094  0.3204  0.5092
   35POPC  H11R 4704   5.706   2.566   9.412 -1.5315 -0.3192 -1.1235
   35POPC  H11S 4705   5.677   2.731   9.480  0.6839  0.6687 -1.8922
   35POPC  C212 4706   5.555   2.681   9.323 -0.6087  0.2734  0.6121
   35POPC  H12R 4707   5.633   2.720   9.254 -0.0985 -1.3867  0.2092
   35POPC  H12S 4708   5.485   2.762   9.352 -1.8576 -0.7488  0.5395
   35POPC  C213 4709   5.487   2.560   9.259 -0.2323  0.2934 -0.5099
   35POPC  H13R 4710   5.419   2.518   9.336  1.4560  0.6556  1.2366
   35POPC  H13S 4711   5.563   2.481   9.244 -1.3196 -0.5523 -1.7932
   35POPC  C214 4712   5.432   2.586   9.117 -0.1371 -0.6045  0.1056
   35POPC  H14R 4713   5.519   2.599   9.049  0.1240  1.9335  0.8029
   35POPC  H14S 4714   5.377   2.683   9.121  3.2804  1.4932  1.0756
   35POPC  C215 4715   5.338   2.472   9.062  0.4378  0.0657  0.2257
   35POPC  H15R 4716   5.255   2.457   9.134  1.4878  1.4575  1.8146
   35POPC  H15S 4717   5.395   2.377   9.055 -0.2010 -0.3959  1.1667
   35POPC  C216 4718   5.266   2.511   8.928 -0.5360  1.0202  0.4572
   35POPC  H16R 4719   5.207   2.605   8.925 -2.3683 -0.0804  0.2401
   35POPC  H16S 4720   5.195   2.428   8.905 -1.7539  1.6727  1.7373
   35POPC  C217 4721   5.364   2.530   8.812 -0.7286  0.1561 -0.0181
   35POPC  H17R 4722   5.426   2.442   8.786  0.0272  0.2166  1.4532
   35POPC  H17S 4723   5.437   2.609   8.839  0.4901 -0.5934 -1.0086
   35POPC  C218 4724   5.292   2.568   8.680  0.5174  0.1680  0.2824
   35POPC  H18R 4725   5.354   2.552   8.589  1.3280 -1.9673  1.1512
   35POPC  H18S 4726   5.255   2.673   8.683 -0.0566  0.0297 -1.0839
   35POPC  H18T 4727   5.201   2.506   8.687  0.7296 -0.0149  1.7983
   35POPC   C33 4728   5.582   2.407  10.225 -0.2684  0.6459 -0.9458
   35POPC   H3X 4729   5.476   2.438  10.241 -0.1721 -0.1984  1.8562
   35POPC   H3Y 4730   5.607   2.361  10.323  0.3092  1.4162 -0.7308
   35POPC   C34 4731   5.604   2.300  10.125 -0.5679  0.4391  0.4055
   35POPC   H4X 4732   5.528   2.220  10.134  0.1996 -0.1720  1.6969
   35POPC   H4Y 4733   5.699   2.249  10.151 -0.1282  1.0927  0.1224
   35POPC   C35 4734   5.587   2.348   9.980 -0.2038 -0.0104 -0.2706
   35POPC   H5X 4735   5.644   2.441   9.959  1.1652 -0.1167  2.5324
   35POPC   H5Y 4736   5.478   2.358   9.957 -0.1101  0.6679 -0.4589
   35POPC   C36 4737   5.622   2.239   9.873  0.3656  0.0216 -0.3775
   35POPC   H6X 4738   5.562   2.153   9.910 -0.1363  1.2723  1.9759
   35POPC   H6Y 4739   5.732   2.233   9.882  0.4572  1.9343  0.2699
   35POPC   C37 4740   5.589   2.277   9.733  0.4387  0.7359 -0.1812
   35POPC   H7X 4741   5.661   2.356   9.702  2.4445 -1.3272 -1.1617
   35POPC   H7Y 4742   5.485   2.314   9.738  0.1243 -0.2797  1.1670
   35POPC   C38 4743   5.606   2.159   9.633  0.0616  0.1148 -0.9841
   35POPC   H8X 4744   5.544   2.074   9.668  0.2294 -0.0958 -1.1918
   35POPC   H8Y 4745   5.710   2.123   9.618  0.0265  0.4322 -2.0181
   35POPC   C39 4746   5.556   2.203   9.488 -0.4482  0.9864 -0.3338
   35POPC   H9X 4747   5.607   2.293   9.449 -1.3984  0.8456 -2.0260
   35POPC   H9Y 4748   5.451   2.240   9.494 -0.9247 -0.5282  1.7895
   35POPC  C310 4749   5.559   2.094   9.381 -0.6421  0.7859 -0.4622
   35POPC  H10X 4750   5.536   1.995   9.426  0.7470 -1.0756 -3.5430
   35POPC  H10Y 4751   5.663   2.087   9.342  0.1553 -0.2275  1.6916
   35POPC  C311 4752   5.471   2.120   9.255 -0.0913  0.2840  0.2297
   35POPC  H11X 4753   5.535   2.090   9.169 -1.1353 -0.7108 -0.2181
   35POPC  H11Y 4754   5.445   2.228   9.257 -2.1411 -0.1008 -1.4949
   35POPC  C312 4755   5.340   2.045   9.257  0.5369 -0.1536 -0.4241
   35POPC  H12X 4756   5.303   2.062   9.360  0.1245  0.0920 -0.6093
   35POPC  H12Y 4757   5.354   1.936   9.238  1.1864 -0.0571 -0.5210
   35POPC  C313 4758   5.244   2.114   9.155  0.3595  0.1335 -0.2568
   35POPC  H13X 4759   5.296   2.123   9.058 -0.4902  0.7492 -0.6680
   35POPC  H13Y 4760   5.253   2.220   9.188 -1.3334  0.3539 -0.4479
   35POPC  C314 4761   5.101   2.070   9.159  0.9649  0.1614  0.0517
   35POPC  H14X 4762   5.070   2.065   9.265 -0.4431 -0.8447 -0.3726
   35POPC  H14Y 4763   5.087   1.961   9.138 -2.2066  0.4502  0.2708
   35POPC  C315 4764   5.014   2.138   9.056  0.5538  0.4140  0.6636
   35POPC  H15X 4765   5.044   2.101   8.955 -0.7053 -1.7375  1.0229
   35POPC  H15Y 4766   5.040   2.246   9.047 -0.0315  0.5592  0.6785
   35POPC  C316 4767   4.869   2.118   9.086 -0.3301 -0.3095 -0.0486
   35POPC  H16X 4768   4.856   2.008   9.090 -0.0555 -0.3229  0.8344
   35POPC  H16Y 4769   4.803   2.174   9.017 -0.9689 -2.0917 -0.9245
   35POPC  H16Z 4770   4.843   2.165   9.184  0.0987  0.3221 -0.2296
   36POPC     N 4771   4.482   1.956  10.922  0.2031 -0.5174  0.2690
   36POPC   C12 4772   4.588   2.028  11.002  0.6976  0.3515 -0.8068
   36POPC  H12A 4773   4.667   1.959  11.028 -0.2852 -0.0719  1.2517
   36POPC  H12B 4774   4.550   2.067  11.095 -2.1008 -2.6604 -0.4750
   36POPC   C13 4775   4.441   1.832  10.986  0.5412  0.0358 -0.0456
   36POPC  H13A 4776   4.526   1.767  11.005  1.8988  1.2613 -1.5722
   36POPC  H13B 4777   4.399   1.856  11.082 -0.0281 -0.4653 -0.1688
   36POPC  H13C 4778   4.363   1.786  10.928  0.6330  1.2923 -1.2250
   36POPC   C14 4779   4.358   2.040  10.909 -0.8786  0.2016 -0.2611
   36POPC  H14A 4780   4.335   2.081  11.006  2.5643 -1.3784  1.3939
   36POPC  H14B 4781   4.387   2.122  10.845  2.4942 -1.0193 -0.5047
   36POPC  H14C 4782   4.279   1.987  10.858 -0.2104  1.7986 -3.1591
   36POPC   C15 4783   4.522   1.918  10.784 -0.0203  0.8941  0.2380
   36POPC  H15A 4784   4.445   1.865  10.730  0.0986 -0.9598  1.7513
   36POPC  H15B 4785   4.608   1.853  10.784 -0.0773  0.7987 -1.0173
   36POPC  H15C 4786   4.552   2.009  10.736 -1.0830  0.5273 -1.1777
   36POPC   C11 4787   4.657   2.147  10.928  0.0918  1.0251 -0.8008
   36POPC  H11A 4788   4.700   2.106  10.834 -1.8055  1.5614 -1.9604
   36POPC  H11B 4789   4.750   2.183  10.976  0.7672  0.8632 -1.9387
   36POPC     P 4790   4.538   2.361  11.014 -0.0968  0.0422  0.0132
   36POPC   O13 4791   4.655   2.444  11.036 -0.0770 -0.3344 -0.3083
   36POPC   O14 4792   4.476   2.298  11.130  0.3457  0.4087  0.1678
   36POPC   O12 4793   4.569   2.252  10.905 -0.2854 -0.2341 -0.5731
   36POPC   O11 4794   4.424   2.441  10.958 -0.7609  0.2272 -0.6784
   36POPC    C1 4795   4.350   2.402  10.840  0.0684  0.2917 -0.1970
   36POPC    HA 4796   4.241   2.406  10.861 -0.1875 -1.6697 -0.9120
   36POPC    HB 4797   4.372   2.297  10.812  0.8822  0.8074 -1.5993
   36POPC    C2 4798   4.372   2.499  10.722 -0.3167 -0.4715  0.4060
   36POPC    HS 4799   4.302   2.469  10.641 -1.2898  1.4964  0.4439
   36POPC   O21 4800   4.510   2.488  10.676  0.3539 -0.2487 -0.0085
   36POPC   C21 4801   4.538   2.372  10.621 -0.5268  0.2512  0.0795
   36POPC   O22 4802   4.457   2.282  10.595  0.2322 -0.1852 -0.5579
   36POPC   C22 4803   4.682   2.366  10.580  0.2075  0.0891 -0.0309
   36POPC   H2R 4804   4.733   2.309  10.661  2.7026 -0.2075 -1.6852
   36POPC   H2S 4805   4.717   2.472  10.577 -2.1565  0.8940 -2.5263
   36POPC    C3 4806   4.330   2.645  10.750 -0.0619  0.4864  0.6767
   36POPC    HX 4807   4.408   2.684  10.818  1.9220 -1.8013 -0.1508
   36POPC    HY 4808   4.232   2.640  10.802 -0.7377 -0.3983 -0.6349
   36POPC   O31 4809   4.318   2.710  10.619  0.3255 -0.1060 -0.0444
   36POPC   C31 4810   4.294   2.838  10.633 -0.1955  0.2760  0.6147
   36POPC   O32 4811   4.286   2.899  10.739  0.3673 -0.1740  0.2671
   36POPC   C32 4812   4.288   2.886  10.488  0.1960 -0.1034 -0.8019
   36POPC   H2X 4813   4.315   2.805  10.417  0.1159  0.2641 -1.2608
   36POPC   H2Y 4814   4.358   2.970  10.468 -0.3327  0.7262  0.6679
   36POPC   C23 4815   4.693   2.279  10.448 -0.2108  0.1821 -0.4437
   36POPC   H3R 4816   4.608   2.279  10.376 -1.4039  2.5780  0.8666
   36POPC   H3S 4817   4.731   2.176  10.466  0.5998  0.3924 -0.9033
   36POPC   C24 4818   4.797   2.349  10.357  0.0460  0.2147  0.3183
   36POPC   H4R 4819   4.896   2.364  10.405  1.3135  2.5407 -2.7044
   36POPC   H4S 4820   4.767   2.454  10.334  0.4574  1.1482  3.4512
   36POPC   C25 4821   4.833   2.274  10.230  0.1479 -0.7306 -0.8552
   36POPC   H5R 4822   4.882   2.175  10.244 -0.0828 -0.9815 -1.7348
   36POPC   H5S 4823   4.908   2.330  10.171  0.2663 -0.7221 -0.6979
   36POPC   C26 4824   4.713   2.243  10.133 -0.2317 -0.6827 -0.4713
   36POPC   H6R 4825   4.690   2.348  10.104  0.3422  0.1558  1.8727
   36POPC   H6S 4826   4.625   2.199  10.184  0.1845  0.2763  1.1538
   36POPC   C27 4827   4.759   2.155  10.018 -0.8055 -0.5336 -0.0339
   36POPC   H7R 4828   4.792   2.055  10.052  1.4738  0.0854 -0.2660
   36POPC   H7S 4829   4.849   2.209   9.981 -2.1659  0.0008 -2.8856
   36POPC   C28 4830   4.665   2.163   9.891  0.3506  0.2809  0.7678
   36POPC   H8R 4831   4.686   2.259   9.838 -0.5164  0.0068 -0.1051
   36POPC   H8S 4832   4.557   2.162   9.916 -1.1176 -0.1597 -4.4943
   36POPC   C29 4833   4.697   2.047   9.800  0.2920  0.1184 -0.1122
   36POPC   H91 4834   4.699   1.954   9.859 -1.0502  1.6241  2.4840
   36POPC  C210 4835   4.731   2.052   9.668  0.1108  0.3082  0.2341
   36POPC  H101 4836   4.753   1.958   9.616 -0.6472 -0.3740  1.0975
   36POPC  C211 4837   4.748   2.180   9.590  0.3246  0.0742 -0.2454
   36POPC  H11R 4838   4.816   2.153   9.506 -3.7739 -0.2321 -3.7775
   36POPC  H11S 4839   4.805   2.253   9.652  1.2779  1.0051 -2.1157
   36POPC  C212 4840   4.626   2.231   9.516 -0.3895 -0.2582 -0.2950
   36POPC  H12R 4841   4.673   2.312   9.456  0.5284 -0.5123  0.0649
   36POPC  H12S 4842   4.548   2.265   9.588  0.4990  1.5494 -0.1210
   36POPC  C213 4843   4.547   2.123   9.433 -0.2300  0.0479 -0.2617
   36POPC  H13R 4844   4.492   2.053   9.499  0.6277  0.6240  1.1093
   36POPC  H13S 4845   4.625   2.063   9.382  1.7198  0.8694  1.5843
   36POPC  C214 4846   4.457   2.189   9.324 -0.3043  0.2217  0.9904
   36POPC  H14R 4847   4.509   2.274   9.275 -0.5332  0.2485  0.7868
   36POPC  H14S 4848   4.372   2.235   9.379 -0.0899  1.6646  0.1626
   36POPC  C215 4849   4.402   2.093   9.216 -0.7691 -0.1254  0.6283
   36POPC  H15R 4850   4.332   2.021   9.263  1.1059 -1.9852  0.7457
   36POPC  H15S 4851   4.478   2.026   9.171 -1.2415  0.2837 -0.8398
   36POPC  C216 4852   4.315   2.154   9.103 -0.2178 -0.3037  0.2363
   36POPC  H16R 4853   4.247   2.216   9.164  1.3995  0.4999  1.2717
   36POPC  H16S 4854   4.256   2.081   9.044  0.4476 -0.9186  0.3199
   36POPC  C217 4855   4.383   2.253   9.007 -0.3709  0.6310 -0.0541
   36POPC  H17R 4856   4.436   2.336   9.059  1.9224  0.4022 -1.8732
   36POPC  H17S 4857   4.312   2.299   8.935  0.7493  1.0673 -0.9281
   36POPC  C218 4858   4.490   2.197   8.913 -0.0499  0.2590  0.4890
   36POPC  H18R 4859   4.517   2.268   8.832  0.9779 -2.1310 -1.4096
   36POPC  H18S 4860   4.442   2.106   8.870  1.2490 -0.3026  0.1654
   36POPC  H18T 4861   4.578   2.168   8.975 -1.2115 -1.5711  1.3624
   36POPC   C33 4862   4.144   2.931  10.452  0.2134 -0.1997  0.2897
   36POPC   H3X 4863   4.104   3.000  10.529 -0.1915 -0.1999  0.0842
   36POPC   H3Y 4864   4.079   2.841  10.457  0.6044 -0.5180 -0.2582
   36POPC   C34 4865   4.131   2.992  10.314  0.5996 -0.2198  0.0195
   36POPC   H4X 4866   4.021   2.997  10.298  0.4360 -2.5044  0.0590
   36POPC   H4Y 4867   4.178   2.930  10.235 -1.2228  1.4484 -2.5567
   36POPC   C35 4868   4.181   3.138  10.309 -0.8950  0.6670 -0.4639
   36POPC   H5X 4869   4.288   3.135  10.278 -0.9009 -1.6539 -0.4451
   36POPC   H5Y 4870   4.166   3.197  10.402 -0.4444  3.7146 -2.1894
   36POPC   C36 4871   4.113   3.226  10.209  0.3046  0.0591  0.4644
   36POPC   H6X 4872   4.154   3.329  10.199  0.2897  0.0080 -0.1768
   36POPC   H6Y 4873   4.014   3.250  10.253 -0.2798  1.4258 -1.4512
   36POPC   C37 4874   4.102   3.158  10.066 -0.4260 -0.1564 -0.0237
   36POPC   H7X 4875   4.039   3.234  10.016 -0.7009  0.3383  1.0460
   36POPC   H7Y 4876   4.054   3.058  10.065 -0.4789 -0.1425 -2.0235
   36POPC   C38 4877   4.243   3.162  10.009  0.6175  0.6957  0.5812
   36POPC   H8X 4878   4.306   3.091  10.067  0.3640 -0.0110  0.0011
   36POPC   H8Y 4879   4.292   3.261  10.022  2.4959 -0.0077 -0.6944
   36POPC   C39 4880   4.261   3.120   9.864  0.6383  0.0715 -0.1998
   36POPC   H9X 4881   4.206   3.023   9.858 -2.4221  1.4560  2.3863
   36POPC   H9Y 4882   4.370   3.110   9.849  0.5164 -0.8924 -0.5598
   36POPC  C310 4883   4.198   3.211   9.759 -0.5765 -0.6655  0.1745
   36POPC  H10X 4884   4.235   3.315   9.771  1.8298 -1.4343 -0.1599
   36POPC  H10Y 4885   4.088   3.211   9.774 -0.5708  1.5050  0.5431
   36POPC  C311 4886   4.245   3.180   9.619  0.1041  0.1200 -0.1381
   36POPC  H11X 4887   4.235   3.071   9.601  2.4879 -0.1497 -0.1987
   36POPC  H11Y 4888   4.355   3.194   9.621  0.3027 -1.3544  0.4112
   36POPC  C312 4889   4.190   3.263   9.502 -1.4342  0.2713 -0.4053
   36POPC  H12X 4890   4.264   3.256   9.420  0.1080 -0.5727  0.9899
   36POPC  H12Y 4891   4.182   3.368   9.538  0.6803 -0.0558  1.2877
   36POPC  C313 4892   4.053   3.210   9.465 -0.0528 -0.1831  0.3484
   36POPC  H13X 4893   3.996   3.181   9.556 -2.5419 -1.8818 -1.5952
   36POPC  H13Y 4894   4.071   3.120   9.402 -2.6802  0.1473 -1.0225
   36POPC  C314 4895   3.962   3.297   9.382  0.2559 -0.3660 -0.1370
   36POPC  H14X 4896   3.923   3.374   9.451 -2.4147 -0.6722 -1.1576
   36POPC  H14Y 4897   3.878   3.236   9.341  0.0739 -0.8392  0.9174
   36POPC  C315 4898   4.032   3.364   9.266 -0.4747 -0.1617 -0.6419
   36POPC  H15X 4899   4.093   3.285   9.217 -0.7319 -0.6995 -0.1128
   36POPC  H15Y 4900   4.106   3.436   9.308 -2.5555  1.9749 -0.4332
   36POPC  C316 4901   3.953   3.429   9.159  0.2690 -0.1566  0.5003
   36POPC  H16X 4902   4.022   3.465   9.080 -0.2762  1.0405  0.5478
   36POPC  H16Y 4903   3.891   3.516   9.189  1.2691  0.1179  1.8532
   36POPC  H16Z 4904   3.892   3.352   9.106 -0.0801  0.6697 -0.3321
   37POPC     N 4905   5.510   4.649   6.530  0.1375 -0.5136  0.2190
   37POPC   C12 4906   5.605   4.719   6.619 -0.0950 -0.4546  0.3818
   37POPC  H12A 4907   5.691   4.749   6.562 -0.6020 -0.5790 -0.4649
   37POPC  H12B 4908   5.650   4.654   6.693  4.4816  1.3234 -0.4871
   37POPC   C13 4909   5.576   4.536   6.460  0.9379 -0.2561  1.1725
   37POPC  H13A 4910   5.667   4.569   6.412 -0.6305  0.8211 -1.3110
   37POPC  H13B 4911   5.593   4.461   6.535  0.3115 -2.6178 -0.9129
   37POPC  H13C 4912   5.511   4.506   6.378 -0.2875 -1.2775  2.4786
   37POPC   C14 4913   5.397   4.602   6.610  0.2881 -0.2368  0.0537
   37POPC  H14A 4914   5.325   4.552   6.546 -1.0637  1.5248  0.1006
   37POPC  H14B 4915   5.444   4.537   6.682 -1.9979 -0.2786  1.6100
   37POPC  H14C 4916   5.340   4.678   6.662  0.7642 -0.1712  0.4870
   37POPC   C15 4917   5.452   4.743   6.428  0.5439 -0.5653 -0.6302
   37POPC  H15A 4918   5.398   4.816   6.487  0.9710 -0.1450 -0.7489
   37POPC  H15B 4919   5.377   4.695   6.367  0.7786 -1.5880 -0.1308
   37POPC  H15C 4920   5.532   4.786   6.368  0.5405 -0.9061 -0.8789
   37POPC   C11 4921   5.546   4.838   6.701 -0.0747 -0.2454 -0.4495
   37POPC  H11A 4922   5.616   4.871   6.781  1.0231  0.7557 -1.7692
   37POPC  H11B 4923   5.456   4.804   6.756  0.6254 -2.6812 -0.7010
   37POPC     P 4924   5.615   5.062   6.602 -0.6123  0.2134 -0.6136
   37POPC   O13 4925   5.558   5.168   6.523  0.2459  0.1682  0.3834
   37POPC   O14 4926   5.741   4.996   6.552  0.5093  0.0938 -0.3366
   37POPC   O12 4927   5.510   4.948   6.616 -0.1422  0.2874 -0.2120
   37POPC   O11 4928   5.639   5.103   6.757 -0.3917 -0.0589 -0.3105
   37POPC    C1 4929   5.526   5.163   6.834 -0.0673 -0.1577 -0.5860
   37POPC    HA 4930   5.533   5.134   6.941  0.2979  1.2570 -0.1989
   37POPC    HB 4931   5.435   5.125   6.783  0.4914 -3.2467  0.5079
   37POPC    C2 4932   5.526   5.320   6.837 -0.4240 -0.3055  0.5249
   37POPC    HS 4933   5.523   5.357   6.732  1.7294  2.9114  1.4558
   37POPC   O21 4934   5.648   5.363   6.912 -0.2218  0.3964  0.0889
   37POPC   C21 4935   5.754   5.387   6.830 -0.3312  0.2288  0.2262
   37POPC   O22 4936   5.733   5.414   6.711  0.2641 -0.0663 -0.6002
   37POPC   C22 4937   5.893   5.383   6.895 -0.5960 -0.8398  0.1993
   37POPC   H2R 4938   5.958   5.461   6.849 -1.4597 -0.8301 -1.0738
   37POPC   H2S 4939   5.921   5.278   6.873  1.7857 -0.1264 -0.4473
   37POPC    C3 4940   5.406   5.398   6.899 -0.0437 -0.0204  0.5754
   37POPC    HX 4941   5.316   5.361   6.844 -1.0052  0.5978  1.6849
   37POPC    HY 4942   5.414   5.504   6.866  3.2122 -0.5699 -0.7244
   37POPC   O31 4943   5.398   5.391   7.040  0.2129  0.0936  0.0378
   37POPC   C31 4944   5.350   5.281   7.088  0.1748  0.2031 -0.1380
   37POPC   O32 4945   5.296   5.192   7.018 -0.2604  0.1639  0.2637
   37POPC   C32 4946   5.364   5.276   7.246  0.0364  0.1189 -0.5567
   37POPC   H2X 4947   5.468   5.260   7.281  0.1232  2.2945  0.3976
   37POPC   H2Y 4948   5.297   5.199   7.290  0.4404  0.1324  0.1067
   37POPC   C23 4949   5.881   5.394   7.045 -0.1781 -0.2486 -0.3284
   37POPC   H3R 4950   5.801   5.345   7.105  0.8373 -1.4858  0.0772
   37POPC   H3S 4951   5.889   5.500   7.075 -0.3610 -0.8001  1.8160
   37POPC   C24 4952   6.011   5.329   7.107  0.7279 -0.2234 -0.2088
   37POPC   H4R 4953   6.099   5.386   7.068  1.0894 -0.8647 -0.3427
   37POPC   H4S 4954   6.015   5.224   7.070 -1.2882 -0.3035 -0.2667
   37POPC   C25 4955   6.013   5.329   7.260 -0.4730  0.4400 -0.4318
   37POPC   H5R 4956   6.100   5.272   7.301 -1.3530  0.6551  1.9000
   37POPC   H5S 4957   5.924   5.283   7.308  0.9455 -0.7942  1.1626
   37POPC   C26 4958   6.018   5.470   7.320  0.6704  0.1781  0.7755
   37POPC   H6R 4959   5.925   5.531   7.311  2.2988  2.7282  0.1939
   37POPC   H6S 4960   6.086   5.529   7.255  0.2743  0.7390  0.8578
   37POPC   C27 4961   6.068   5.480   7.466  0.0528  0.8931 -0.0136
   37POPC   H7R 4962   6.096   5.583   7.497 -0.6980  1.7698 -2.0858
   37POPC   H7S 4963   6.157   5.415   7.480  0.3891  1.2041 -0.6899
   37POPC   C28 4964   5.976   5.427   7.583  0.2936  0.3618  0.5955
   37POPC   H8R 4965   6.046   5.419   7.669 -0.4742  2.0926  1.4426
   37POPC   H8S 4966   5.939   5.324   7.564 -0.8576  0.7732  0.5512
   37POPC   C29 4967   5.856   5.510   7.621 -0.6622  0.3223  0.2748
   37POPC   H91 4968   5.785   5.537   7.541 -0.1249 -0.0900 -0.3522
   37POPC  C210 4969   5.837   5.556   7.748  0.2729 -0.0652  0.0375
   37POPC  H101 4970   5.741   5.606   7.768 -1.6791 -3.2761 -0.5103
   37POPC  C211 4971   5.931   5.526   7.870  0.7191  0.1701  0.8639
   37POPC  H11R 4972   6.040   5.538   7.855  1.0056 -2.4716  0.2392
   37POPC  H11S 4973   5.914   5.423   7.908  0.6639 -0.6014 -1.1294
   37POPC  C212 4974   5.904   5.614   7.998  0.0187 -0.5104  0.6149
   37POPC  H12R 4975   5.957   5.556   8.077  0.8786  0.6067  0.8932
   37POPC  H12S 4976   5.799   5.612   8.035  0.4451 -0.2620  1.9001
   37POPC  C213 4977   5.961   5.760   7.994 -0.1421  0.2962  0.1232
   37POPC  H13R 4978   5.925   5.823   8.079 -0.8414 -0.8913  0.7327
   37POPC  H13S 4979   5.916   5.806   7.903 -1.8575  0.0627  0.8051
   37POPC  C214 4980   6.111   5.769   7.988 -0.1846 -0.3782  0.5381
   37POPC  H14R 4981   6.138   5.858   7.927 -0.4029 -0.9390 -0.4002
   37POPC  H14S 4982   6.161   5.679   7.946  1.0427 -1.3634  3.8525
   37POPC  C215 4983   6.170   5.812   8.128  0.4818  0.1651  1.0992
   37POPC  H15R 4984   6.102   5.883   8.180 -0.7827 -1.5076  1.8469
   37POPC  H15S 4985   6.266   5.857   8.097  0.2164 -0.3025 -0.4556
   37POPC  C216 4986   6.183   5.691   8.218 -0.3734 -0.4661  0.2451
   37POPC  H16R 4987   6.248   5.614   8.171  4.3808  0.6709  4.1013
   37POPC  H16S 4988   6.080   5.672   8.254 -0.6604 -1.8319 -1.2118
   37POPC  C217 4989   6.266   5.712   8.343  0.2540  0.5314  0.4696
   37POPC  H17R 4990   6.238   5.810   8.385  0.7354  0.3692  1.1812
   37POPC  H17S 4991   6.373   5.728   8.316  0.0789  1.8008  0.4564
   37POPC  C218 4992   6.241   5.587   8.430 -0.4501 -0.3470 -0.1330
   37POPC  H18R 4993   6.131   5.566   8.428 -1.2402  2.9968  1.2878
   37POPC  H18S 4994   6.281   5.602   8.532  2.0904  1.8374 -1.3452
   37POPC  H18T 4995   6.284   5.500   8.377 -0.8126 -0.6402  0.0435
   37POPC   C33 4996   5.326   5.410   7.313  0.2703  0.0198 -0.4051
   37POPC   H3X 4997   5.228   5.453   7.287 -0.1330 -0.5030  0.2116
   37POPC   H3Y 4998   5.398   5.488   7.279  0.3302  0.3987  0.5559
   37POPC   C34 4999   5.318   5.400   7.467  0.0154 -0.2341  0.1156
   37POPC   H4X 5000   5.419   5.386   7.511 -0.3460 -1.3279  0.6349
   37POPC   H4Y 5001   5.263   5.308   7.495 -0.5626 -0.9349 -2.9491
   37POPC   C35 5002   5.229   5.506   7.526 -0.7245 -0.2836 -0.2815
   37POPC   H5X 5003   5.123   5.486   7.501 -1.5837  0.5216  2.3419
   37POPC   H5Y 5004   5.259   5.599   7.473 -0.3717 -0.3026 -0.1229
   37POPC   C36 5005   5.247   5.530   7.687 -0.4601 -0.0618 -0.3062
   37POPC   H6X 5006   5.351   5.566   7.701 -0.7599  0.8583 -0.3624
   37POPC   H6Y 5007   5.238   5.428   7.729  2.4725 -0.8504 -1.3337
   37POPC   C37 5008   5.151   5.629   7.747  0.0548  0.2893 -0.5953
   37POPC   H7X 5009   5.056   5.612   7.692 -0.4492  1.2031 -0.0316
   37POPC   H7Y 5010   5.175   5.735   7.724  0.7502  0.2150 -0.2333
   37POPC   C38 5011   5.132   5.610   7.895 -0.2244 -0.4069 -0.5054
   37POPC   H8X 5012   5.224   5.557   7.929 -2.1313 -2.0595  2.6413
   37POPC   H8Y 5013   5.043   5.554   7.930 -0.0737 -0.1977  0.2276
   37POPC   C39 5014   5.123   5.747   7.972 -0.1956  0.0319 -0.2772
   37POPC   H9X 5015   5.068   5.827   7.918  1.5582  1.4255 -0.0809
   37POPC   H9Y 5016   5.225   5.788   7.983  0.5107 -1.8625  0.7010
   37POPC  C310 5017   5.066   5.742   8.118 -0.4432 -1.1499 -0.1498
   37POPC  H10X 5018   4.955   5.740   8.114 -0.5620  1.7831 -0.3047
   37POPC  H10Y 5019   5.087   5.838   8.169  1.5076 -1.2204 -0.7206
   37POPC  C311 5020   5.118   5.629   8.206  0.3376  0.6709 -0.5800
   37POPC  H11X 5021   5.229   5.631   8.218  0.0932  2.3974  2.1958
   37POPC  H11Y 5022   5.096   5.531   8.158 -0.1855  0.7863 -0.5757
   37POPC  C312 5023   5.058   5.615   8.350  0.6212 -0.2527 -0.3405
   37POPC  H12X 5024   5.089   5.514   8.386 -2.9402 -2.7207 -3.4092
   37POPC  H12Y 5025   4.947   5.621   8.346  0.6586  0.0601 -3.4426
   37POPC  C313 5026   5.111   5.726   8.436  0.1793 -0.7366  0.2896
   37POPC  H13X 5027   5.065   5.713   8.536 -0.3295  3.0526  0.7103
   37POPC  H13Y 5028   5.084   5.831   8.411  0.3472 -1.2428 -2.2738
   37POPC  C314 5029   5.261   5.717   8.457 -0.5531  0.1541 -0.2599
   37POPC  H14X 5030   5.319   5.745   8.366 -0.4218 -0.1118 -0.2590
   37POPC  H14Y 5031   5.281   5.612   8.486 -1.9090  0.2593  1.1877
   37POPC  C315 5032   5.312   5.802   8.581  0.2299 -0.2663  0.9235
   37POPC  H15X 5033   5.301   5.907   8.546 -2.5100  0.0165  2.3491
   37POPC  H15Y 5034   5.420   5.777   8.578 -0.2272 -2.4299  0.6009
   37POPC  C316 5035   5.244   5.772   8.714  0.5433 -0.6319 -0.0465
   37POPC  H16X 5036   5.288   5.841   8.789 -1.7047  0.5584  0.2736
   37POPC  H16Y 5037   5.268   5.669   8.748  3.4072  0.0190  0.1288
   37POPC  H16Z 5038   5.137   5.800   8.716  0.7941  0.5310 -1.3015
   38POPC     N 5039   6.666   2.122   6.216  0.0712 -0.8989  0.3481
   38POPC   C12 5040   6.781   2.219   6.236  0.1333  1.0703 -0.0046
   38POPC  H12A 5041   6.751   2.317   6.271  0.9142  0.9825  0.9752
   38POPC  H12B 5042   6.838   2.239   6.147 -0.5019  1.4541 -0.3331
   38POPC   C13 5043   6.576   2.166   6.105 -0.2867  0.3998  0.2908
   38POPC  H13A 5044   6.531   2.263   6.119  0.6081  1.1665 -1.8044
   38POPC  H13B 5045   6.645   2.180   6.023  0.2010  0.6643  0.7350
   38POPC  H13C 5046   6.498   2.096   6.081 -1.2724  0.9134  1.8638
   38POPC   C14 5047   6.725   1.990   6.170 -0.1158 -0.5069 -0.2031
   38POPC  H14A 5048   6.653   1.909   6.166  0.5217 -1.1064  0.2241
   38POPC  H14B 5049   6.761   2.004   6.069 -3.8626 -1.6641 -1.8956
   38POPC  H14C 5050   6.808   1.960   6.232 -0.9476 -0.1587  1.1326
   38POPC   C15 5051   6.582   2.097   6.330 -0.0218 -0.1027 -0.7008
   38POPC  H15A 5052   6.535   2.185   6.369  0.7791 -0.8010  2.0790
   38POPC  H15B 5053   6.640   2.054   6.411 -0.5675 -1.9723 -1.2423
   38POPC  H15C 5054   6.502   2.026   6.316 -0.6429  0.8038 -1.9135
   38POPC   C11 5055   6.886   2.164   6.341 -0.4265 -0.0749 -0.0893
   38POPC  H11A 5056   6.840   2.114   6.429 -0.2216 -2.3696 -1.2121
   38POPC  H11B 5057   6.945   2.245   6.390  2.7472 -2.0307 -0.3982
   38POPC     P 5058   7.115   2.104   6.231  0.3237 -0.6175 -0.3683
   38POPC   O13 5059   7.182   2.195   6.327 -0.4723  0.1754  0.2154
   38POPC   O14 5060   7.119   2.149   6.093 -0.0549  0.3662 -0.4871
   38POPC   O12 5061   6.971   2.070   6.277 -0.6125 -0.5674 -0.3159
   38POPC   O11 5062   7.195   1.967   6.244  0.0817  0.4431 -0.4417
   38POPC    C1 5063   7.122   1.845   6.271  0.1665 -0.6283  0.7105
   38POPC    HA 5064   7.193   1.760   6.279 -0.0702 -0.6638  2.7609
   38POPC    HB 5065   7.048   1.829   6.189  0.1168 -0.3607  0.7019
   38POPC    C2 5066   7.055   1.838   6.412  0.1731  0.5079  0.0605
   38POPC    HS 5067   6.958   1.891   6.418 -1.2764 -2.0536  0.2716
   38POPC   O21 5068   7.149   1.883   6.508 -0.1858  0.1950  0.6565
   38POPC   C21 5069   7.121   1.948   6.617 -1.0241  0.4755 -0.1930
   38POPC   O22 5070   7.008   1.981   6.656 -0.2404  0.8449  0.2972
   38POPC   C22 5071   7.252   1.978   6.677 -0.6135  0.2157 -0.6290
   38POPC   H2R 5072   7.237   2.075   6.729 -0.2348  1.1768 -2.2783
   38POPC   H2S 5073   7.314   2.002   6.588 -2.6888 -0.1500 -2.2540
   38POPC    C3 5074   7.018   1.698   6.450 -0.2210 -0.3858 -0.0485
   38POPC    HX 5075   7.108   1.634   6.437  0.8620  0.9549  0.6489
   38POPC    HY 5076   6.937   1.658   6.385 -1.6996 -0.1930  1.6085
   38POPC   O31 5077   6.980   1.681   6.589  1.0310 -0.3879  0.3080
   38POPC   C31 5078   6.848   1.668   6.615  0.1092  0.1817 -0.1561
   38POPC   O32 5079   6.759   1.640   6.536 -0.4383  0.0975 -0.9151
   38POPC   C32 5080   6.839   1.697   6.768  0.7599  0.0182  0.4161
   38POPC   H2X 5081   6.887   1.797   6.777  2.2305 -0.7343  1.2812
   38POPC   H2Y 5082   6.893   1.614   6.817  1.1127 -0.9972 -1.5744
   38POPC   C23 5083   7.294   1.867   6.781 -0.4943  0.3518  0.2502
   38POPC   H3R 5084   7.404   1.878   6.791 -0.6954  3.2521  0.3535
   38POPC   H3S 5085   7.267   1.765   6.747  1.7941 -0.5785  1.0308
   38POPC   C24 5086   7.246   1.907   6.923  0.2313 -0.0020  1.2990
   38POPC   H4R 5087   7.137   1.925   6.908  0.3818 -0.5906 -0.8096
   38POPC   H4S 5088   7.297   2.004   6.941  1.8201  0.0377 -2.3999
   38POPC   C25 5089   7.257   1.804   7.032 -0.3109 -1.0061 -0.2247
   38POPC   H5R 5090   7.361   1.781   7.062 -0.6063  0.6416  2.3956
   38POPC   H5S 5091   7.214   1.716   6.980 -0.9191  0.0891 -1.6549
   38POPC   C26 5092   7.148   1.820   7.136  0.0391  0.1107  0.3799
   38POPC   H6R 5093   7.043   1.823   7.100  0.1775 -2.3083 -0.3752
   38POPC   H6S 5094   7.151   1.920   7.185 -0.9003  0.9369 -1.1720
   38POPC   C27 5095   7.152   1.707   7.240  0.5823 -0.5351  0.5410
   38POPC   H7R 5096   7.171   1.616   7.180 -0.2840 -0.0907 -0.4476
   38POPC   H7S 5097   7.057   1.679   7.291  0.0456 -1.1467 -0.7540
   38POPC   C28 5098   7.249   1.725   7.348  0.0411  0.8451  0.5432
   38POPC   H8R 5099   7.353   1.751   7.320  0.2700 -1.0491 -0.5659
   38POPC   H8S 5100   7.267   1.625   7.395  0.9799  1.0525  0.6454
   38POPC   C29 5101   7.205   1.827   7.450  0.3539 -0.2564 -0.1143
   38POPC   H91 5102   7.189   1.928   7.410 -0.6036 -1.3662 -2.7991
   38POPC  C210 5103   7.198   1.812   7.582  0.8818  0.6056 -0.2196
   38POPC  H101 5104   7.168   1.898   7.643 -2.2012 -1.0905  0.9059
   38POPC  C211 5105   7.220   1.688   7.665 -0.3480  0.2454 -0.7692
   38POPC  H11R 5106   7.301   1.627   7.620 -0.6188 -0.5469 -0.2207
   38POPC  H11S 5107   7.130   1.622   7.669 -0.6867  0.2657 -4.7689
   38POPC  C212 5108   7.245   1.728   7.817  0.1726  0.3771  0.3070
   38POPC  H12R 5109   7.322   1.808   7.813  1.4195 -0.8116 -0.1714
   38POPC  H12S 5110   7.291   1.639   7.864 -2.6014 -2.4392 -1.8932
   38POPC  C213 5111   7.115   1.780   7.882 -0.1020  0.1659 -0.3277
   38POPC  H13R 5112   7.033   1.711   7.856 -1.3718  1.5570 -0.1353
   38POPC  H13S 5113   7.073   1.879   7.852 -2.3515 -0.8356 -0.6615
   38POPC  C214 5114   7.123   1.774   8.034  0.0881  0.3287  0.2657
   38POPC  H14R 5115   7.196   1.849   8.072 -1.6797  1.8346  0.7923
   38POPC  H14S 5116   7.176   1.677   8.051 -2.5177 -1.3108 -0.3828
   38POPC  C215 5117   6.982   1.781   8.103  0.1730  0.2993 -0.6477
   38POPC  H15R 5118   6.929   1.693   8.061  0.3097 -1.1038  1.9191
   38POPC  H15S 5119   6.933   1.876   8.071 -2.0346 -0.5407  0.0040
   38POPC  C216 5120   6.984   1.764   8.254  1.2206  0.7537  0.6146
   38POPC  H16R 5121   6.877   1.759   8.284 -0.0038 -5.2116 -3.1381
   38POPC  H16S 5122   7.044   1.847   8.297  1.4070  1.4822 -0.9907
   38POPC  C217 5123   7.042   1.628   8.286  0.5440  0.1783  0.2448
   38POPC  H17R 5124   7.145   1.632   8.244  0.6963  1.5459  0.7073
   38POPC  H17S 5125   6.980   1.550   8.237  2.0434 -1.8872  1.5264
   38POPC  C218 5126   7.033   1.596   8.436 -0.1900  0.4158 -0.4253
   38POPC  H18R 5127   7.072   1.492   8.440 -0.9518  0.0706 -1.4858
   38POPC  H18S 5128   6.930   1.574   8.472 -1.2469  1.2291 -2.7019
   38POPC  H18T 5129   7.093   1.662   8.502 -0.8580  0.2470  0.3656
   38POPC   C33 5130   6.687   1.683   6.814 -0.6346  0.5973  0.3539
   38POPC   H3X 5131   6.648   1.584   6.783 -1.3563  0.9477  0.1090
   38POPC   H3Y 5132   6.631   1.758   6.755 -0.2847  1.3880  1.0004
   38POPC   C34 5133   6.669   1.708   6.961  0.4005 -0.0181 -0.1507
   38POPC   H4X 5134   6.714   1.626   7.020 -2.0064 -0.8361  0.6777
   38POPC   H4Y 5135   6.561   1.689   6.979  0.8037 -4.4803 -1.3721
   38POPC   C35 5136   6.687   1.855   7.002  0.1948  0.0923 -0.2973
   38POPC   H5X 5137   6.638   1.923   6.929  1.8322  0.3026 -1.2596
   38POPC   H5Y 5138   6.794   1.884   7.000 -0.0214  0.9075 -2.1406
   38POPC   C36 5139   6.622   1.882   7.136  0.7173 -0.6177 -0.5379
   38POPC   H6X 5140   6.513   1.860   7.135  0.2123  1.6097 -0.2110
   38POPC   H6Y 5141   6.640   1.990   7.153  2.3321 -0.8415 -0.6970
   38POPC   C37 5142   6.690   1.819   7.252 -0.0678 -0.4851  0.3780
   38POPC   H7X 5143   6.795   1.797   7.225  0.4063  0.5797  1.2933
   38POPC   H7Y 5144   6.639   1.726   7.284 -1.4369  0.5920  1.4585
   38POPC   C38 5145   6.688   1.914   7.374 -0.6492 -0.7792  0.1351
   38POPC   H8X 5146   6.585   1.954   7.391 -0.7794 -1.3608  0.7497
   38POPC   H8Y 5147   6.756   2.000   7.357 -0.3385 -0.7095  1.6261
   38POPC   C39 5148   6.748   1.844   7.499 -0.6070 -1.0896  0.2376
   38POPC   H9X 5149   6.846   1.804   7.467 -1.2578 -2.0514 -0.6433
   38POPC   H9Y 5150   6.681   1.760   7.527 -0.4877 -0.9744  0.8778
   38POPC  C310 5151   6.757   1.951   7.604 -0.0626  0.3117 -0.3690
   38POPC  H10X 5152   6.820   2.033   7.562 -0.8948  1.5110  0.6652
   38POPC  H10Y 5153   6.814   1.917   7.692  1.3442  0.2870 -1.2501
   38POPC  C311 5154   6.632   2.018   7.663  0.7046 -0.3425  0.1976
   38POPC  H11X 5155   6.549   1.951   7.693  0.6074 -2.6749 -4.3822
   38POPC  H11Y 5156   6.588   2.079   7.581  0.3658 -2.2170 -1.0683
   38POPC  C312 5157   6.661   2.110   7.784  0.3953 -0.1163  0.0835
   38POPC  H12X 5158   6.565   2.162   7.804 -1.1343 -1.9857 -1.9525
   38POPC  H12Y 5159   6.741   2.176   7.743 -1.4252  1.3666 -1.2590
   38POPC  C313 5160   6.721   2.052   7.921 -0.2749  0.2233 -0.2600
   38POPC  H13X 5161   6.826   2.019   7.909 -0.3958  0.1318 -1.1273
   38POPC  H13Y 5162   6.655   1.964   7.937  1.2095 -0.9705 -0.4853
   38POPC  C314 5163   6.719   2.149   8.036  0.4763  0.2381 -0.5089
   38POPC  H14X 5164   6.630   2.216   8.027  1.2808  1.4389  0.1064
   38POPC  H14Y 5165   6.808   2.216   8.037  0.0437  0.8255  0.4524
   38POPC  C315 5166   6.724   2.090   8.178  0.6780 -0.1945  0.5702
   38POPC  H15X 5167   6.738   2.170   8.254 -0.8691  2.8806 -2.1065
   38POPC  H15Y 5168   6.812   2.023   8.171  0.1371 -0.7738 -1.6427
   38POPC  C316 5169   6.596   2.015   8.210 -0.3414  0.0848 -0.3305
   38POPC  H16X 5170   6.517   2.092   8.201  0.0614  0.6387  0.7063
   38POPC  H16Y 5171   6.589   1.965   8.309 -1.6087 -0.9465 -0.9076
   38POPC  H16Z 5172   6.584   1.938   8.130  0.5399  1.5176 -1.9208
   39POPC     N 5173   4.867   6.731   6.137  0.2605 -0.6071 -0.1976
   39POPC   C12 5174   4.835   6.587   6.143  0.5258 -0.6233 -0.5882
   39POPC  H12A 5175   4.927   6.531   6.137 -0.1636 -2.0218  1.2385
   39POPC  H12B 5176   4.763   6.570   6.064  1.5979 -1.5905 -1.3956
   39POPC   C13 5177   4.934   6.765   6.006  0.1863 -0.0042 -0.1624
   39POPC  H13A 5178   5.023   6.705   6.004  0.4909  0.4275  0.3786
   39POPC  H13B 5179   4.876   6.738   5.919 -0.2545  0.4254 -0.0093
   39POPC  H13C 5180   4.966   6.868   6.003 -1.4014  0.5329  0.2476
   39POPC   C14 5181   4.742   6.806   6.167  0.3217  0.8720 -0.6117
   39POPC  H14A 5182   4.654   6.765   6.120  0.0904  0.2366  0.3519
   39POPC  H14B 5183   4.721   6.802   6.273  4.1677 -1.2117  0.2357
   39POPC  H14C 5184   4.754   6.906   6.129  2.1861  0.2389 -1.8652
   39POPC   C15 5185   4.959   6.779   6.247  0.5787  0.4426 -0.0516
   39POPC  H15A 5186   5.050   6.721   6.234  0.1452  0.0059 -1.2922
   39POPC  H15B 5187   4.905   6.767   6.339 -0.0115  1.6323 -0.2247
   39POPC  H15C 5188   4.979   6.884   6.236 -1.1103  0.6113 -2.1969
   39POPC   C11 5189   4.760   6.533   6.268 -0.3780 -0.6501 -0.1386
   39POPC  H11A 5190   4.820   6.559   6.358  0.7165  0.4703 -1.1676
   39POPC  H11B 5191   4.764   6.422   6.268  0.6362 -0.6317  0.7470
   39POPC     P 5192   4.519   6.517   6.199  0.3539 -0.1811  0.1144
   39POPC   O13 5193   4.577   6.466   6.073 -0.1651  0.2376  0.4515
   39POPC   O14 5194   4.409   6.613   6.179 -0.4767  0.2543 -0.5205
   39POPC   O12 5195   4.632   6.588   6.289 -0.0228  0.0117  0.5149
   39POPC   O11 5196   4.460   6.399   6.282  0.0620  0.1510 -0.3571
   39POPC    C1 5197   4.522   6.270   6.280  0.1858  0.1696  0.0224
   39POPC    HA 5198   4.633   6.264   6.270 -0.0006  0.3907 -3.7976
   39POPC    HB 5199   4.486   6.221   6.187  1.4256 -2.4368  0.7836
   39POPC    C2 5200   4.490   6.183   6.406  0.1683  1.0797  0.2293
   39POPC    HS 5201   4.542   6.085   6.397  0.3072  1.2491 -1.0409
   39POPC   O21 5202   4.350   6.169   6.416  0.3292 -0.2193  0.0962
   39POPC   C21 5203   4.305   6.064   6.355 -0.7183 -0.2358  0.4178
   39POPC   O22 5204   4.373   5.997   6.275 -0.7739 -0.6817 -0.0747
   39POPC   C22 5205   4.154   6.042   6.388 -0.8142 -0.5910  0.7233
   39POPC   H2R 5206   4.124   5.974   6.306  1.1652  0.0451 -0.5791
   39POPC   H2S 5207   4.112   6.145   6.378  1.9176  0.6732  1.2910
   39POPC    C3 5208   4.541   6.246   6.539 -0.3885  0.1913 -0.0493
   39POPC    HX 5209   4.489   6.344   6.540 -0.7063  0.0185  0.7036
   39POPC    HY 5210   4.650   6.267   6.536  0.1697 -1.6549  3.2164
   39POPC   O31 5211   4.503   6.181   6.659  0.3245  0.0082  0.2753
   39POPC   C31 5212   4.571   6.074   6.705  0.0506 -0.0513  0.1875
   39POPC   O32 5213   4.679   6.040   6.659 -0.5402  0.5374 -0.1821
   39POPC   C32 5214   4.508   6.023   6.821 -0.0905 -0.3025 -0.3027
   39POPC   H2X 5215   4.526   6.083   6.913 -1.9783 -0.6464  0.3296
   39POPC   H2Y 5216   4.400   6.033   6.799 -0.5901 -0.2109  2.0075
   39POPC   C23 5217   4.129   5.999   6.531  0.9030  0.0058 -0.0672
   39POPC   H3R 5218   4.193   6.063   6.596 -0.5398  2.8406 -1.2181
   39POPC   H3S 5219   4.151   5.891   6.544  2.1061  0.2412 -0.0365
   39POPC   C24 5220   3.979   6.019   6.582 -0.1870 -0.1488 -0.3527
   39POPC   H4R 5221   3.911   5.962   6.515  1.7875 -0.1403 -2.4764
   39POPC   H4S 5222   3.948   6.123   6.559  1.2608  0.2159 -0.7896
   39POPC   C25 5223   3.959   5.973   6.730  0.7861  0.1551  0.1658
   39POPC   H5R 5224   4.006   5.878   6.764  1.2062  1.2543  2.9868
   39POPC   H5S 5225   3.851   5.954   6.751  1.2074 -3.2378 -0.1900
   39POPC   C26 5226   4.006   6.080   6.833  0.4635  0.1040  0.4156
   39POPC   H6R 5227   3.948   6.174   6.820  2.6937  1.3421 -1.2469
   39POPC   H6S 5228   4.111   6.106   6.806  0.9041 -1.4761  0.5534
   39POPC   C27 5229   3.997   6.032   6.982 -0.0428 -0.1862  0.4599
   39POPC   H7R 5230   4.098   6.003   7.015  1.2924  1.9478 -1.4355
   39POPC   H7S 5231   3.942   5.935   6.980 -0.5610  0.0005 -4.0014
   39POPC   C28 5232   3.902   6.114   7.067 -0.4403  0.0038 -0.5445
   39POPC   H8R 5233   3.795   6.103   7.041 -0.4888  0.9901 -0.7882
   39POPC   H8S 5234   3.934   6.220   7.059 -1.0257  0.1991 -0.3519
   39POPC   C29 5235   3.899   6.071   7.207 -0.4848  0.4795  0.2725
   39POPC   H91 5236   3.916   5.964   7.222 -3.8540 -0.0416  1.2240
   39POPC  C210 5237   3.864   6.156   7.301  0.7544  0.0904  0.2808
   39POPC  H101 5238   3.865   6.128   7.407  0.2852 -0.1351  0.2285
   39POPC  C211 5239   3.819   6.295   7.280  0.1976 -0.6008  0.3022
   39POPC  H11R 5240   3.766   6.300   7.183  1.7120  0.0535 -0.5306
   39POPC  H11S 5241   3.901   6.367   7.262  0.2496 -0.8047 -0.2991
   39POPC  C212 5242   3.716   6.349   7.376  0.2090  0.0174 -0.1790
   39POPC  H12R 5243   3.621   6.293   7.364  0.1610  0.3372 -1.3650
   39POPC  H12S 5244   3.695   6.457   7.357  2.5553  0.1804 -2.3296
   39POPC  C213 5245   3.737   6.329   7.531 -0.1048  0.0439 -0.1033
   39POPC  H13R 5246   3.835   6.377   7.553  1.0001 -1.5670 -1.2084
   39POPC  H13S 5247   3.755   6.221   7.550  2.3248  0.0296 -1.9299
   39POPC  C214 5248   3.622   6.379   7.614  0.0451 -0.9815  0.4899
   39POPC  H14R 5249   3.526   6.330   7.590 -0.8508 -0.0007  1.8878
   39POPC  H14S 5250   3.601   6.484   7.585 -2.0487 -1.2614  0.8328
   39POPC  C215 5251   3.645   6.375   7.770 -0.2898  0.1180  0.3904
   39POPC  H15R 5252   3.723   6.442   7.813  1.0431 -1.1343  0.0131
   39POPC  H15S 5253   3.682   6.274   7.796  0.1112  0.0158 -0.5339
   39POPC  C216 5254   3.520   6.427   7.850 -0.4969 -0.4070 -0.9541
   39POPC  H16R 5255   3.423   6.376   7.837  0.5361 -3.0528  0.9175
   39POPC  H16S 5256   3.504   6.530   7.811 -0.8315 -0.7595 -1.7853
   39POPC  C217 5257   3.558   6.428   8.005 -0.4499  0.0513  0.5760
   39POPC  H17R 5258   3.655   6.477   8.027 -1.4580  1.8176  1.3226
   39POPC  H17S 5259   3.564   6.318   8.024  2.0869  0.0665  0.1523
   39POPC  C218 5260   3.450   6.491   8.090  0.2154  0.2742 -0.0610
   39POPC  H18R 5261   3.349   6.454   8.061  0.4781  0.5682 -1.4133
   39POPC  H18S 5262   3.437   6.599   8.069 -1.5533  0.0739 -0.1357
   39POPC  H18T 5263   3.472   6.477   8.198  0.1868  2.0029  0.2046
   39POPC   C33 5264   4.548   5.878   6.838  0.6247 -0.2661 -0.4903
   39POPC   H3X 5265   4.651   5.869   6.879  0.6055  1.4682  0.0281
   39POPC   H3Y 5266   4.540   5.824   6.741 -0.7853  2.0707 -1.7619
   39POPC   C34 5267   4.457   5.810   6.943  0.2904  0.1034  0.0950
   39POPC   H4X 5268   4.468   5.700   6.939 -0.3151  0.0516 -0.1484
   39POPC   H4Y 5269   4.353   5.834   6.914  0.2207 -0.0522  0.2138
   39POPC   C35 5270   4.478   5.863   7.086  0.4062 -0.4414 -0.3997
   39POPC   H5X 5271   4.452   5.971   7.089  1.0441 -0.2601 -1.1183
   39POPC   H5Y 5272   4.579   5.857   7.132  0.5188  0.9152 -0.4364
   39POPC   C36 5273   4.366   5.801   7.182  1.1259 -0.7108 -0.1917
   39POPC   H6X 5274   4.410   5.708   7.224 -0.2644 -1.6046 -0.6598
   39POPC   H6Y 5275   4.278   5.770   7.123  0.0187  1.1447  0.3981
   39POPC   C37 5276   4.339   5.879   7.306 -0.2392  0.7785  0.0754
   39POPC   H7X 5277   4.321   5.984   7.273  2.1291  0.3425 -3.0617
   39POPC   H7Y 5278   4.420   5.876   7.382 -0.4184 -0.3912  0.2396
   39POPC   C38 5279   4.215   5.828   7.387 -0.2989 -0.8618  0.2165
   39POPC   H8X 5280   4.240   5.727   7.425 -1.9196 -0.5051  2.4660
   39POPC   H8Y 5281   4.130   5.835   7.315 -0.3200  0.3456  0.3354
   39POPC   C39 5282   4.188   5.925   7.504  0.2348 -0.2769  0.2766
   39POPC   H9X 5283   4.203   6.032   7.479 -0.9966 -0.3201 -0.7487
   39POPC   H9Y 5284   4.254   5.902   7.590 -0.9506 -3.7678  0.4012
   39POPC  C310 5285   4.048   5.895   7.546  0.1697  0.6324 -0.0488
   39POPC  H10X 5286   4.044   5.787   7.575  4.3388  1.4080  4.8791
   39POPC  H10Y 5287   3.983   5.916   7.459  0.9910  1.9804 -0.3707
   39POPC  C311 5288   3.990   5.964   7.669  0.5024  1.1336 -0.1537
   39POPC  H11X 5289   3.968   6.071   7.654 -0.9115  0.5915 -2.3118
   39POPC  H11Y 5290   4.062   5.960   7.754  0.5353  0.0224 -0.2092
   39POPC  C312 5291   3.863   5.893   7.721 -0.3201  0.4314  0.7236
   39POPC  H12X 5292   3.885   5.798   7.774 -0.9158 -0.8128 -1.1805
   39POPC  H12Y 5293   3.813   5.881   7.622  1.3963  0.7440 -0.2226
   39POPC  C313 5294   3.783   5.986   7.817  0.7180 -0.9178 -0.1956
   39POPC  H13X 5295   3.676   5.958   7.825  0.4331  0.3294  0.8224
   39POPC  H13Y 5296   3.793   6.086   7.770  1.3985 -1.2701 -0.8216
   39POPC  C314 5297   3.839   5.990   7.955  0.2033  1.0241  0.0080
   39POPC  H14X 5298   3.928   6.056   7.959  0.4834  0.7641 -1.4429
   39POPC  H14Y 5299   3.861   5.882   7.973  0.6634  1.1687  0.3381
   39POPC  C315 5300   3.730   6.029   8.057 -0.1774  0.4305  0.1035
   39POPC  H15X 5301   3.647   5.955   8.055  0.5499 -0.5933  2.8257
   39POPC  H15Y 5302   3.700   6.135   8.041 -0.2871  0.3853  0.0031
   39POPC  C316 5303   3.769   6.005   8.202 -0.1442  0.3170 -0.0491
   39POPC  H16X 5304   3.688   6.041   8.269  2.2847  1.6085  2.3722
   39POPC  H16Y 5305   3.869   6.047   8.224  0.6939 -0.2830 -2.4200
   39POPC  H16Z 5306   3.780   5.899   8.230 -0.0225 -0.2857 -2.1917
   40POPC     N 5307   3.004   2.584   6.217  0.2146 -0.2521  0.7136
   40POPC   C12 5308   2.957   2.566   6.367  0.0734  0.4565 -0.2426
   40POPC  H12A 5309   3.000   2.647   6.424 -0.6601 -0.2771  1.4387
   40POPC  H12B 5310   2.992   2.469   6.401  0.6342  0.3578 -1.0716
   40POPC   C13 5311   3.155   2.579   6.216  0.6982 -0.2174 -0.3109
   40POPC  H13A 5312   3.197   2.597   6.118  1.8781  0.3310  0.2761
   40POPC  H13B 5313   3.200   2.654   6.279 -0.1554  1.6678 -1.8212
   40POPC  H13C 5314   3.190   2.483   6.249 -0.0133 -0.2816  0.2890
   40POPC   C14 5315   2.958   2.473   6.130  0.4559 -0.0023 -0.4035
   40POPC  H14A 5316   2.850   2.467   6.126  0.2744  1.7105  0.8744
   40POPC  H14B 5317   2.990   2.495   6.029  1.3477  3.4659  0.5102
   40POPC  H14C 5318   3.009   2.385   6.166  0.3862 -0.7671 -2.0846
   40POPC   C15 5319   2.958   2.710   6.157  0.0811 -0.6460  0.3382
   40POPC  H15A 5320   2.975   2.720   6.051 -0.9584 -1.0385  0.1250
   40POPC  H15B 5321   3.008   2.795   6.201  2.3281 -1.8634  0.3023
   40POPC  H15C 5322   2.857   2.726   6.192  1.5711  0.7456  4.6195
   40POPC   C11 5323   2.803   2.558   6.366 -0.1548 -0.3854 -0.1392
   40POPC  H11A 5324   2.778   2.514   6.465  0.8220  1.9806  1.2503
   40POPC  H11B 5325   2.773   2.489   6.284 -1.0291  0.3979 -0.4949
   40POPC     P 5326   2.585   2.712   6.341  0.1527 -0.0603  0.3296
   40POPC   O13 5327   2.535   2.604   6.254 -0.1913 -0.6179  0.2551
   40POPC   O14 5328   2.546   2.848   6.304 -0.0864 -0.2493  0.3758
   40POPC   O12 5329   2.744   2.689   6.361 -0.1771  0.3285  0.3804
   40POPC   O11 5330   2.526   2.698   6.489  0.0608 -0.3646  0.0438
   40POPC    C1 5331   2.409   2.766   6.541 -0.3335  0.1962  0.2633
   40POPC    HA 5332   2.347   2.684   6.583  1.6139 -0.8884  1.1295
   40POPC    HB 5333   2.348   2.830   6.473 -0.4441  0.3719  0.5250
   40POPC    C2 5334   2.448   2.855   6.658 -0.6478 -0.0091  0.0525
   40POPC    HS 5335   2.541   2.908   6.630  1.2488 -1.0053  3.7959
   40POPC   O21 5336   2.479   2.770   6.770 -0.2405  0.2205  0.3397
   40POPC   C21 5337   2.592   2.804   6.837 -0.0666 -0.0788 -0.0670
   40POPC   O22 5338   2.663   2.896   6.805  0.2306 -0.1453  0.2974
   40POPC   C22 5339   2.616   2.711   6.955 -0.3881 -0.0539  0.4251
   40POPC   H2R 5340   2.705   2.650   6.931 -1.1886 -0.7545 -0.9376
   40POPC   H2S 5341   2.528   2.645   6.970  0.7105 -2.1191 -1.6260
   40POPC    C3 5342   2.343   2.970   6.686 -0.1941  0.7012  0.2331
   40POPC    HX 5343   2.252   2.910   6.707  0.3188  0.3370  1.5571
   40POPC    HY 5344   2.324   3.036   6.599 -1.2395  0.9896  0.6574
   40POPC   O31 5345   2.383   3.045   6.803  0.2434 -0.2478 -0.7603
   40POPC   C31 5346   2.464   3.141   6.781 -0.4950  0.1738  0.0223
   40POPC   O32 5347   2.516   3.178   6.677  0.3334 -0.1888 -0.3138
   40POPC   C32 5348   2.466   3.207   6.923 -0.1649  0.1166  0.7071
   40POPC   H2X 5349   2.365   3.202   6.969  0.3446 -0.5183  1.7763
   40POPC   H2Y 5350   2.491   3.315   6.911 -0.1016  0.0683  0.3766
   40POPC   C23 5351   2.656   2.777   7.090  0.5619  0.3930  0.8370
   40POPC   H3R 5352   2.590   2.862   7.118  1.3761  0.6509  2.0619
   40POPC   H3S 5353   2.759   2.816   7.074  0.7579 -0.9411 -1.5558
   40POPC   C24 5354   2.662   2.680   7.213 -0.2044  0.1901 -0.4808
   40POPC   H4R 5355   2.748   2.611   7.202 -1.0724 -1.4450  1.9956
   40POPC   H4S 5356   2.574   2.612   7.210  0.1372 -0.4434  1.7911
   40POPC   C25 5357   2.675   2.758   7.342 -0.6197 -0.4185 -0.1811
   40POPC   H5R 5358   2.599   2.836   7.363 -0.4366  0.1028 -1.3831
   40POPC   H5S 5359   2.770   2.815   7.337 -1.3508  0.9609  0.7534
   40POPC   C26 5360   2.699   2.667   7.462 -0.5448 -0.2877  1.2378
   40POPC   H6R 5361   2.749   2.731   7.538 -2.3098  0.4331  1.8373
   40POPC   H6S 5362   2.762   2.579   7.437  0.3449  0.7268 -0.2284
   40POPC   C27 5363   2.571   2.624   7.519 -0.2898 -0.5269  0.1887
   40POPC   H7R 5364   2.520   2.553   7.450  0.7053 -0.6786 -0.3991
   40POPC   H7S 5365   2.502   2.706   7.549 -0.1941 -0.2410 -0.3794
   40POPC   C28 5366   2.595   2.538   7.644  0.0378  0.1567  0.4296
   40POPC   H8R 5367   2.666   2.458   7.617  0.1931 -0.0387  1.3747
   40POPC   H8S 5368   2.497   2.490   7.666  0.0997 -1.2068 -1.9719
   40POPC   C29 5369   2.648   2.628   7.752  0.2999  0.5377 -0.6929
   40POPC   H91 5370   2.569   2.698   7.784 -0.2788 -0.7494  0.7974
   40POPC  C210 5371   2.754   2.614   7.829 -0.1953  0.2600  0.3230
   40POPC  H101 5372   2.775   2.676   7.917  1.5860 -2.0123  1.6041
   40POPC  C211 5373   2.857   2.504   7.823 -0.5833  0.3756  0.6951
   40POPC  H11R 5374   2.961   2.541   7.809 -0.5379 -0.0304 -0.0765
   40POPC  H11S 5375   2.837   2.434   7.740  0.5969  0.0053  0.6926
   40POPC  C212 5376   2.860   2.406   7.942  0.3201 -0.4109  0.3496
   40POPC  H12R 5377   2.927   2.319   7.925  1.4762  0.5356 -0.0756
   40POPC  H12S 5378   2.755   2.370   7.945 -0.9744  2.9867  0.3357
   40POPC  C213 5379   2.907   2.476   8.066  0.3944  0.5430 -0.6528
   40POPC  H13R 5380   2.860   2.576   8.080  1.0447  0.8985 -0.9521
   40POPC  H13S 5381   3.016   2.497   8.061  0.6836 -0.2572  1.3897
   40POPC  C214 5382   2.886   2.384   8.186 -0.0179 -0.6784  0.3351
   40POPC  H14R 5383   2.928   2.283   8.167  1.2429 -0.0866 -0.1364
   40POPC  H14S 5384   2.775   2.379   8.189 -0.0582  0.2103  1.1144
   40POPC  C215 5385   2.942   2.447   8.313 -0.1885 -0.7302  0.0706
   40POPC  H15R 5386   2.902   2.550   8.323 -0.4316 -0.9630  1.8531
   40POPC  H15S 5387   3.052   2.453   8.302 -0.1555 -0.8870  0.3062
   40POPC  C216 5388   2.899   2.378   8.448  0.3266 -0.1711  0.7013
   40POPC  H16R 5389   2.898   2.267   8.434 -0.9054 -0.1471  0.4479
   40POPC  H16S 5390   2.798   2.415   8.475 -0.4717 -1.3555 -0.5266
   40POPC  C217 5391   3.009   2.404   8.554 -0.0912  0.2445  0.2766
   40POPC  H17R 5392   2.987   2.510   8.579 -2.7890 -0.6420  2.1666
   40POPC  H17S 5393   3.111   2.393   8.512 -1.1182  0.0389 -2.3654
   40POPC  C218 5394   2.991   2.324   8.684  0.1411 -0.2217  0.0603
   40POPC  H18R 5395   2.893   2.331   8.737 -0.0741  0.2510 -0.3942
   40POPC  H18S 5396   3.077   2.362   8.742  0.8238 -0.4760 -0.7682
   40POPC  H18T 5397   3.012   2.218   8.657 -0.0105  0.1106 -1.4085
   40POPC   C33 5398   2.572   3.135   7.020  0.4671 -0.5032 -0.1808
   40POPC   H3X 5399   2.671   3.122   6.972 -0.0606 -1.6997 -0.9772
   40POPC   H3Y 5400   2.540   3.031   7.041 -0.6760 -0.0315  0.5380
   40POPC   C34 5401   2.575   3.210   7.154 -0.0627 -0.0060  0.1147
   40POPC   H4X 5402   2.472   3.218   7.196 -0.4167  2.2914 -1.0539
   40POPC   H4Y 5403   2.619   3.310   7.132  1.4694 -0.4795  0.8786
   40POPC   C35 5404   2.677   3.145   7.243 -0.3249 -0.3902  0.3120
   40POPC   H5X 5405   2.775   3.165   7.194 -0.4098  0.9961  0.6735
   40POPC   H5Y 5406   2.648   3.038   7.248 -1.3590 -0.1839 -0.7420
   40POPC   C36 5407   2.664   3.209   7.378 -0.1276  0.2540  0.0442
   40POPC   H6X 5408   2.567   3.179   7.423  0.1731  0.5422  0.9147
   40POPC   H6Y 5409   2.676   3.319   7.370  0.3666  0.0544 -3.0050
   40POPC   C37 5410   2.759   3.163   7.483 -0.9514  0.2501 -0.1731
   40POPC   H7X 5411   2.863   3.182   7.447 -1.1054  1.0758 -0.1929
   40POPC   H7Y 5412   2.758   3.051   7.480  2.2911  0.1348 -0.5667
   40POPC   C38 5413   2.737   3.225   7.624 -0.5821  0.8815 -0.5631
   40POPC   H8X 5414   2.630   3.203   7.643  0.3989 -3.8222  1.0654
   40POPC   H8Y 5415   2.751   3.335   7.629 -2.6953  1.1356  2.6293
   40POPC   C39 5416   2.826   3.165   7.736 -0.2993  0.5725  0.4357
   40POPC   H9X 5417   2.933   3.179   7.709 -0.5040  0.8821 -0.2518
   40POPC   H9Y 5418   2.805   3.056   7.736  0.0013  0.5107  0.1829
   40POPC  C310 5419   2.808   3.231   7.875 -0.0601 -0.1732 -0.9827
   40POPC  H10X 5420   2.706   3.206   7.912  0.2174  1.6112  1.2364
   40POPC  H10Y 5421   2.816   3.342   7.867  1.5782 -0.2899 -1.3328
   40POPC  C311 5422   2.908   3.181   7.980  0.1388  0.4929 -0.3981
   40POPC  H11X 5423   3.008   3.196   7.935 -0.0296 -0.0978 -0.9871
   40POPC  H11Y 5424   2.897   3.071   7.983 -2.0268  0.6878  0.9136
   40POPC  C312 5425   2.891   3.249   8.114 -0.0474 -0.1932  0.9271
   40POPC  H12X 5426   2.794   3.214   8.155 -1.3267  2.5659  0.4730
   40POPC  H12Y 5427   2.888   3.360   8.109 -1.6991 -0.2082  1.2300
   40POPC  C313 5428   3.001   3.212   8.214  0.0631  0.3141 -0.0103
   40POPC  H13X 5429   3.101   3.231   8.170  0.9282 -1.2790  1.1759
   40POPC  H13Y 5430   2.986   3.102   8.222 -2.6161  0.5048 -1.2168
   40POPC  C314 5431   2.990   3.285   8.348 -0.4984  0.1805 -0.2444
   40POPC  H14X 5432   3.080   3.266   8.409  0.0951  1.0367 -0.8231
   40POPC  H14Y 5433   2.905   3.241   8.404  0.5993 -3.8820 -1.4818
   40POPC  C315 5434   2.974   3.438   8.338  0.1740 -0.1587 -0.2585
   40POPC  H15X 5435   2.877   3.475   8.297 -0.6981  0.7881  2.4514
   40POPC  H15Y 5436   3.043   3.475   8.259 -1.9066  0.1399 -2.0437
   40POPC  C316 5437   2.975   3.512   8.475  0.3195 -0.3464 -0.0403
   40POPC  H16X 5438   3.075   3.492   8.520  0.5917  1.5424  0.2926
   40POPC  H16Y 5439   2.900   3.479   8.550  0.3702 -0.3159  0.0247
   40POPC  H16Z 5440   2.971   3.623   8.474  1.7732 -0.2452  1.0973
   41CHL1    C3 5441   5.750   5.510  10.106  0.1526  0.4562 -0.5195
   41CHL1    H3 5442   5.651   5.526  10.057 -0.2421  0.3959  0.2250
   41CHL1    O3 5443   5.732   5.534  10.249  0.2841  0.4967  1.0437
   41CHL1   H3' 5444   5.814   5.504  10.289 -1.2397 -1.0531  3.2873
   41CHL1    C4 5445   5.798   5.372  10.082  0.8652  0.5551  0.0826
   41CHL1   H4A 5446   5.891   5.356  10.141  1.5874  3.0131 -0.2727
   41CHL1   H4B 5447   5.717   5.306  10.119 -2.0038  2.8732 -1.6011
   41CHL1    C5 5448   5.845   5.348   9.936  0.0009  0.5881  0.4998
   41CHL1    C6 5449   5.804   5.238   9.870  0.3096 -0.1943  0.4998
   41CHL1    H6 5450   5.738   5.164   9.919  0.2067 -0.7245 -0.4124
   41CHL1    C7 5451   5.864   5.198   9.739 -0.6007 -0.2591  1.4605
   41CHL1   H7A 5452   5.888   5.091   9.727 -2.2664 -0.4460 -0.8579
   41CHL1   H7B 5453   5.779   5.212   9.669 -0.7128 -4.6545  0.4905
   41CHL1    C8 5454   5.979   5.288   9.687  1.1401  0.1290 -0.2818
   41CHL1    H8 5455   6.069   5.238   9.727  0.7793 -2.4621 -2.4104
   41CHL1   C14 5456   5.995   5.283   9.540  0.1023  0.0233  0.2993
   41CHL1   H14 5457   5.903   5.321   9.492  0.1803 -0.6561 -0.4073
   41CHL1   C15 5458   6.007   5.148   9.476  0.0387  0.0079  0.5650
   41CHL1  H15A 5459   6.072   5.085   9.541  3.0605  0.9474 -1.3032
   41CHL1  H15B 5460   5.911   5.099   9.452  2.2648 -3.7351 -1.7540
   41CHL1   C16 5461   6.074   5.182   9.339  0.3034  0.1067 -0.2026
   41CHL1  H16A 5462   6.166   5.123   9.318  0.7637  1.2678 -1.6194
   41CHL1  H16B 5463   6.003   5.154   9.259 -0.6646 -0.5223  0.8533
   41CHL1   C17 5464   6.098   5.330   9.327  0.1690  0.4917  0.0969
   41CHL1   H17 5465   6.004   5.377   9.291  0.2864  0.7065  0.0739
   41CHL1   C13 5466   6.107   5.370   9.479 -0.7167  0.9645 -0.1965
   41CHL1   C18 5467   6.243   5.317   9.544  1.2685 -0.6418  0.2021
   41CHL1  H18A 5468   6.324   5.392   9.529  1.3375 -0.7165  0.2033
   41CHL1  H18B 5469   6.237   5.309   9.655  2.9645 -0.6678  0.3197
   41CHL1  H18C 5470   6.266   5.214   9.509 -1.4586 -1.2988  0.0716
   41CHL1   C12 5471   6.073   5.516   9.512 -0.1104  0.0560  0.0834
   41CHL1  H12A 5472   6.149   5.586   9.471  0.5616 -1.0845 -0.6604
   41CHL1  H12B 5473   5.972   5.539   9.472 -1.3550 -0.7430  2.5522
   41CHL1   C11 5474   6.066   5.527   9.661 -0.0469  0.7828  0.4048
   41CHL1  H11A 5475   6.165   5.516   9.709  0.2215  1.6932  0.0877
   41CHL1  H11B 5476   6.030   5.630   9.683  2.0665  1.2733  1.8081
   41CHL1    C9 5477   5.961   5.435   9.727 -0.0080 -0.6725  0.5941
   41CHL1    H9 5478   5.862   5.465   9.686  1.0769  3.4108  0.5260
   41CHL1   C10 5479   5.939   5.450   9.876 -0.2306  0.0893 -0.1912
   41CHL1   C19 5480   6.077   5.424   9.950  0.1201 -0.1218  0.0593
   41CHL1  H19A 5481   6.070   5.440  10.060  2.9349 -2.9533  0.7852
   41CHL1  H19B 5482   6.122   5.324   9.934  0.1035 -0.1401  0.1287
   41CHL1  H19C 5483   6.150   5.504   9.926 -0.4830  0.3012 -0.3960
   41CHL1    C1 5484   5.889   5.589   9.905  0.2310  0.3671 -0.1143
   41CHL1   H1A 5485   5.962   5.669   9.880  0.9196 -0.6792 -1.5722
   41CHL1   H1B 5486   5.801   5.606   9.839 -0.0093 -0.8629 -0.1309
   41CHL1    C2 5487   5.851   5.612  10.048  0.1431 -0.4621 -1.1263
   41CHL1   H2A 5488   5.812   5.716  10.051  0.3287 -0.3530 -2.2155
   41CHL1   H2B 5489   5.937   5.603  10.118 -1.1791 -3.9661  0.2803
   41CHL1   C20 5490   6.206   5.366   9.234  0.6422  0.7952 -0.0927
   41CHL1   H20 5491   6.304   5.337   9.277  0.0080 -1.0985  0.1765
   41CHL1   C21 5492   6.197   5.518   9.208 -0.5866  0.1856  0.3142
   41CHL1  H21A 5493   6.096   5.539   9.167 -0.1167 -1.9833 -2.2932
   41CHL1  H21B 5494   6.264   5.539   9.122 -1.7371  1.9107 -0.2112
   41CHL1  H21C 5495   6.226   5.582   9.294  1.9779  0.7740 -0.9132
   41CHL1   C22 5496   6.191   5.286   9.100 -0.1518  0.3302  0.3310
   41CHL1  H22A 5497   6.278   5.325   9.043  0.9473  0.0360  1.7467
   41CHL1  H22B 5498   6.221   5.181   9.121 -1.6529 -0.2651 -0.4007
   41CHL1   C23 5499   6.066   5.297   9.014 -0.0937 -0.3761 -0.1494
   41CHL1  H23A 5500   5.978   5.277   9.079 -0.2162  0.2284 -0.1302
   41CHL1  H23B 5501   6.050   5.400   8.976 -2.7484 -1.5559 -2.5635
   41CHL1   C24 5502   6.058   5.192   8.908 -0.1786 -0.4882  0.8956
   41CHL1  H24A 5503   6.125   5.227   8.826 -1.1845  0.1254  0.3073
   41CHL1  H24B 5504   6.096   5.095   8.948 -1.7830 -0.6499  2.1178
   41CHL1   C25 5505   5.924   5.163   8.843  0.4365  0.1568  0.0803
   41CHL1   H25 5506   5.885   5.258   8.801 -0.4585  0.0653  0.6755
   41CHL1   C26 5507   5.922   5.046   8.741  0.4850 -0.3357  0.9546
   41CHL1  H26A 5508   5.983   5.086   8.657 -0.1636  0.5161  0.8733
   41CHL1  H26B 5509   5.978   4.955   8.770 -1.5899 -2.0095 -0.0668
   41CHL1  H26C 5510   5.824   5.016   8.697 -0.0760 -0.3640  2.1833
   41CHL1   C27 5511   5.832   5.128   8.959  0.0834  0.9903 -1.1113
   41CHL1  H27A 5512   5.732   5.086   8.933  0.7712 -1.0928 -0.6205
   41CHL1  H27B 5513   5.877   5.049   9.023 -1.1626 -0.1815 -1.6339
   41CHL1  H27C 5514   5.814   5.216   9.024 -2.0784 -1.6557  2.2482
   42CHL1    C3 5515   0.664   0.073  10.008  0.9501 -0.3078 -0.1118
   42CHL1    H3 5516   0.639  -0.032  10.035  0.2443  0.5412  3.0162
   42CHL1    O3 5517   0.656   0.126  10.142  0.1146  0.4223  0.4992
   42CHL1   H3' 5518   0.599   0.062  10.186 -0.4173  0.3227 -0.3068
   42CHL1    C4 5519   0.806   0.079   9.940 -0.0455 -0.3221 -0.0332
   42CHL1   H4A 5520   0.841   0.183   9.923  2.1178 -1.1956 -1.2719
   42CHL1   H4B 5521   0.886   0.028   9.997  0.9094  1.6260  0.4477
   42CHL1    C5 5522   0.806   0.021   9.796 -0.2698  0.1661  0.9798
   42CHL1    C6 5523   0.884  -0.083   9.767  0.4206  0.3694 -0.0662
   42CHL1    H6 5524   0.957  -0.125   9.837  1.4259  0.2152 -1.1844
   42CHL1    C7 5525   0.893  -0.133   9.628  0.3392  0.0066 -0.0451
   42CHL1   H7A 5526   0.992  -0.121   9.580  0.0249 -0.0709 -0.7205
   42CHL1   H7B 5527   0.880  -0.243   9.628 -2.7113  0.2483  1.4037
   42CHL1    C8 5528   0.805  -0.062   9.520 -0.1852 -0.0661 -0.1262
   42CHL1    H8 5529   0.855   0.035   9.496 -0.3782  0.3999  1.2825
   42CHL1   C14 5530   0.785  -0.153   9.397  0.5839 -0.4275 -0.1468
   42CHL1   H14 5531   0.751  -0.247   9.446  1.7050 -2.2882 -2.7009
   42CHL1   C15 5532   0.909  -0.187   9.320  0.7243  0.2307  0.2997
   42CHL1  H15A 5533   0.965  -0.092   9.307 -1.1884  1.4250  0.3151
   42CHL1  H15B 5534   0.971  -0.265   9.369 -1.3107 -2.9729 -1.8338
   42CHL1   C16 5535   0.856  -0.242   9.187  0.4940  0.4166 -0.5158
   42CHL1  H16A 5536   0.894  -0.182   9.102  1.1880 -0.3044 -0.7196
   42CHL1  H16B 5537   0.878  -0.350   9.174 -0.2946 -0.0787  1.7676
   42CHL1   C17 5538   0.702  -0.202   9.185  0.7796  0.4863 -0.3302
   42CHL1   H17 5539   0.651  -0.293   9.222  0.8755 -1.5299 -4.5710
   42CHL1   C13 5540   0.688  -0.091   9.290  0.5772 -0.3779 -0.3247
   42CHL1   C18 5541   0.745   0.043   9.234 -0.0480 -0.0240  0.4079
   42CHL1  H18A 5542   0.834   0.024   9.170 -0.0767  1.0037  0.0390
   42CHL1  H18B 5543   0.671   0.073   9.157 -1.5269 -0.9932  1.4040
   42CHL1  H18C 5544   0.763   0.131   9.300  0.4520  1.4486 -1.5914
   42CHL1   C12 5545   0.555  -0.056   9.357  0.7491  0.1844 -0.5289
   42CHL1  H12A 5546   0.463  -0.020   9.306 -0.2740  0.5902  1.4922
   42CHL1  H12B 5547   0.523  -0.156   9.393  1.4422 -0.0424 -0.5278
   42CHL1   C11 5548   0.573   0.042   9.479  0.3824  0.3632 -0.1224
   42CHL1  H11A 5549   0.590   0.149   9.455  1.5403 -0.3620 -3.0020
   42CHL1  H11B 5550   0.472   0.036   9.526  1.4837 -0.0284  2.3034
   42CHL1    C9 5551   0.674  -0.020   9.577  0.8732  0.8166 -0.0704
   42CHL1    H9 5552   0.627  -0.115   9.613  2.7204 -1.2081 -2.6171
   42CHL1   C10 5553   0.693   0.059   9.709  0.3853 -1.1315  0.2967
   42CHL1   C19 5554   0.716   0.212   9.670  0.0706  1.0124 -0.4739
   42CHL1  H19A 5555   0.743   0.277   9.756  0.6263  2.2754 -1.5665
   42CHL1  H19B 5556   0.799   0.228   9.598 -0.4464  2.3864 -0.7939
   42CHL1  H19C 5557   0.616   0.242   9.631  0.2431  2.4638  0.1448
   42CHL1    C1 5558   0.561   0.050   9.794  0.4473 -0.5351 -0.4688
   42CHL1   H1A 5559   0.478   0.085   9.729 -1.0712 -1.3269  1.0051
   42CHL1   H1B 5560   0.547  -0.056   9.824  1.6133 -0.2039  1.4412
   42CHL1    C2 5561   0.556   0.132   9.920 -0.1060  0.1950  0.8631
   42CHL1   H2A 5562   0.457   0.112   9.966 -1.9488  1.1163 -2.4390
   42CHL1   H2B 5563   0.555   0.243   9.914 -0.9238  0.2194  1.3315
   42CHL1   C20 5564   0.634  -0.177   9.043 -0.7219  0.8716 -0.3807
   42CHL1   H20 5565   0.679  -0.096   8.981  1.5580 -0.1666 -0.1914
   42CHL1   C21 5566   0.483  -0.143   9.060 -0.3998  0.0806 -0.3160
   42CHL1  H21A 5567   0.486  -0.033   9.077  2.2515  0.2190 -1.1203
   42CHL1  H21B 5568   0.426  -0.202   9.135 -1.6041  0.2666 -1.0635
   42CHL1  H21C 5569   0.434  -0.163   8.963  1.8199 -2.0963 -1.0882
   42CHL1   C22 5570   0.649  -0.308   8.953  0.4410 -0.2420  0.4932
   42CHL1  H22A 5571   0.755  -0.340   8.965  0.4690 -0.6957 -0.7744
   42CHL1  H22B 5572   0.595  -0.394   8.997  0.8885 -0.3376  0.8697
   42CHL1   C23 5573   0.611  -0.286   8.809  0.3324 -0.0620  0.6560
   42CHL1  H23A 5574   0.502  -0.267   8.802  0.0274 -0.8276  2.6833
   42CHL1  H23B 5575   0.657  -0.195   8.765 -0.5119 -0.4399 -1.1175
   42CHL1   C24 5576   0.618  -0.408   8.713 -1.4170 -0.2789  0.8049
   42CHL1  H24A 5577   0.715  -0.461   8.729  0.1080  1.2009 -2.6193
   42CHL1  H24B 5578   0.538  -0.479   8.744 -1.8891  0.4199  1.2013
   42CHL1   C25 5579   0.606  -0.389   8.555  0.1282 -0.3769  0.0614
   42CHL1   H25 5580   0.607  -0.489   8.507 -0.2679 -1.3979  2.0772
   42CHL1   C26 5581   0.469  -0.327   8.521 -0.1115 -0.3434 -0.0868
   42CHL1  H26A 5582   0.386  -0.400   8.534 -1.0580  0.0777 -3.0800
   42CHL1  H26B 5583   0.446  -0.250   8.597 -0.6647 -2.6715  2.2618
   42CHL1  H26C 5584   0.463  -0.285   8.418 -1.0087 -0.6427 -0.1710
   42CHL1   C27 5585   0.715  -0.302   8.497  0.2011  0.4029 -0.3835
   42CHL1  H27A 5586   0.708  -0.199   8.538 -1.9504  0.9099 -1.8500
   42CHL1  H27B 5587   0.817  -0.342   8.516  0.3169  0.4285 -0.9587
   42CHL1  H27C 5588   0.699  -0.292   8.388  2.5876  0.3069 -0.7963
   43CHL1    C3 5589   1.876   6.412  10.133 -0.1776 -0.0614  0.7122
   43CHL1    H3 5590   1.801   6.344  10.089 -0.0182 -0.4143  0.9789
   43CHL1    O3 5591   1.913   6.362  10.258  0.7085 -0.3474 -0.3706
   43CHL1   H3' 5592   2.009   6.367  10.256  0.6269  1.6357 -0.5363
   43CHL1    C4 5593   2.008   6.409  10.051  0.3472 -0.9245 -0.3266
   43CHL1   H4A 5594   2.094   6.447  10.111  0.4088 -1.0071 -0.3614
   43CHL1   H4B 5595   2.034   6.302  10.042 -0.7234 -1.3659  1.4118
   43CHL1    C5 5596   1.997   6.486   9.920  0.0952 -0.8799 -0.3508
   43CHL1    C6 5597   2.042   6.433   9.810  0.5800 -0.1848  0.0916
   43CHL1    H6 5598   2.096   6.338   9.814  0.9450  0.0096 -0.2080
   43CHL1    C7 5599   2.034   6.510   9.685 -0.3798 -0.0419 -0.7559
   43CHL1   H7A 5600   2.123   6.489   9.622 -0.1224 -1.9798  0.1707
   43CHL1   H7B 5601   1.942   6.473   9.634 -1.7545  0.2872  1.3479
   43CHL1    C8 5602   2.017   6.664   9.696 -0.4258 -0.6485  0.1092
   43CHL1    H8 5603   2.116   6.707   9.721 -0.0016 -0.2719 -2.0459
   43CHL1   C14 5604   1.984   6.725   9.554  0.0440  0.6968  0.4080
   43CHL1   H14 5605   1.894   6.669   9.519  0.8794  0.6660 -1.8658
   43CHL1   C15 5606   2.092   6.707   9.448  0.2631 -0.4807  0.5586
   43CHL1  H15A 5607   2.189   6.735   9.494  0.0858  0.1519  0.5506
   43CHL1  H15B 5608   2.093   6.602   9.413 -2.1917 -0.5760  0.5852
   43CHL1   C16 5609   2.068   6.811   9.339 -0.1262 -0.1397 -0.4920
   43CHL1  H16A 5610   2.152   6.871   9.297  0.7973 -1.8189 -1.1338
   43CHL1  H16B 5611   2.024   6.756   9.253  1.1646 -1.4067 -0.3834
   43CHL1   C17 5612   1.955   6.909   9.410 -0.6040 -0.0541 -0.6105
   43CHL1   H17 5613   1.862   6.856   9.378  0.3375 -0.2094 -3.4007
   43CHL1   C13 5614   1.956   6.881   9.560 -0.2106 -0.0117 -0.7170
   43CHL1   C18 5615   2.073   6.957   9.615 -0.0070  0.3941  0.1539
   43CHL1  H18A 5616   2.160   6.948   9.547 -0.7186  4.1511 -1.5319
   43CHL1  H18B 5617   2.061   7.068   9.617  0.6353  0.4700  0.0153
   43CHL1  H18C 5618   2.108   6.929   9.717  0.2817  0.7834  0.1632
   43CHL1   C12 5619   1.831   6.900   9.650 -0.5914 -0.6436 -0.0150
   43CHL1  H12A 5620   1.816   7.009   9.665 -0.7754 -0.7768  0.8184
   43CHL1  H12B 5621   1.751   6.835   9.607  0.5221 -2.0707 -0.0273
   43CHL1   C11 5622   1.855   6.847   9.793  0.1511 -0.2962  0.9744
   43CHL1  H11A 5623   1.930   6.909   9.846  0.0303 -0.2859  1.1341
   43CHL1  H11B 5624   1.758   6.858   9.845 -0.4759 -0.0472 -0.2074
   43CHL1    C9 5625   1.913   6.696   9.796 -0.2602  0.5995 -0.2941
   43CHL1    H9 5626   1.834   6.636   9.745  1.6623 -1.7116 -0.7580
   43CHL1   C10 5627   1.944   6.630   9.932 -1.2168  0.4793 -0.3088
   43CHL1   C19 5628   2.056   6.713  10.007  0.0467 -0.4963 -0.3368
   43CHL1  H19A 5629   2.159   6.717   9.967 -0.4255  0.1372 -1.5348
   43CHL1  H19B 5630   2.019   6.818  10.007  0.3846 -0.3768 -0.3603
   43CHL1  H19C 5631   2.046   6.669  10.109 -0.3258  1.6104  0.5915
   43CHL1    C1 5632   1.809   6.630  10.010  0.1667 -0.6663 -0.5133
   43CHL1   H1A 5633   1.789   6.736  10.036  1.3834 -1.0133  2.1677
   43CHL1   H1B 5634   1.731   6.577   9.951 -2.6502  2.4602  0.1187
   43CHL1    C2 5635   1.822   6.555  10.147  0.6627 -0.2340  0.2804
   43CHL1   H2A 5636   1.721   6.545  10.194 -0.0322  0.7891 -0.9329
   43CHL1   H2B 5637   1.890   6.618  10.208  1.3874 -0.2583 -0.4885
   43CHL1   C20 5638   1.952   7.047   9.351 -0.0267 -0.4053 -0.2391
   43CHL1   H20 5639   2.042   7.103   9.386  2.1735 -1.7564 -3.3077
   43CHL1   C21 5640   1.826   7.119   9.397  0.1300  0.0940 -0.3164
   43CHL1  H21A 5641   1.814   7.219   9.350 -0.4016 -0.2435 -0.9216
   43CHL1  H21B 5642   1.808   7.129   9.506 -1.7585 -0.9747 -0.4886
   43CHL1  H21C 5643   1.750   7.055   9.348  1.4063 -2.2643  0.6262
   43CHL1   C22 5644   1.963   7.053   9.198 -0.4591 -0.1470  0.5126
   43CHL1  H22A 5645   1.939   7.156   9.163 -2.0023 -1.3005 -2.1300
   43CHL1  H22B 5646   2.066   7.027   9.166 -1.1066 -3.3913  0.7405
   43CHL1   C23 5647   1.884   6.956   9.106 -0.0370  0.8055  0.2316
   43CHL1  H23A 5648   1.877   6.848   9.130  1.3730  0.6189 -0.1462
   43CHL1  H23B 5649   1.778   6.991   9.110  0.2156  2.0623 -1.8813
   43CHL1   C24 5650   1.942   6.961   8.963  0.0650  0.2250 -1.1136
   43CHL1  H24A 5651   1.969   7.062   8.927  1.4026  0.8110  1.3040
   43CHL1  H24B 5652   2.042   6.916   8.975 -0.1545  0.1543  0.8225
   43CHL1   C25 5653   1.869   6.880   8.852 -0.7930  0.8178 -0.2742
   43CHL1   H25 5654   1.764   6.915   8.849  0.0059  3.6608  0.8830
   43CHL1   C26 5655   1.930   6.894   8.718 -0.6261  0.4108  0.1624
   43CHL1  H26A 5656   2.041   6.883   8.714 -0.5958  0.8273 -0.3017
   43CHL1  H26B 5657   1.890   6.822   8.644 -1.1215  0.5928  0.2508
   43CHL1  H26C 5658   1.906   6.998   8.684  1.0634  0.9467  0.5102
   43CHL1   C27 5659   1.889   6.726   8.878  0.1312 -0.3563 -0.0254
   43CHL1  H27A 5660   1.814   6.670   8.819  0.7342 -1.4991  0.2516
   43CHL1  H27B 5661   1.994   6.715   8.843  0.6990  3.9802 -0.2464
   43CHL1  H27C 5662   1.878   6.690   8.983  1.2885  0.7266  0.4977
   44CHL1    C3 5663   6.709   6.199  10.200  0.2021 -0.3300 -0.0998
   44CHL1    H3 5664   6.673   6.095  10.213 -1.7466  0.5715  2.5959
   44CHL1    O3 5665   6.743   6.235  10.325  0.1386 -0.3994 -0.0190
   44CHL1   H3' 5666   6.760   6.330  10.332 -1.8964 -0.0205  0.4795
   44CHL1    C4 5667   6.823   6.209  10.098 -0.4067 -0.6640 -0.9978
   44CHL1   H4A 5668   6.851   6.316  10.105 -0.3107 -0.7898  1.2053
   44CHL1   H4B 5669   6.912   6.154  10.135  0.7060  0.5428 -1.7946
   44CHL1    C5 5670   6.791   6.173   9.951 -0.4592  0.2826 -0.2536
   44CHL1    C6 5671   6.862   6.089   9.876  0.1979  0.2347  0.2684
   44CHL1    H6 5672   6.951   6.041   9.921 -0.0850 -0.4032  0.1500
   44CHL1    C7 5673   6.827   6.061   9.733  0.0786 -0.0111  0.2128
   44CHL1   H7A 5674   6.910   6.064   9.659 -1.9100 -1.8650 -2.3008
   44CHL1   H7B 5675   6.779   5.960   9.726  0.2383  0.0128 -1.7340
   44CHL1    C8 5676   6.723   6.165   9.671 -0.0783  0.0855 -0.4351
   44CHL1    H8 5677   6.786   6.256   9.654 -1.1222  1.2312  1.5018
   44CHL1   C14 5678   6.674   6.113   9.533  0.4012 -0.6819 -0.2301
   44CHL1   H14 5679   6.605   6.029   9.557 -0.8078 -0.2349 -1.9740
   44CHL1   C15 5680   6.774   6.075   9.427  0.3178  0.1831  0.1119
   44CHL1  H15A 5681   6.848   6.158   9.420 -0.4586  1.4823  4.3809
   44CHL1  H15B 5682   6.814   5.973   9.441 -1.4110 -0.4605  0.5808
   44CHL1   C16 5683   6.694   6.080   9.296  0.8041 -0.8524  0.0446
   44CHL1  H16A 5684   6.745   6.153   9.229 -2.3874  2.0706  0.5378
   44CHL1  H16B 5685   6.684   5.983   9.241 -2.7398 -0.2372 -0.6244
   44CHL1   C17 5686   6.555   6.149   9.326  0.6620 -0.8433 -0.2253
   44CHL1   H17 5687   6.480   6.071   9.351 -0.0512 -0.0782  0.0739
   44CHL1   C13 5688   6.585   6.222   9.461  0.3301 -0.4924 -0.2766
   44CHL1   C18 5689   6.654   6.356   9.440  0.4936 -0.0113 -0.4434
   44CHL1  H18A 5690   6.736   6.334   9.368 -0.2736 -1.1127 -1.0081
   44CHL1  H18B 5691   6.586   6.432   9.397 -2.1770 -0.8806  1.9412
   44CHL1  H18C 5692   6.713   6.391   9.527  0.1505  1.1062 -0.6493
   44CHL1   C12 5693   6.460   6.242   9.558  0.1191 -0.3235  0.0729
   44CHL1  H12A 5694   6.391   6.315   9.510  1.7343  0.5002 -1.1013
   44CHL1  H12B 5695   6.399   6.150   9.571 -2.5263  1.4675  1.1258
   44CHL1   C11 5696   6.502   6.284   9.693  0.0537 -0.3422 -0.8860
   44CHL1  H11A 5697   6.541   6.387   9.675 -0.4462 -0.2204 -1.2984
   44CHL1  H11B 5698   6.411   6.297   9.755 -0.1480  1.0456 -1.4386
   44CHL1    C9 5699   6.608   6.193   9.762  0.0323 -0.2369 -0.3777
   44CHL1    H9 5700   6.560   6.095   9.780  1.7072 -1.8808 -3.8411
   44CHL1   C10 5701   6.665   6.244   9.899 -0.3910 -0.0107  0.2986
   44CHL1   C19 5702   6.706   6.394   9.888 -0.0715  0.2442 -0.3549
   44CHL1  H19A 5703   6.614   6.448   9.856 -0.4397  0.5374  1.0951
   44CHL1  H19B 5704   6.728   6.430   9.991  0.4625 -0.9722 -0.0369
   44CHL1  H19C 5705   6.798   6.409   9.829 -0.4368  1.4220 -0.6680
   44CHL1    C1 5706   6.548   6.236  10.009  0.0091  0.5594 -0.3809
   44CHL1   H1A 5707   6.472   6.313   9.985 -0.8079  1.4960  4.1680
   44CHL1   H1B 5708   6.507   6.134   9.994  0.2122  0.6110 -1.3248
   44CHL1    C2 5709   6.583   6.282  10.159  0.2970  1.0597 -0.5381
   44CHL1   H2A 5710   6.506   6.248  10.232  1.9848 -0.2567  0.7401
   44CHL1   H2B 5711   6.583   6.390  10.187  0.8188  0.3658  2.4960
   44CHL1   C20 5712   6.506   6.228   9.205 -0.1178  0.0896  0.7371
   44CHL1   H20 5713   6.559   6.326   9.207 -0.4024  0.2325  1.6699
   44CHL1   C21 5714   6.359   6.248   9.224  0.0524  0.4306 -0.1433
   44CHL1  H21A 5715   6.324   6.308   9.311 -1.3608  1.1230 -1.1476
   44CHL1  H21B 5716   6.312   6.148   9.218  0.2277 -0.0560  3.8751
   44CHL1  H21C 5717   6.312   6.302   9.139 -2.0018 -1.3595 -0.2449
   44CHL1   C22 5718   6.538   6.152   9.076  0.1258 -0.5624 -0.8048
   44CHL1  H22A 5719   6.646   6.167   9.056  0.0177  1.0336 -0.2922
   44CHL1  H22B 5720   6.523   6.042   9.080  0.9033 -0.6830 -0.9398
   44CHL1   C23 5721   6.476   6.205   8.948  0.2471 -0.0771 -0.2553
   44CHL1  H23A 5722   6.369   6.187   8.969  0.4807 -0.0007  1.0922
   44CHL1  H23B 5723   6.493   6.314   8.937  1.1420 -0.0407  1.2754
   44CHL1   C24 5724   6.498   6.120   8.827 -0.0242 -0.4814  0.1418
   44CHL1  H24A 5725   6.598   6.136   8.783 -0.3231  0.2034 -0.3045
   44CHL1  H24B 5726   6.483   6.012   8.849 -0.1124 -0.6134 -0.5683
   44CHL1   C25 5727   6.400   6.158   8.710  0.2044  0.1324 -0.3340
   44CHL1   H25 5728   6.294   6.154   8.742  1.2086 -0.7708  3.4048
   44CHL1   C26 5729   6.444   6.287   8.650  0.3537 -0.1651  0.2384
   44CHL1  H26A 5730   6.419   6.370   8.719 -0.2866  0.8095 -1.1151
   44CHL1  H26B 5731   6.553   6.294   8.630  0.1342  1.5121 -0.5198
   44CHL1  H26C 5732   6.390   6.314   8.557 -0.2828 -2.9604 -0.3025
   44CHL1   C27 5733   6.411   6.050   8.600  0.4696  0.6308 -0.9077
   44CHL1  H27A 5734   6.514   6.050   8.559  1.1302 -0.5389  0.6245
   44CHL1  H27B 5735   6.390   5.951   8.645  0.2070  0.6704 -0.9403
   44CHL1  H27C 5736   6.347   6.072   8.512 -1.0026  1.5210  0.3323
   45CHL1    C3 5737   5.011   4.503  10.305  0.2140  0.1609  0.7113
   45CHL1    H3 5738   5.112   4.460  10.317 -0.0406 -0.3968  0.9165
   45CHL1    O3 5739   4.941   4.536  10.428 -0.0082  0.2085  0.1632
   45CHL1   H3' 5740   4.992   4.584  10.494 -0.8657 -1.7248  2.4130
   45CHL1    C4 5741   5.022   4.630  10.217  0.6644 -0.6616 -0.9916
   45CHL1   H4A 5742   4.926   4.685  10.219  1.5324  1.1995 -3.7859
   45CHL1   H4B 5743   5.085   4.691  10.286  0.2263 -2.5913  1.2709
   45CHL1    C5 5744   5.078   4.623  10.082 -0.2118 -0.2583 -0.2021
   45CHL1    C6 5745   5.174   4.704  10.028  0.2765  0.0536  0.0314
   45CHL1    H6 5746   5.214   4.783  10.093 -1.3179  0.0965  1.0333
   45CHL1    C7 5747   5.219   4.700   9.890 -0.0180 -0.6496 -1.5781
   45CHL1   H7A 5748   5.227   4.801   9.844 -0.1646  0.8415  1.4226
   45CHL1   H7B 5749   5.326   4.673   9.903 -0.5125 -2.1110 -0.1996
   45CHL1    C8 5750   5.164   4.594   9.791 -0.1838  0.1304 -1.2077
   45CHL1    H8 5751   5.261   4.554   9.755 -0.8825  0.4211 -3.6095
   45CHL1   C14 5752   5.077   4.637   9.672  0.5874 -0.0650  0.2542
   45CHL1   H14 5753   4.985   4.682   9.716  1.3477  2.6364 -0.6885
   45CHL1   C15 5754   5.148   4.754   9.599  0.4867  0.0768 -0.9969
   45CHL1  H15A 5755   5.110   4.857   9.619 -0.3847 -0.4068 -0.0517
   45CHL1  H15B 5756   5.257   4.752   9.621 -0.0589  1.7069  2.7104
   45CHL1   C16 5757   5.128   4.728   9.448  0.1332 -0.3544  0.1454
   45CHL1  H16A 5758   5.025   4.762   9.423  0.2344  0.9893  1.4521
   45CHL1  H16B 5759   5.196   4.782   9.380 -0.5141  0.8870  0.4639
   45CHL1   C17 5760   5.133   4.576   9.445 -1.1798 -0.2338 -0.2288
   45CHL1   H17 5761   5.236   4.551   9.477 -1.8292 -0.3389  1.9519
   45CHL1   C13 5762   5.052   4.521   9.570 -0.6318 -0.4231  0.2416
   45CHL1   C18 5763   4.906   4.528   9.542 -0.6680 -0.1299  0.4898
   45CHL1  H18A 5764   4.850   4.539   9.637  1.7806 -2.3923  2.3314
   45CHL1  H18B 5765   4.871   4.620   9.491  0.4031 -1.1967 -2.3817
   45CHL1  H18C 5766   4.869   4.447   9.475  1.7386 -0.9607  0.0530
   45CHL1   C12 5767   5.100   4.386   9.624  0.4568  0.0753 -0.2154
   45CHL1  H12A 5768   5.072   4.302   9.557  1.9012 -2.4096  2.1160
   45CHL1  H12B 5769   5.211   4.391   9.622  0.4518  0.3277  0.0579
   45CHL1   C11 5770   5.059   4.360   9.773 -0.3766 -0.2426 -0.3120
   45CHL1  H11A 5771   4.950   4.365   9.756 -0.0770 -0.2339 -2.4811
   45CHL1  H11B 5772   5.087   4.257   9.802 -2.2237 -1.2055 -1.7539
   45CHL1    C9 5773   5.109   4.476   9.868  0.0937  0.1070 -0.6808
   45CHL1    H9 5774   5.198   4.431   9.917 -0.9032  0.8718  2.0158
   45CHL1   C10 5775   5.022   4.506   9.994 -0.5681 -0.1304  0.3837
   45CHL1   C19 5776   4.879   4.555   9.955 -1.1931 -0.0590  0.2275
   45CHL1  H19A 5777   4.833   4.481   9.886  0.7145 -0.1106 -1.0614
   45CHL1  H19B 5778   4.815   4.565  10.045 -2.2119 -1.6278 -0.2783
   45CHL1  H19C 5779   4.897   4.645   9.893  1.2538 -0.6214 -0.0066
   45CHL1    C1 5780   4.995   4.378  10.079  0.1008  0.1983 -0.5797
   45CHL1   H1A 5781   4.923   4.318  10.021 -3.6628  1.3793  2.3940
   45CHL1   H1B 5782   5.085   4.315  10.091  0.0850  0.5835  2.6139
   45CHL1    C2 5783   4.940   4.395  10.219 -0.2514 -0.3221  0.1579
   45CHL1   H2A 5784   4.922   4.300  10.273  2.8519  0.0600  2.1291
   45CHL1   H2B 5785   4.834   4.425  10.205 -0.1640  0.2062  0.5954
   45CHL1   C20 5786   5.100   4.520   9.311 -0.1381  0.2094 -0.4931
   45CHL1   H20 5787   5.081   4.410   9.315 -2.1469  0.4987 -0.9723
   45CHL1   C21 5788   5.236   4.532   9.229 -0.3056  0.0631 -0.0972
   45CHL1  H21A 5789   5.306   4.463   9.281 -2.0568 -2.3422 -0.7380
   45CHL1  H21B 5790   5.267   4.639   9.228  0.5175 -0.1351  1.2942
   45CHL1  H21C 5791   5.229   4.492   9.125  1.9310  1.9024 -1.0584
   45CHL1   C22 5792   4.989   4.586   9.223 -0.3451  0.1626 -0.6493
   45CHL1  H22A 5793   4.895   4.612   9.276 -0.3431 -0.0449 -0.5404
   45CHL1  H22B 5794   5.036   4.673   9.172  1.1646 -1.6778 -2.5503
   45CHL1   C23 5795   4.945   4.490   9.113  0.7142 -0.0207  0.8485
   45CHL1  H23A 5796   5.028   4.463   9.044  1.8005 -0.4023  2.2664
   45CHL1  H23B 5797   4.928   4.394   9.167  3.1028 -0.9455  0.0856
   45CHL1   C24 5798   4.819   4.535   9.033  0.0952 -0.1586 -0.3122
   45CHL1  H24A 5799   4.744   4.579   9.102  0.2954  1.0265 -0.8448
   45CHL1  H24B 5800   4.845   4.622   8.970 -0.1133  0.4863  0.4762
   45CHL1   C25 5801   4.764   4.419   8.948 -0.4203 -0.8193  0.1358
   45CHL1   H25 5802   4.751   4.332   9.016 -1.0959 -1.8699 -1.2697
   45CHL1   C26 5803   4.623   4.456   8.896 -0.2554 -0.8258 -0.1631
   45CHL1  H26A 5804   4.577   4.367   8.847 -1.5448 -0.8989  1.1123
   45CHL1  H26B 5805   4.558   4.475   8.983 -2.0243 -3.3129 -0.8252
   45CHL1  H26C 5806   4.626   4.543   8.828  0.6082 -0.3215  0.5070
   45CHL1   C27 5807   4.851   4.375   8.825  0.2263  0.4712 -0.1729
   45CHL1  H27A 5808   4.802   4.283   8.784  1.0752 -0.3262  0.5653
   45CHL1  H27B 5809   4.849   4.450   8.743 -2.7415 -1.0719 -1.6871
   45CHL1  H27C 5810   4.956   4.355   8.855  0.4446  0.9645 -0.6009
   46CHL1    C3 5811   5.755   3.416  10.230  1.0463  0.1881  0.3625
   46CHL1    H3 5812   5.704   3.319  10.248 -0.2932  0.5938 -0.9901
   46CHL1    O3 5813   5.745   3.513  10.330  0.0941  0.3710 -0.9504
   46CHL1   H3' 5814   5.801   3.485  10.403  0.0241 -0.0865 -1.0660
   46CHL1    C4 5815   5.907   3.393  10.192 -0.1613  0.1311 -0.1331
   46CHL1   H4A 5816   5.954   3.491  10.166 -0.1634  0.0722 -0.3642
   46CHL1   H4B 5817   5.957   3.352  10.282  0.6366  1.2200 -0.0453
   46CHL1    C5 5818   5.919   3.294  10.074 -0.4141 -0.2126 -0.1486
   46CHL1    C6 5819   5.988   3.176  10.079  0.1106 -0.3206  0.8019
   46CHL1    H6 5820   6.052   3.149  10.165  0.9904 -0.1241  0.2153
   46CHL1    C7 5821   6.003   3.096   9.956  0.4734  0.7266 -0.6479
   46CHL1   H7A 5822   6.110   3.071   9.947  0.4603  0.0714  0.7223
   46CHL1   H7B 5823   5.957   2.995   9.960  2.7769 -0.5185 -2.8876
   46CHL1    C8 5824   5.962   3.158   9.824  0.1261 -0.4506 -0.5551
   46CHL1    H8 5825   6.038   3.234   9.798  0.3379  0.3201  2.0377
   46CHL1   C14 5826   5.955   3.060   9.713 -1.0803  0.6020 -0.3696
   46CHL1   H14 5827   5.881   2.980   9.734 -0.4173 -0.3868 -1.6632
   46CHL1   C15 5828   6.082   2.973   9.676  0.3374  0.0682  0.5425
   46CHL1  H15A 5829   6.172   3.036   9.692  0.2367 -0.0949  1.9143
   46CHL1  H15B 5830   6.083   2.883   9.741  0.1737  0.2499  0.8008
   46CHL1   C16 5831   6.076   2.952   9.519 -0.5560  0.0480  0.0812
   46CHL1  H16A 5832   6.157   3.015   9.476 -2.8474  2.1254 -1.4359
   46CHL1  H16B 5833   6.087   2.844   9.496 -2.1014 -0.1129 -0.0084
   46CHL1   C17 5834   5.932   2.994   9.482  0.8309  0.7448 -0.4928
   46CHL1   H17 5835   5.874   2.911   9.529  0.6662  0.9555 -0.3231
   46CHL1   C13 5836   5.912   3.111   9.579  0.0153 -0.5758  0.3164
   46CHL1   C18 5837   6.002   3.224   9.533 -0.3199 -0.1150  0.3706
   46CHL1  H18A 5838   5.956   3.259   9.438  1.1044  0.6009 -0.0765
   46CHL1  H18B 5839   5.998   3.303   9.612 -3.2454 -0.4784  0.7176
   46CHL1  H18C 5840   6.105   3.198   9.503 -0.4279 -1.0092  0.7441
   46CHL1   C12 5841   5.767   3.152   9.604 -0.2487 -0.3952  0.4471
   46CHL1  H12A 5842   5.736   3.197   9.507 -0.4919 -0.4212  0.5107
   46CHL1  H12B 5843   5.702   3.063   9.621  1.4759 -1.8244 -0.1118
   46CHL1   C11 5844   5.758   3.261   9.716 -0.5480 -0.6149 -0.3356
   46CHL1  H11A 5845   5.809   3.349   9.671  3.4552 -2.6774 -0.2786
   46CHL1  H11B 5846   5.653   3.289   9.739  0.1339  1.1115  0.8233
   46CHL1    C9 5847   5.834   3.229   9.850  0.7730 -0.4588  0.3198
   46CHL1    H9 5848   5.760   3.155   9.887  1.5418 -2.2168 -1.4609
   46CHL1   C10 5849   5.832   3.346   9.954  0.3471  0.4509 -0.3713
   46CHL1   C19 5850   5.921   3.466   9.906 -0.0511  0.4245  0.4777
   46CHL1  H19A 5851   5.889   3.485   9.801  0.1757  1.2493  0.5474
   46CHL1  H19B 5852   5.903   3.553   9.972  1.4519  0.0659  1.4039
   46CHL1  H19C 5853   6.029   3.444   9.915 -0.2978 -0.8048  0.6175
   46CHL1    C1 5854   5.687   3.392   9.982  0.1944  0.4389 -0.5021
   46CHL1   H1A 5855   5.652   3.450   9.895  0.7371  0.3374 -0.7899
   46CHL1   H1B 5856   5.615   3.308   9.996 -1.1663  1.7718  0.9279
   46CHL1    C2 5857   5.683   3.483  10.107 -0.0360 -0.3179 -0.3678
   46CHL1   H2A 5858   5.579   3.519  10.124 -0.3000 -1.6563  1.0964
   46CHL1   H2B 5859   5.745   3.574  10.094  0.3509 -0.4370  0.5572
   46CHL1   C20 5860   5.907   3.008   9.330 -0.0637  0.0069 -0.5625
   46CHL1   H20 5861   5.953   3.102   9.294  1.1414 -0.2704  0.1917
   46CHL1   C21 5862   5.757   3.016   9.290 -0.1611 -0.3941 -0.0523
   46CHL1  H21A 5863   5.701   2.930   9.334  1.2004 -0.3781  1.8905
   46CHL1  H21B 5864   5.754   3.027   9.180  4.4113  1.3541 -0.2129
   46CHL1  H21C 5865   5.720   3.115   9.324  0.1449 -0.7294  1.3361
   46CHL1   C22 5866   5.989   2.902   9.242  0.4868  0.1621  0.4725
   46CHL1  H22A 5867   6.096   2.924   9.257  0.2108  1.7575  0.2959
   46CHL1  H22B 5868   5.968   2.806   9.293  0.9713 -0.1561  0.0720
   46CHL1   C23 5869   5.967   2.904   9.090  0.0640 -0.2443 -1.0347
   46CHL1  H23A 5870   5.858   2.894   9.073 -0.1735 -3.9914  1.4643
   46CHL1  H23B 5871   6.008   2.996   9.043 -2.1705  0.8045 -1.0339
   46CHL1   C24 5872   6.041   2.785   9.028 -0.5119 -0.6584  0.8208
   46CHL1  H24A 5873   6.151   2.794   9.036 -0.3035  0.8153 -2.2446
   46CHL1  H24B 5874   6.002   2.690   9.071 -0.7998 -1.7040 -1.6065
   46CHL1   C25 5875   6.011   2.765   8.875  0.5312  0.5954  0.1901
   46CHL1   H25 5876   5.998   2.864   8.827 -0.2419  0.2857 -0.2481
   46CHL1   C26 5877   6.134   2.713   8.797  0.1104 -0.5474 -0.1675
   46CHL1  H26A 5878   6.164   2.613   8.835  1.3657 -0.1554 -0.0641
   46CHL1  H26B 5879   6.121   2.712   8.687  1.8436  1.5761 -0.4562
   46CHL1  H26C 5880   6.217   2.787   8.799 -0.8957  0.7102 -2.2751
   46CHL1   C27 5881   5.885   2.678   8.853 -0.1620  0.0043 -0.3151
   46CHL1  H27A 5882   5.796   2.719   8.905 -1.0695 -2.4812  0.2588
   46CHL1  H27B 5883   5.863   2.678   8.744  1.1455  1.2057 -0.6096
   46CHL1  H27C 5884   5.900   2.572   8.882  2.4354  0.8492  1.8957
   47CHL1    C3 5885   1.351   0.135  10.033 -0.0063 -0.1145 -0.0813
   47CHL1    H3 5886   1.377   0.027  10.021  0.7031  0.0909 -0.4433
   47CHL1    O3 5887   1.369   0.161  10.177  0.2437 -0.5369  0.2551
   47CHL1   H3' 5888   1.301   0.227  10.192  1.6815  0.8170  1.1863
   47CHL1    C4 5889   1.431   0.234   9.954  0.7170  0.1322 -0.3752
   47CHL1   H4A 5890   1.411   0.334   9.997  0.7924 -0.2086  0.4656
   47CHL1   H4B 5891   1.536   0.211   9.983  1.3727  0.7625 -2.0970
   47CHL1    C5 5892   1.409   0.246   9.806  0.4285 -1.0825  0.4487
   47CHL1    C6 5893   1.513   0.238   9.725 -0.5482 -0.4868 -0.5809
   47CHL1    H6 5894   1.616   0.225   9.763 -1.0574 -0.8824  0.7228
   47CHL1    C7 5895   1.504   0.238   9.576  0.3249 -0.6513 -0.8982
   47CHL1   H7A 5896   1.578   0.312   9.539 -0.9500 -0.5754 -3.5611
   47CHL1   H7B 5897   1.533   0.138   9.536  1.1713  0.0438 -2.0895
   47CHL1    C8 5898   1.362   0.286   9.522 -0.0374  0.4118 -0.2929
   47CHL1    H8 5899   1.353   0.395   9.537  2.4014  0.6442 -0.1349
   47CHL1   C14 5900   1.343   0.248   9.373  0.1265 -0.2334 -0.2439
   47CHL1   H14 5901   1.365   0.141   9.357  0.0074 -0.0048 -2.0873
   47CHL1   C15 5902   1.452   0.314   9.285  0.4104 -0.3480  0.0814
   47CHL1  H15A 5903   1.462   0.420   9.316  0.3701 -0.7666  1.6008
   47CHL1  H15B 5904   1.549   0.263   9.304 -0.2459 -1.7559 -0.2194
   47CHL1   C16 5905   1.387   0.305   9.146 -0.4648 -0.3293 -0.1965
   47CHL1  H16A 5906   1.395   0.404   9.096 -1.5614 -0.3213 -0.3915
   47CHL1  H16B 5907   1.443   0.231   9.084 -0.0116 -0.8227  0.7873
   47CHL1   C17 5908   1.233   0.263   9.160  0.2654 -0.1048 -0.7967
   47CHL1   H17 5909   1.221   0.153   9.155 -3.0257 -0.0546  2.2534
   47CHL1   C13 5910   1.211   0.283   9.314  0.0219  0.7593 -0.0216
   47CHL1   C18 5911   1.182   0.427   9.331  0.1753 -0.6786  0.7340
   47CHL1  H18A 5912   1.156   0.447   9.437  1.7022 -1.4230  1.2752
   47CHL1  H18B 5913   1.254   0.502   9.293  0.4005 -1.3908 -0.2920
   47CHL1  H18C 5914   1.083   0.449   9.286 -0.0429 -1.1201  0.9856
   47CHL1   C12 5915   1.106   0.191   9.380 -0.2462 -0.0991 -0.1143
   47CHL1  H12A 5916   1.003   0.228   9.360  0.0765 -0.4927 -2.8856
   47CHL1  H12B 5917   1.113   0.085   9.347  2.5016 -1.0712  3.0178
   47CHL1   C11 5918   1.111   0.202   9.538  0.4505  0.4155  0.6238
   47CHL1  H11A 5919   1.065   0.296   9.574 -0.3380  0.4421 -0.4105
   47CHL1  H11B 5920   1.048   0.120   9.578  0.9433  0.2408  1.0543
   47CHL1    C9 5921   1.253   0.202   9.602  0.5533 -0.1228 -0.5200
   47CHL1    H9 5922   1.284   0.096   9.588  2.5504  0.6921 -3.0654
   47CHL1   C10 5923   1.266   0.239   9.755  0.2000 -0.2784 -0.0645
   47CHL1   C19 5924   1.210   0.386   9.788 -0.1138  0.1278 -0.3852
   47CHL1  H19A 5925   1.105   0.404   9.756 -0.5229  0.2088  0.9465
   47CHL1  H19B 5926   1.216   0.422   9.893 -1.0071  1.5811 -0.8090
   47CHL1  H19C 5927   1.255   0.467   9.727 -0.4959  0.1869 -0.5906
   47CHL1    C1 5928   1.178   0.146   9.837  0.5481 -0.0373  0.0181
   47CHL1   H1A 5929   1.068   0.157   9.824  0.4700 -2.1075 -1.4972
   47CHL1   H1B 5930   1.198   0.042   9.806 -0.1540 -0.4060  0.7384
   47CHL1    C2 5931   1.204   0.157   9.993  0.2164 -0.1855  0.1562
   47CHL1   H2A 5932   1.140   0.083  10.045 -0.6662  0.3043 -0.2183
   47CHL1   H2B 5933   1.178   0.252  10.043  1.3212 -0.2857  0.9500
   47CHL1   C20 5934   1.141   0.323   9.057  0.6524  0.2532 -1.0733
   47CHL1   H20 5935   1.127   0.432   9.073 -1.9169 -0.0006 -1.2890
   47CHL1   C21 5936   1.005   0.243   9.071 -0.3277 -0.9680  0.4422
   47CHL1  H21A 5937   0.962   0.296   9.159  1.1610  0.0206  0.6053
   47CHL1  H21B 5938   1.028   0.134   9.072  0.1252 -0.8793 -0.1168
   47CHL1  H21C 5939   0.945   0.269   8.982  0.5010  0.3714  0.2452
   47CHL1   C22 5940   1.190   0.302   8.909 -0.3514  0.1494  0.4069
   47CHL1  H22A 5941   1.238   0.204   8.889  0.3914  0.8675 -1.5877
   47CHL1  H22B 5942   1.102   0.305   8.841  2.0803  0.7782 -2.9519
   47CHL1   C23 5943   1.285   0.403   8.840  0.2528  0.0201 -0.1592
   47CHL1  H23A 5944   1.261   0.505   8.877 -0.6045 -0.9014  2.0273
   47CHL1  H23B 5945   1.388   0.399   8.880  0.5577 -0.8425 -0.9814
   47CHL1   C24 5946   1.282   0.395   8.687 -1.0900  0.2451  0.3078
   47CHL1  H24A 5947   1.312   0.291   8.664 -3.1718 -1.1610  3.2449
   47CHL1  H24B 5948   1.179   0.416   8.650  0.1130  0.9295 -2.9811
   47CHL1   C25 5949   1.384   0.501   8.620 -0.4691 -0.5828  0.3089
   47CHL1   H25 5950   1.365   0.599   8.668  0.6701 -0.2523  0.1060
   47CHL1   C26 5951   1.529   0.449   8.646  0.1215  0.3694  0.1098
   47CHL1  H26A 5952   1.545   0.343   8.617 -2.7081 -0.4640  1.1827
   47CHL1  H26B 5953   1.553   0.464   8.754  1.0100 -0.9499  0.1084
   47CHL1  H26C 5954   1.593   0.510   8.579  1.5919 -2.5374 -1.3048
   47CHL1   C27 5955   1.361   0.528   8.472 -0.0879 -0.1002  0.7122
   47CHL1  H27A 5956   1.255   0.546   8.445 -0.0861  1.0941  1.4614
   47CHL1  H27B 5957   1.412   0.620   8.438 -1.4863 -0.2354 -2.0589
   47CHL1  H27C 5958   1.396   0.438   8.416 -2.5282  0.7905 -2.5476
   48CHL1    C3 5959   2.059   0.348  10.093  0.0746 -0.3784  0.1228
   48CHL1    H3 5960   2.080   0.262  10.026 -1.3686  0.2008 -1.1440
   48CHL1    O3 5961   2.058   0.312  10.226  0.0406  0.9198 -0.0331
   48CHL1   H3' 5962   2.047   0.395  10.272  0.0387 -0.0281  1.7915
   48CHL1    C4 5963   2.163   0.469  10.076 -0.2553  0.7578 -0.1654
   48CHL1   H4A 5964   2.142   0.543  10.157  0.0939  2.0129 -1.1859
   48CHL1   H4B 5965   2.262   0.420  10.085 -0.5543  0.3033  0.8501
   48CHL1    C5 5966   2.155   0.519   9.935 -0.5722 -0.3397 -0.1556
   48CHL1    C6 5967   2.268   0.511   9.862  0.5713 -0.2507 -0.1796
   48CHL1    H6 5968   2.354   0.483   9.923  0.1099 -1.1111  0.0895
   48CHL1    C7 5969   2.273   0.567   9.721 -0.0999  0.3036 -0.2079
   48CHL1   H7A 5970   2.364   0.618   9.684  0.2711 -0.5029 -0.4256
   48CHL1   H7B 5971   2.282   0.479   9.654  1.7875  0.3080 -0.0018
   48CHL1    C8 5972   2.150   0.653   9.682 -0.0731 -0.7401  0.5375
   48CHL1    H8 5973   2.147   0.753   9.729 -1.0354  0.2779 -1.5568
   48CHL1   C14 5974   2.148   0.667   9.527  0.1685  0.4698  0.3918
   48CHL1   H14 5975   2.115   0.568   9.487  3.4343 -0.6389  0.1387
   48CHL1   C15 5976   2.279   0.701   9.449 -0.6430 -0.3857  0.1545
   48CHL1  H15A 5977   2.314   0.801   9.481 -0.2499 -0.2712 -0.6385
   48CHL1  H15B 5978   2.361   0.626   9.450 -2.0443 -2.0075 -0.6663
   48CHL1   C16 5979   2.222   0.720   9.306 -0.1291  0.1537  0.0023
   48CHL1  H16A 5980   2.259   0.815   9.262  0.1830 -0.6336 -1.4921
   48CHL1  H16B 5981   2.256   0.639   9.238 -2.8329 -1.4818  0.4224
   48CHL1   C17 5982   2.069   0.719   9.318  0.5832  0.1177  0.7670
   48CHL1   H17 5983   2.031   0.618   9.290  0.1470  0.3321  0.5804
   48CHL1   C13 5984   2.029   0.744   9.468 -0.1832  0.3576 -0.8262
   48CHL1   C18 5985   2.050   0.896   9.504 -0.3370 -0.2108  0.8205
   48CHL1  H18A 5986   2.144   0.936   9.460 -0.3597 -1.6646 -0.6326
   48CHL1  H18B 5987   1.974   0.964   9.459  0.8768  0.0801 -0.8938
   48CHL1  H18C 5988   2.058   0.920   9.612  1.9135 -1.3368  0.9536
   48CHL1   C12 5989   1.894   0.696   9.515  0.4542  0.3408 -0.7434
   48CHL1  H12A 5990   1.825   0.781   9.499  1.7149  1.7254  0.8086
   48CHL1  H12B 5991   1.875   0.601   9.459  0.2610 -0.7033  1.0021
   48CHL1   C11 5992   1.893   0.666   9.666  0.9635  0.2437 -0.5860
   48CHL1  H11A 5993   1.899   0.767   9.712 -4.1395  0.1205  0.9163
   48CHL1  H11B 5994   1.800   0.619   9.704  1.0332 -0.0405 -0.7592
   48CHL1    C9 5995   2.018   0.589   9.722  0.1791 -0.6702 -0.2476
   48CHL1    H9 5996   2.017   0.492   9.667  1.4769  1.3644 -4.2236
   48CHL1   C10 5997   2.016   0.562   9.881 -0.4110  0.4719  0.1062
   48CHL1   C19 5998   1.978   0.695   9.942  0.5222 -0.1805  0.3585
   48CHL1  H19A 5999   1.982   0.704  10.053 -0.8894  0.2894  0.3871
   48CHL1  H19B 6000   2.044   0.775   9.901 -1.0920 -0.1735 -2.4442
   48CHL1  H19C 6001   1.875   0.727   9.917  0.2127 -0.2430  1.5317
   48CHL1    C1 6002   1.916   0.446   9.909  0.1219  0.2078 -0.1003
   48CHL1   H1A 6003   1.811   0.477   9.885 -0.8135 -2.8277 -0.3180
   48CHL1   H1B 6004   1.932   0.362   9.838 -1.7337  1.5855 -2.2990
   48CHL1    C2 6005   1.916   0.405  10.058  0.1335  0.7415  0.2305
   48CHL1   H2A 6006   1.826   0.340  10.071  1.4616 -0.9191  1.4957
   48CHL1   H2B 6007   1.889   0.497  10.113  3.9205  1.8053  0.5854
   48CHL1   C20 6008   2.009   0.814   9.209 -0.1752  0.0976  0.0983
   48CHL1   H20 6009   2.040   0.919   9.231 -1.8872  1.1285 -1.9198
   48CHL1   C21 6010   1.851   0.808   9.210  0.3385 -0.0435 -0.1861
   48CHL1  H21A 6011   1.813   0.705   9.196  0.4127 -0.6124  3.0688
   48CHL1  H21B 6012   1.817   0.859   9.117 -1.3323  0.4230  0.6440
   48CHL1  H21C 6013   1.806   0.867   9.292  0.9165 -0.0617  0.1506
   48CHL1   C22 6014   2.046   0.790   9.057  0.4152 -0.2396  0.0456
   48CHL1  H22A 6015   2.019   0.886   9.008 -0.7464 -1.6240 -2.1766
   48CHL1  H22B 6016   2.157   0.782   9.048  0.3390  0.2556 -1.5036
   48CHL1   C23 6017   1.999   0.660   8.992 -0.2433  0.2213  0.2432
   48CHL1  H23A 6018   2.050   0.574   9.040 -0.3320 -0.6415 -1.1473
   48CHL1  H23B 6019   1.891   0.632   8.996  0.1492 -1.7971 -1.4291
   48CHL1   C24 6020   2.016   0.656   8.846 -0.8467  0.3140  0.1650
   48CHL1  H24A 6021   1.937   0.724   8.806  0.0343  0.8334 -0.7260
   48CHL1  H24B 6022   2.114   0.705   8.828 -1.2092  0.7535 -0.6620
   48CHL1   C25 6023   2.002   0.521   8.777  0.2653 -0.3771 -0.4893
   48CHL1   H25 6024   1.926   0.460   8.830 -1.0284  0.4220 -1.3832
   48CHL1   C26 6025   1.967   0.541   8.637  0.9443  0.1332  0.1343
   48CHL1  H26A 6026   1.938   0.451   8.580  1.4148  0.9565 -1.4634
   48CHL1  H26B 6027   1.876   0.602   8.618  1.3202  0.4680 -0.6014
   48CHL1  H26C 6028   2.048   0.587   8.577  0.1863  1.5514  0.1423
   48CHL1   C27 6029   2.137   0.446   8.782 -0.0569  0.2309 -0.5637
   48CHL1  H27A 6030   2.226   0.490   8.732 -1.1017  1.8545 -1.0780
   48CHL1  H27B 6031   2.148   0.429   8.891 -1.8791  2.9042  0.1536
   48CHL1  H27C 6032   2.117   0.348   8.732  1.1169  0.2603 -1.1182
   49CHL1    C3 6033   0.371   2.199  10.146  0.4734 -0.1806 -0.2125
   49CHL1    H3 6034   0.312   2.281  10.101 -2.5337 -0.6220  2.4978
   49CHL1    O3 6035   0.398   2.218  10.288  0.6135 -0.1512  0.1443
   49CHL1   H3' 6036   0.484   2.260  10.295  1.2542 -1.6731  3.5478
   49CHL1    C4 6037   0.289   2.066  10.122  0.1329  0.1559 -0.3341
   49CHL1   H4A 6038   0.345   1.985  10.172  1.7907  0.7414 -1.1712
   49CHL1   H4B 6039   0.198   2.068  10.186  1.0489 -1.4284  1.0910
   49CHL1    C5 6040   0.264   2.048   9.972 -0.1789  0.2712 -0.5271
   49CHL1    C6 6041   0.142   2.063   9.912  0.6257  0.5314 -0.0755
   49CHL1    H6 6042   0.050   2.068   9.973  0.7471  0.2744  0.1319
   49CHL1    C7 6043   0.124   2.039   9.770 -0.1039 -0.2528  0.3414
   49CHL1   H7A 6044   0.043   1.966   9.746  0.0241 -0.0113 -0.9148
   49CHL1   H7B 6045   0.080   2.123   9.713 -0.6224  0.0057  1.1205
   49CHL1    C8 6046   0.258   1.990   9.690  0.2300  1.0648 -1.0452
   49CHL1    H8 6047   0.271   1.886   9.726 -1.4090  1.0423 -0.4267
   49CHL1   C14 6048   0.241   1.996   9.532  0.7268 -0.4693  0.0013
   49CHL1   H14 6049   0.229   2.105   9.513 -0.0708 -0.1286  2.1842
   49CHL1   C15 6050   0.111   1.943   9.469  0.3319  0.0551 -0.8440
   49CHL1  H15A 6051   0.091   1.848   9.523  0.8697 -0.6545 -1.8695
   49CHL1  H15B 6052   0.020   2.007   9.469  0.8179  0.7715 -0.0216
   49CHL1   C16 6053   0.152   1.905   9.328  0.8331 -0.5533  0.0932
   49CHL1  H16A 6054   0.150   1.797   9.306  0.7426 -0.9883  2.0662
   49CHL1  H16B 6055   0.096   1.952   9.245 -1.5650 -1.2410  1.2419
   49CHL1   C17 6056   0.299   1.954   9.317  0.0244 -0.2347  0.0727
   49CHL1   H17 6057   0.301   2.063   9.298  1.7414 -0.4376 -1.0825
   49CHL1   C13 6058   0.359   1.943   9.454 -0.0740  0.3199 -0.6665
   49CHL1   C18 6059   0.377   1.789   9.491 -0.6455 -1.2277  0.0935
   49CHL1  H18A 6060   0.403   1.778   9.598  0.6713 -0.4972 -0.1307
   49CHL1  H18B 6061   0.284   1.730   9.476 -0.1196 -2.1273  0.2733
   49CHL1  H18C 6062   0.464   1.750   9.433 -1.3226  0.2870 -2.0728
   49CHL1   C12 6063   0.484   2.022   9.494  0.0388  0.1238 -0.7271
   49CHL1  H12A 6064   0.577   1.974   9.458  0.5570 -0.9877  1.8877
   49CHL1  H12B 6065   0.473   2.123   9.449  1.8695  0.4898 -0.3872
   49CHL1   C11 6066   0.505   2.045   9.651 -0.5869 -0.0391 -0.6103
   49CHL1  H11A 6067   0.564   1.962   9.696 -1.2860  0.1362  0.6900
   49CHL1  H11B 6068   0.566   2.136   9.669  0.1713 -0.7683  0.6775
   49CHL1    C9 6069   0.374   2.060   9.740  0.1579 -0.3600  0.7164
   49CHL1    H9 6070   0.339   2.165   9.727  1.1917 -0.2205 -1.2010
   49CHL1   C10 6071   0.392   2.041   9.894 -0.3455  0.0333 -0.7040
   49CHL1   C19 6072   0.451   1.905   9.923  0.4866  0.3725 -0.0633
   49CHL1  H19A 6073   0.387   1.832   9.870 -1.3670  2.9695 -1.5900
   49CHL1  H19B 6074   0.561   1.907   9.907  0.5079  2.7221  0.0617
   49CHL1  H19C 6075   0.432   1.862  10.024 -1.9001 -1.6781 -1.2743
   49CHL1    C1 6076   0.494   2.155   9.934 -0.3535  0.3486 -0.3236
   49CHL1   H1A 6077   0.592   2.158   9.882 -0.6237 -1.7394 -1.0246
   49CHL1   H1B 6078   0.439   2.242   9.891 -1.8950 -0.5344 -0.2237
   49CHL1    C2 6079   0.510   2.182  10.081  0.1750 -0.9948  0.1841
   49CHL1   H2A 6080   0.566   2.277  10.096  1.6907 -1.7929 -0.2329
   49CHL1   H2B 6081   0.572   2.105  10.130 -0.4623 -0.6825  1.5257
   49CHL1   C20 6082   0.370   1.883   9.205  0.1391  0.3499 -0.0664
   49CHL1   H20 6083   0.368   1.773   9.223  1.4074  0.3121 -0.0695
   49CHL1   C21 6084   0.517   1.926   9.190  0.8358 -0.1418  0.0709
   49CHL1  H21A 6085   0.568   1.856   9.260  1.2238  2.4165  2.5214
   49CHL1  H21B 6086   0.525   2.034   9.213  0.3850 -0.4122  1.6577
   49CHL1  H21C 6087   0.563   1.914   9.090  1.9400  1.4916  0.3503
   49CHL1   C22 6088   0.291   1.895   9.071 -0.3554  0.5913  0.3706
   49CHL1  H22A 6089   0.346   1.816   9.017 -1.4449 -0.4058  0.6904
   49CHL1  H22B 6090   0.183   1.868   9.074 -0.5776  1.2213 -0.9961
   49CHL1   C23 6091   0.312   2.024   9.002 -0.6668  0.0922  0.6456
   49CHL1  H23A 6092   0.297   2.103   9.078  1.0564  0.8386  0.2627
   49CHL1  H23B 6093   0.416   2.034   8.965 -0.3633 -0.5370  1.3147
   49CHL1   C24 6094   0.198   2.035   8.898 -0.4395  0.2096  0.0929
   49CHL1  H24A 6095   0.102   2.034   8.954 -1.0389  1.3103 -0.8736
   49CHL1  H24B 6096   0.215   2.133   8.850  2.6490  0.5010  1.5139
   49CHL1   C25 6097   0.184   1.921   8.780 -0.4464  0.1492 -0.0701
   49CHL1   H25 6098   0.117   1.974   8.709 -0.7726 -0.9623 -0.6150
   49CHL1   C26 6099   0.322   1.896   8.723 -0.0279  0.5155  0.2517
   49CHL1  H26A 6100   0.334   1.846   8.625  1.7444  0.7435  0.3044
   49CHL1  H26B 6101   0.381   1.990   8.724  2.0807 -0.7181  1.7949
   49CHL1  H26C 6102   0.385   1.843   8.798 -0.7699  2.3275  2.2567
   49CHL1   C27 6103   0.117   1.790   8.816  0.3266  0.3126  0.0060
   49CHL1  H27A 6104   0.104   1.719   8.732  1.2494  1.6547 -1.3213
   49CHL1  H27B 6105   0.187   1.731   8.878  1.0958  2.6678  1.5057
   49CHL1  H27C 6106   0.021   1.807   8.870  0.4220  1.0378 -0.0394
   50CHL1    C3 6107   4.292   4.388  10.127  0.0400  0.2392  0.2525
   50CHL1    H3 6108   4.306   4.283  10.094  0.9511  0.9819 -1.8780
   50CHL1    O3 6109   4.304   4.379  10.270 -0.4457  0.3300  0.3518
   50CHL1   H3' 6110   4.391   4.417  10.280 -0.1226 -0.4384  0.4877
   50CHL1    C4 6111   4.401   4.488  10.085  1.6006  0.4444 -0.2092
   50CHL1   H4A 6112   4.393   4.583  10.142  2.0451 -0.5906  1.6783
   50CHL1   H4B 6113   4.498   4.445  10.117  0.4356 -1.0232  1.5306
   50CHL1    C5 6114   4.406   4.499   9.932  0.5711  0.4804 -0.3371
   50CHL1    C6 6115   4.515   4.468   9.857  0.1969  0.1074  0.0188
   50CHL1    H6 6116   4.607   4.427   9.902  0.0644 -0.0521  0.1465
   50CHL1    C7 6117   4.535   4.494   9.714  0.9106 -0.0910 -1.0586
   50CHL1   H7A 6118   4.626   4.553   9.689 -0.1749  1.5146 -1.3909
   50CHL1   H7B 6119   4.546   4.401   9.655  0.8175  0.2272 -1.5880
   50CHL1    C8 6120   4.412   4.574   9.656  0.5761  0.1992 -0.1625
   50CHL1    H8 6121   4.437   4.679   9.683 -0.2930 -0.0596  1.8541
   50CHL1   C14 6122   4.391   4.550   9.504 -0.1548 -0.0683  0.3732
   50CHL1   H14 6123   4.371   4.442   9.495  0.7129 -0.3557  1.6462
   50CHL1   C15 6124   4.517   4.578   9.415 -0.5148 -0.1212 -0.2431
   50CHL1  H15A 6125   4.559   4.678   9.436  0.1565 -0.3409 -0.5273
   50CHL1  H15B 6126   4.595   4.502   9.436 -0.2503  0.5015  1.1760
   50CHL1   C16 6127   4.468   4.575   9.271 -0.2610  0.2687 -0.3344
   50CHL1  H16A 6128   4.510   4.659   9.212 -1.1046  0.8133 -0.1851
   50CHL1  H16B 6129   4.501   4.476   9.233 -0.3943 -0.4732  1.3504
   50CHL1   C17 6130   4.311   4.585   9.280  0.5348  0.7492  0.0553
   50CHL1   H17 6131   4.263   4.487   9.257  1.8354  0.1402 -0.1462
   50CHL1   C13 6132   4.278   4.621   9.430 -0.4470 -0.0817 -0.2868
   50CHL1   C18 6133   4.287   4.776   9.451 -0.2970 -0.0158  0.0596
   50CHL1  H18A 6134   4.188   4.814   9.418  0.5788  1.2800 -1.2087
   50CHL1  H18B 6135   4.292   4.805   9.558 -0.1016  0.9194 -0.1890
   50CHL1  H18C 6136   4.373   4.821   9.396 -0.4951  0.5732  0.2193
   50CHL1   C12 6137   4.147   4.577   9.494  0.1772 -0.7039 -0.2903
   50CHL1  H12A 6138   4.058   4.635   9.463  0.8152  0.0023 -0.8449
   50CHL1  H12B 6139   4.137   4.469   9.473 -3.0957 -0.7641  1.0427
   50CHL1   C11 6140   4.151   4.601   9.644 -0.0093  0.4327 -0.4852
   50CHL1  H11A 6141   4.152   4.709   9.668 -0.7478  0.1308  1.0394
   50CHL1  H11B 6142   4.055   4.566   9.689  0.5424  1.4020  1.5491
   50CHL1    C9 6143   4.279   4.534   9.716  0.5987 -0.4082 -0.4497
   50CHL1    H9 6144   4.273   4.425   9.699  1.5293 -0.6717  0.8005
   50CHL1   C10 6145   4.283   4.552   9.867  0.2841  0.0222  0.0551
   50CHL1   C19 6146   4.264   4.704   9.901  0.5162  0.1580  0.0226
   50CHL1  H19A 6147   4.325   4.770   9.835  1.2461  0.9714  1.4585
   50CHL1  H19B 6148   4.157   4.734   9.899  0.0863 -1.1089  2.0731
   50CHL1  H19C 6149   4.295   4.725  10.005 -0.4996 -1.9682  0.8057
   50CHL1    C1 6150   4.168   4.464   9.931  0.8471  1.0758  0.5161
   50CHL1   H1A 6151   4.075   4.512   9.892  2.3667  2.3523 -1.7183
   50CHL1   H1B 6152   4.175   4.361   9.890  0.7872  2.2431 -2.7398
   50CHL1    C2 6153   4.158   4.445  10.087 -0.4526  0.5149 -0.0307
   50CHL1   H2A 6154   4.079   4.371  10.112  0.5771 -0.5336  0.2070
   50CHL1   H2B 6155   4.141   4.542  10.137 -1.1171  0.4063 -0.0460
   50CHL1   C20 6156   4.257   4.677   9.168 -0.6368 -0.2077  0.1645
   50CHL1   H20 6157   4.312   4.773   9.182  0.1137 -0.7374  1.0064
   50CHL1   C21 6158   4.107   4.684   9.182 -0.0858  0.0393  0.3219
   50CHL1  H21A 6159   4.045   4.730   9.102  0.8531  0.9705  0.1204
   50CHL1  H21B 6160   4.076   4.735   9.275  2.2146  0.2132  1.0568
   50CHL1  H21C 6161   4.060   4.584   9.192 -0.7078  0.2391 -0.4931
   50CHL1   C22 6162   4.300   4.628   9.031  0.3887 -0.0544  0.3837
   50CHL1  H22A 6163   4.409   4.608   9.026  0.2671 -0.7310  0.3632
   50CHL1  H22B 6164   4.246   4.535   9.004 -0.6011  1.0820 -1.8591
   50CHL1   C23 6165   4.261   4.714   8.911  0.6413 -0.0285 -0.3163
   50CHL1  H23A 6166   4.152   4.736   8.898  1.2488  1.9172 -3.3335
   50CHL1  H23B 6167   4.310   4.810   8.939 -0.8602  0.4930  0.6358
   50CHL1   C24 6168   4.311   4.655   8.777 -0.3592 -0.3535 -0.2839
   50CHL1  H24A 6169   4.422   4.655   8.776 -0.2834  2.7130 -0.0646
   50CHL1  H24B 6170   4.267   4.553   8.783 -0.8853 -0.0636  1.3306
   50CHL1   C25 6171   4.267   4.716   8.640  0.3646 -0.0563  0.1489
   50CHL1   H25 6172   4.320   4.660   8.561  0.3967  0.7811 -0.4392
   50CHL1   C26 6173   4.116   4.708   8.617  0.7874  0.8881  0.1919
   50CHL1  H26A 6174   4.070   4.614   8.652  0.6610  0.6767 -0.5364
   50CHL1  H26B 6175   4.052   4.788   8.663  1.4234  1.1827  0.5792
   50CHL1  H26C 6176   4.089   4.726   8.511 -3.0097 -1.4030  0.5676
   50CHL1   C27 6177   4.320   4.864   8.636  0.3531 -0.3645  0.0488
   50CHL1  H27A 6178   4.431   4.862   8.641  0.4168  0.9381 -0.4085
   50CHL1  H27B 6179   4.307   4.905   8.534  1.6303  1.1786  0.4652
   50CHL1  H27C 6180   4.269   4.937   8.702 -0.2624  0.8099 -1.6567
   51CHL1    C3 6181   5.486   6.131  10.098 -0.5527  0.3953  0.4655
   51CHL1    H3 6182   5.391   6.102  10.049 -0.1187  0.2664 -0.3201
   51CHL1    O3 6183   5.468   6.146  10.236  0.5692  0.3142 -0.0450
   51CHL1   H3' 6184   5.554   6.142  10.280 -1.3962  1.5790  4.5558
   51CHL1    C4 6185   5.578   6.013  10.073 -0.3773  0.2837 -0.4724
   51CHL1   H4A 6186   5.668   6.026  10.137 -1.1680  0.0538  0.7154
   51CHL1   H4B 6187   5.533   5.917  10.107 -0.5652 -0.3785 -2.4956
   51CHL1    C5 6188   5.619   6.008   9.929 -0.4847 -0.3432  0.0921
   51CHL1    C6 6189   5.601   5.892   9.857 -0.3406 -0.1439  0.5632
   51CHL1    H6 6190   5.565   5.804   9.912  1.9495 -0.9728  0.8214
   51CHL1    C7 6191   5.665   5.861   9.727  0.0239  0.1826 -0.0108
   51CHL1   H7A 6192   5.730   5.771   9.725  1.0059  0.8834 -1.7019
   51CHL1   H7B 6193   5.583   5.845   9.654 -0.3038  0.3265  0.3241
   51CHL1    C8 6194   5.764   5.969   9.676  0.4126 -0.2307 -0.3151
   51CHL1    H8 6195   5.864   5.954   9.723  1.2981 -0.7164 -2.2635
   51CHL1   C14 6196   5.771   5.956   9.523  0.3768 -0.3922 -0.8240
   51CHL1   H14 6197   5.667   5.977   9.489  0.2525 -1.6575 -1.2665
   51CHL1   C15 6198   5.813   5.823   9.465  0.2149 -1.0107 -0.2818
   51CHL1  H15A 6199   5.902   5.785   9.519  1.0174  0.6273 -0.4188
   51CHL1  H15B 6200   5.725   5.754   9.472 -2.1693  1.9680  2.5421
   51CHL1   C16 6201   5.847   5.859   9.320 -0.2421 -0.0130  0.2169
   51CHL1  H16A 6202   5.935   5.798   9.289 -2.7488 -2.7593 -2.1177
   51CHL1  H16B 6203   5.764   5.821   9.256 -0.4236  1.0261 -0.1738
   51CHL1   C17 6204   5.866   6.008   9.310  0.0494  0.4483  0.3360
   51CHL1   H17 6205   5.768   6.044   9.274  0.1988  3.4595  2.5316
   51CHL1   C13 6206   5.865   6.061   9.458  0.5761  0.8282 -0.2957
   51CHL1   C18 6207   6.007   6.036   9.509  0.0160 -0.8645  0.9682
   51CHL1  H18A 6208   6.084   6.092   9.451  1.4916 -0.9217  2.7713
   51CHL1  H18B 6209   6.008   6.079   9.612 -0.2438 -0.6806  0.8932
   51CHL1  H18C 6210   6.039   5.930   9.494 -1.8465 -1.0610 -2.5721
   51CHL1   C12 6211   5.814   6.199   9.493  0.4186 -0.1808 -0.2347
   51CHL1  H12A 6212   5.891   6.269   9.455 -0.8014  1.1205 -0.4021
   51CHL1  H12B 6213   5.709   6.217   9.460  0.5110 -0.2670 -0.5769
   51CHL1   C11 6214   5.804   6.219   9.649 -0.2049  0.2581  0.7979
   51CHL1  H11A 6215   5.904   6.234   9.695  0.2505  0.0143 -0.0838
   51CHL1  H11B 6216   5.758   6.319   9.666  1.7539  0.8010  3.5159
   51CHL1    C9 6217   5.720   6.105   9.719  0.0049  0.4537  0.0101
   51CHL1    H9 6218   5.622   6.120   9.669  0.4435  2.0019 -0.4279
   51CHL1   C10 6219   5.693   6.129   9.871  1.1084  0.6659  0.7243
   51CHL1   C19 6220   5.829   6.156   9.941  0.2521 -0.2380 -0.1859
   51CHL1  H19A 6221   5.863   6.252   9.897  0.6168 -0.3017 -0.0476
   51CHL1  H19B 6222   5.828   6.166  10.051 -2.6518 -0.3263 -0.1262
   51CHL1  H19C 6223   5.905   6.086   9.900  1.0612  0.8735 -0.6421
   51CHL1    C1 6224   5.592   6.246   9.896 -0.2556  0.2693  0.8583
   51CHL1   H1A 6225   5.630   6.346   9.865 -0.2602  0.2900  0.9195
   51CHL1   H1B 6226   5.503   6.224   9.834 -0.0226  1.0593  0.2163
   51CHL1    C2 6227   5.546   6.266  10.038 -0.0512  0.6223 -0.3312
   51CHL1   H2A 6228   5.464   6.340  10.052  0.9127  1.3385  1.9650
   51CHL1   H2B 6229   5.627   6.305  10.103  0.8871 -0.5989 -0.7352
   51CHL1   C20 6230   5.979   6.047   9.209  0.3219  0.2774  0.1339
   51CHL1   H20 6231   6.079   6.016   9.247 -0.6995 -0.9750  1.9359
   51CHL1   C21 6232   5.980   6.195   9.174  0.1517 -0.1431 -0.1857
   51CHL1  H21A 6233   5.995   6.248   9.270 -0.3595  0.5424 -0.4755
   51CHL1  H21B 6234   5.884   6.224   9.126  0.3240 -2.8635 -2.4697
   51CHL1  H21C 6235   6.057   6.216   9.097  2.8402 -0.9799  2.1410
   51CHL1   C22 6236   5.964   5.970   9.075  0.3154  0.0762 -0.1563
   51CHL1  H22A 6237   5.970   5.862   9.099  1.1482  0.4137  1.2473
   51CHL1  H22B 6238   5.872   6.000   9.021  1.3309 -1.7296 -3.1594
   51CHL1   C23 6239   6.073   5.991   8.967 -0.6864  0.7464 -0.7086
   51CHL1  H23A 6240   6.056   6.070   8.891 -0.1865  1.9109  0.3520
   51CHL1  H23B 6241   6.162   6.022   9.026 -0.4098 -1.4246  0.0975
   51CHL1   C24 6242   6.102   5.862   8.899  0.1680  0.4237 -0.3889
   51CHL1  H24A 6243   6.196   5.879   8.843  1.1242  1.0638  1.3533
   51CHL1  H24B 6244   6.125   5.778   8.968  0.6436  0.2145 -0.7974
   51CHL1   C25 6245   5.997   5.819   8.790  0.3690  0.5044 -0.0745
   51CHL1   H25 6246   5.900   5.809   8.843  1.2699  0.8599  1.7279
   51CHL1   C26 6247   5.993   5.906   8.663  0.1186 -0.5207 -0.9598
   51CHL1  H26A 6248   5.970   6.012   8.688 -1.5190 -1.0747  0.1095
   51CHL1  H26B 6249   6.080   5.890   8.596 -0.8140 -2.9196 -1.7279
   51CHL1  H26C 6250   5.909   5.872   8.598 -0.8078 -1.8327  0.8296
   51CHL1   C27 6251   6.042   5.678   8.752  0.2645  0.0455 -1.0166
   51CHL1  H27A 6252   5.978   5.638   8.670 -1.3628 -0.5244  0.4689
   51CHL1  H27B 6253   6.146   5.679   8.714  1.0583 -0.1724  1.0241
   51CHL1  H27C 6254   6.036   5.609   8.839 -0.6223 -0.4822 -1.4762
   52CHL1    C3 6255   1.314   6.436   9.980  0.0211  0.3907 -1.0466
   52CHL1    H3 6256   1.268   6.345   9.935  0.9532 -0.9952  0.6506
   52CHL1    O3 6257   1.297   6.443  10.122 -0.9307 -0.2459 -0.1664
   52CHL1   H3' 6258   1.306   6.533  10.154 -1.4335  0.4810 -1.9606
   52CHL1    C4 6259   1.465   6.438   9.945 -0.1347 -0.2903 -0.3518
   52CHL1   H4A 6260   1.525   6.512  10.001  1.5836 -3.3530  2.2009
   52CHL1   H4B 6261   1.491   6.340   9.990  0.3060  0.7720  1.7858
   52CHL1    C5 6262   1.490   6.455   9.798  0.0816 -0.5679 -0.3757
   52CHL1    C6 6263   1.566   6.365   9.726  0.1093 -0.9569  0.7140
   52CHL1    H6 6264   1.604   6.281   9.786 -0.7247 -1.8502  0.0197
   52CHL1    C7 6265   1.604   6.371   9.582  0.2241  0.6827  0.6601
   52CHL1   H7A 6266   1.715   6.368   9.583  0.2121  0.1332  1.0215
   52CHL1   H7B 6267   1.556   6.284   9.531  0.0157  0.4952  1.1687
   52CHL1    C8 6268   1.555   6.503   9.512  0.1697  0.5944  0.4494
   52CHL1    H8 6269   1.628   6.581   9.542  0.6400  0.1070  0.6008
   52CHL1   C14 6270   1.543   6.483   9.370  0.0893  0.2162  0.8673
   52CHL1   H14 6271   1.473   6.398   9.354  1.2109 -0.9428  1.9232
   52CHL1   C15 6272   1.672   6.431   9.303 -0.2747 -0.5968  0.9579
   52CHL1  H15A 6273   1.758   6.487   9.344 -0.2168  0.1115 -0.0844
   52CHL1  H15B 6274   1.695   6.323   9.316 -1.4988 -0.8694  0.9913
   52CHL1   C16 6275   1.653   6.467   9.151 -0.1094 -0.0660 -0.1503
   52CHL1  H16A 6276   1.737   6.536   9.129 -0.4805  1.3062  2.3719
   52CHL1  H16B 6277   1.647   6.380   9.082  3.0923  0.0449 -0.7175
   52CHL1   C17 6278   1.516   6.551   9.142 -0.7927  0.1997 -0.5111
   52CHL1   H17 6279   1.436   6.474   9.134  0.8525 -1.7095  0.4634
   52CHL1   C13 6280   1.493   6.602   9.285 -0.1173  0.2953 -0.9982
   52CHL1   C18 6281   1.594   6.722   9.309  0.1852  0.6699 -0.3321
   52CHL1  H18A 6282   1.700   6.694   9.290 -0.2685 -3.3230  1.7184
   52CHL1  H18B 6283   1.562   6.799   9.236 -1.8316 -0.7919 -1.0768
   52CHL1  H18C 6284   1.594   6.756   9.415  1.2649 -0.2412 -0.0134
   52CHL1   C12 6285   1.353   6.639   9.332 -0.1826 -0.6579  0.5267
   52CHL1  H12A 6286   1.312   6.732   9.288 -0.0956 -0.4562  0.8646
   52CHL1  H12B 6287   1.293   6.550   9.301 -0.4972 -0.7957  1.5021
   52CHL1   C11 6288   1.355   6.661   9.488  0.8634 -0.1708 -0.1433
   52CHL1  H11A 6289   1.409   6.750   9.527  0.2112 -0.5963  1.8584
   52CHL1  H11B 6290   1.245   6.668   9.495  0.9381  0.7913  0.2532
   52CHL1    C9 6291   1.416   6.548   9.571  0.4915 -0.4349 -0.2195
   52CHL1    H9 6292   1.343   6.467   9.550 -0.7758  0.8665 -1.0129
   52CHL1   C10 6293   1.419   6.569   9.726 -0.0631 -0.0734 -0.1497
   52CHL1   C19 6294   1.489   6.696   9.761 -0.2821  0.1273 -0.1191
   52CHL1  H19A 6295   1.591   6.698   9.718 -0.2701  0.3201 -0.0827
   52CHL1  H19B 6296   1.436   6.788   9.727  0.5409  1.2702  1.5764
   52CHL1  H19C 6297   1.489   6.712   9.871  2.6724  0.6677 -0.1299
   52CHL1    C1 6298   1.272   6.569   9.772  0.7575 -0.6677 -0.6660
   52CHL1   H1A 6299   1.207   6.651   9.734 -2.8858 -2.3345  1.4980
   52CHL1   H1B 6300   1.226   6.481   9.723 -3.5382  0.5719  0.7778
   52CHL1    C2 6301   1.244   6.556   9.920 -0.3325  0.2892 -0.3625
   52CHL1   H2A 6302   1.138   6.525   9.933  0.0537 -0.5691  0.9646
   52CHL1   H2B 6303   1.260   6.652   9.975 -0.2923 -1.1307  2.2532
   52CHL1   C20 6304   1.515   6.629   9.005  0.9426 -0.5359  0.9332
   52CHL1   H20 6305   1.582   6.717   9.016  3.3521 -2.0146 -0.8152
   52CHL1   C21 6306   1.374   6.687   9.005 -0.5545  0.1543  0.9720
   52CHL1  H21A 6307   1.303   6.603   9.008  1.3664 -1.5509  0.9360
   52CHL1  H21B 6308   1.357   6.747   8.913  0.2972 -0.6332  0.2870
   52CHL1  H21C 6309   1.355   6.760   9.087 -2.2424 -0.4031  1.1066
   52CHL1   C22 6310   1.552   6.551   8.872 -0.1684 -0.0765  0.2914
   52CHL1  H22A 6311   1.656   6.513   8.879 -0.6861 -1.2717  2.1739
   52CHL1  H22B 6312   1.477   6.470   8.863  0.8481 -0.9301 -0.7703
   52CHL1   C23 6313   1.538   6.620   8.733 -0.3395 -0.5655 -0.1959
   52CHL1  H23A 6314   1.430   6.642   8.728 -0.4860 -0.8512  1.3223
   52CHL1  H23B 6315   1.589   6.719   8.744  0.1050 -1.0677  3.5726
   52CHL1   C24 6316   1.590   6.545   8.609  0.2150 -0.6018  0.1464
   52CHL1  H24A 6317   1.697   6.522   8.628  0.5801 -0.9100 -2.0903
   52CHL1  H24B 6318   1.535   6.449   8.607  0.6632 -0.8692  0.2905
   52CHL1   C25 6319   1.573   6.617   8.472  0.3798 -0.1348 -0.0066
   52CHL1   H25 6320   1.477   6.674   8.470  0.7557  0.4877 -0.4622
   52CHL1   C26 6321   1.686   6.725   8.464  0.1779  0.5607 -0.0157
   52CHL1  H26A 6322   1.695   6.798   8.547  2.0319  0.0239  0.2954
   52CHL1  H26B 6323   1.786   6.677   8.460  1.4476  2.8917  1.3968
   52CHL1  H26C 6324   1.668   6.791   8.377  0.1193 -0.0466 -0.4694
   52CHL1   C27 6325   1.576   6.513   8.366  0.6236 -0.6637  0.9179
   52CHL1  H27A 6326   1.484   6.449   8.368  0.6641 -1.1851 -3.4587
   52CHL1  H27B 6327   1.590   6.561   8.267 -0.1605  0.5858  1.3911
   52CHL1  H27C 6328   1.666   6.450   8.383  0.6609 -0.4978  1.3298
   53CHL1    C3 6329   2.634   5.160   9.980  0.6384 -0.3668  0.5209
   53CHL1    H3 6330   2.688   5.241   9.926  1.9564  0.7111  3.2638
   53CHL1    O3 6331   2.635   5.190  10.119  0.0350 -0.5370  0.3167
   53CHL1   H3' 6332   2.582   5.121  10.160  0.1570  0.1404  1.6914
   53CHL1    C4 6333   2.488   5.158   9.914 -0.5468  0.1197 -0.7922
   53CHL1   H4A 6334   2.434   5.079   9.970  1.7149 -0.5744  0.5238
   53CHL1   H4B 6335   2.439   5.256   9.929 -1.7525 -0.4603 -0.7942
   53CHL1    C5 6336   2.496   5.121   9.769  0.0222 -0.8173  0.2704
   53CHL1    C6 6337   2.435   5.200   9.679  0.2315  0.4879 -0.4755
   53CHL1    H6 6338   2.390   5.294   9.714  0.6569  0.2950  0.6219
   53CHL1    C7 6339   2.433   5.168   9.529 -0.0746  0.6945  0.0073
   53CHL1   H7A 6340   2.332   5.173   9.485  0.0949  1.2460 -0.3203
   53CHL1   H7B 6341   2.489   5.248   9.476 -0.7682  1.1129 -0.0900
   53CHL1    C8 6342   2.483   5.032   9.492  0.0972  0.5131 -0.0678
   53CHL1    H8 6343   2.406   4.956   9.516  1.6627 -1.6559 -1.4939
   53CHL1   C14 6344   2.525   5.020   9.348 -0.4113  0.6918  0.0056
   53CHL1   H14 6345   2.612   5.088   9.339  2.1085 -2.1157  1.4213
   53CHL1   C15 6346   2.421   5.077   9.244  0.2485  0.9713 -0.2949
   53CHL1  H15A 6347   2.312   5.056   9.248  0.1316  1.2893 -1.4777
   53CHL1  H15B 6348   2.429   5.187   9.236 -0.8325  0.9972 -1.2372
   53CHL1   C16 6349   2.475   5.017   9.109  0.1092  0.2843 -0.6923
   53CHL1  H16A 6350   2.397   4.952   9.064 -0.2032  0.4562 -0.4070
   53CHL1  H16B 6351   2.508   5.101   9.044 -0.9104  2.1625  1.0659
   53CHL1   C17 6352   2.601   4.926   9.147  0.5882 -0.3129  0.6372
   53CHL1   H17 6353   2.680   5.004   9.150 -0.8188  1.1327  1.1332
   53CHL1   C13 6354   2.579   4.883   9.298 -0.6864  0.2943 -0.7476
   53CHL1   C18 6355   2.463   4.777   9.319  0.2792 -0.4410 -0.2053
   53CHL1  H18A 6356   2.380   4.791   9.247 -0.5171 -1.1931  0.5495
   53CHL1  H18B 6357   2.501   4.676   9.289  1.9112  0.3156 -0.8393
   53CHL1  H18C 6358   2.425   4.772   9.423  1.6239  0.4066  0.3544
   53CHL1   C12 6359   2.698   4.851   9.385  0.3981 -0.5058  0.4337
   53CHL1  H12A 6360   2.749   4.757   9.353  0.7071 -0.5367  0.9991
   53CHL1  H12B 6361   2.769   4.933   9.368  1.8470 -2.0409 -1.2731
   53CHL1   C11 6362   2.663   4.853   9.539 -1.4084 -0.3017  0.5241
   53CHL1  H11A 6363   2.593   4.769   9.556 -0.6084 -0.9806  0.5005
   53CHL1  H11B 6364   2.756   4.820   9.588 -1.6376 -2.8466 -0.6331
   53CHL1    C9 6365   2.601   4.990   9.581 -0.2810  0.0857 -0.3526
   53CHL1    H9 6366   2.680   5.067   9.570  0.0862 -0.3118 -0.5386
   53CHL1   C10 6367   2.575   4.994   9.727  0.2862 -0.5819 -0.1397
   53CHL1   C19 6368   2.487   4.869   9.767  0.2035 -0.7112 -0.5570
   53CHL1  H19A 6369   2.399   4.875   9.699  1.0494  2.1909 -1.5254
   53CHL1  H19B 6370   2.540   4.772   9.757  2.3929  0.4336 -0.6512
   53CHL1  H19C 6371   2.455   4.876   9.873  0.8604  2.0470 -0.4731
   53CHL1    C1 6372   2.715   4.997   9.809 -0.0064  0.6591 -0.0547
   53CHL1   H1A 6373   2.760   4.896   9.797 -0.2882  0.3940  0.9939
   53CHL1   H1B 6374   2.776   5.071   9.753 -0.9274 -0.7322 -3.0564
   53CHL1    C2 6375   2.697   5.024   9.957  0.4338  0.0640  0.3685
   53CHL1   H2A 6376   2.802   5.019   9.992  0.1926 -0.1538  1.0618
   53CHL1   H2B 6377   2.648   4.944  10.015  0.3703 -1.4547 -1.6928
   53CHL1   C20 6378   2.620   4.808   9.046  0.3744  0.2313 -0.5656
   53CHL1   H20 6379   2.525   4.751   9.041  0.7451 -0.3133 -2.2156
   53CHL1   C21 6380   2.732   4.721   9.109  0.2530  0.0928 -0.3143
   53CHL1  H21A 6381   2.822   4.776   9.144  1.1795 -0.8389 -1.1851
   53CHL1  H21B 6382   2.775   4.654   9.032  1.0069 -0.1542  0.3044
   53CHL1  H21C 6383   2.686   4.659   9.189  0.1108 -0.3450 -0.7334
   53CHL1   C22 6384   2.649   4.864   8.906  0.0096  0.2391 -0.1729
   53CHL1  H22A 6385   2.551   4.906   8.876 -0.5413 -0.1607  0.9867
   53CHL1  H22B 6386   2.724   4.946   8.909  1.4737 -1.0009 -1.0299
   53CHL1   C23 6387   2.699   4.755   8.814  0.1019 -0.1111 -0.0010
   53CHL1  H23A 6388   2.801   4.714   8.832  0.7399  0.1413 -2.6170
   53CHL1  H23B 6389   2.633   4.667   8.833  0.7015 -0.8067 -1.0479
   53CHL1   C24 6390   2.696   4.810   8.667  0.3370  0.0929 -0.0919
   53CHL1  H24A 6391   2.590   4.823   8.638 -0.0466 -1.1216  0.6919
   53CHL1  H24B 6392   2.760   4.900   8.656  0.6582 -0.0841  0.3080
   53CHL1   C25 6393   2.752   4.709   8.561  0.3758 -0.0786 -0.2436
   53CHL1   H25 6394   2.844   4.665   8.604 -0.3729 -1.2806  0.1596
   53CHL1   C26 6395   2.648   4.592   8.528 -0.4715 -0.8002 -0.4816
   53CHL1  H26A 6396   2.680   4.507   8.464  1.5888  1.2074 -2.3437
   53CHL1  H26B 6397   2.600   4.567   8.625 -1.7097  0.8823 -0.6105
   53CHL1  H26C 6398   2.556   4.625   8.475 -1.8697 -2.2003  0.9889
   53CHL1   C27 6399   2.793   4.783   8.436  0.1506 -0.0037 -0.3121
   53CHL1  H27A 6400   2.813   4.721   8.346 -0.3214 -1.0950  0.3258
   53CHL1  H27B 6401   2.709   4.850   8.407  0.2030  0.7007  1.0990
   53CHL1  H27C 6402   2.870   4.863   8.448 -0.4090  0.1769  3.2111
   54CHL1    C3 6403   2.443   0.040  10.065  0.1520  0.2018 -0.0290
   54CHL1    H3 6404   2.406  -0.064  10.076 -0.6912  0.4692 -0.2769
   54CHL1    O3 6405   2.427   0.099  10.191  0.1999 -0.0045 -0.5200
   54CHL1   H3' 6406   2.501   0.158  10.205  1.5968 -1.6490 -0.6092
   54CHL1    C4 6407   2.592   0.049  10.028  0.2537 -0.3528  0.8466
   54CHL1   H4A 6408   2.640   0.148  10.014  1.0471 -1.1363 -3.5380
   54CHL1   H4B 6409   2.661   0.008  10.105  1.9060  0.7146  0.0017
   54CHL1    C5 6410   2.619  -0.023   9.897  0.7314 -0.4863  0.6224
   54CHL1    C6 6411   2.712  -0.119   9.883 -0.1753  0.5408  0.4783
   54CHL1    H6 6412   2.751  -0.164   9.976 -2.5237  1.0035  1.7643
   54CHL1    C7 6413   2.746  -0.176   9.753 -0.0204  0.1216  0.2701
   54CHL1   H7A 6414   2.855  -0.198   9.760 -0.3208 -0.8862  2.7977
   54CHL1   H7B 6415   2.690  -0.270   9.734 -1.6528  1.3902 -1.7200
   54CHL1    C8 6416   2.701  -0.099   9.626 -0.1330  0.7689  0.1627
   54CHL1    H8 6417   2.779  -0.022   9.607  1.6324 -0.5636  1.5850
   54CHL1   C14 6418   2.687  -0.200   9.510 -0.7342 -0.3724 -0.2559
   54CHL1   H14 6419   2.614  -0.280   9.532 -0.5396 -0.6263 -0.5356
   54CHL1   C15 6420   2.808  -0.283   9.475  0.1167 -0.4928 -0.2684
   54CHL1  H15A 6421   2.897  -0.217   9.470 -0.3582  0.1674 -0.0630
   54CHL1  H15B 6422   2.821  -0.367   9.547 -2.1301  1.6963  3.0067
   54CHL1   C16 6423   2.769  -0.329   9.331 -0.0784 -1.3763  0.4221
   54CHL1  H16A 6424   2.850  -0.298   9.262  0.9274 -2.9705  0.8375
   54CHL1  H16B 6425   2.766  -0.440   9.318  0.1953 -1.3767  0.3466
   54CHL1   C17 6426   2.635  -0.263   9.281 -0.6819 -0.1315 -0.8664
   54CHL1   H17 6427   2.549  -0.327   9.309 -0.2437  0.5202  2.3914
   54CHL1   C13 6428   2.634  -0.139   9.373 -0.8967  0.3577  0.6369
   54CHL1   C18 6429   2.731  -0.028   9.327 -0.5878  0.0996  0.0941
   54CHL1  H18A 6430   2.833  -0.053   9.362 -0.7558 -2.0265 -0.7676
   54CHL1  H18B 6431   2.730  -0.011   9.217  2.0250  2.8123  0.3519
   54CHL1  H18C 6432   2.705   0.074   9.363  1.8070  0.9404 -0.3541
   54CHL1   C12 6433   2.494  -0.090   9.404  0.2468 -0.4586 -0.0788
   54CHL1  H12A 6434   2.456  -0.029   9.319  0.3769 -0.1917  0.0515
   54CHL1  H12B 6435   2.430  -0.176   9.431 -0.2394  0.1981  0.9177
   54CHL1   C11 6436   2.493   0.010   9.522 -0.1380 -0.1448  0.5632
   54CHL1  H11A 6437   2.546   0.102   9.489 -0.5805 -0.6025 -1.5226
   54CHL1  H11B 6438   2.390   0.035   9.555 -0.0783 -0.1814  0.7827
   54CHL1    C9 6439   2.558  -0.049   9.653  0.5722 -0.9274 -0.3212
   54CHL1    H9 6440   2.495  -0.137   9.677 -1.0146 -0.2508 -1.7359
   54CHL1   C10 6441   2.542   0.036   9.780  0.2855 -0.1534 -0.2975
   54CHL1   C19 6442   2.599   0.174   9.737  0.2756 -0.2735  0.1019
   54CHL1  H19A 6443   2.553   0.231   9.654  0.5765  0.1746  0.2371
   54CHL1  H19B 6444   2.586   0.245   9.822 -0.5211  0.8888 -0.9542
   54CHL1  H19C 6445   2.708   0.160   9.718  0.1503  0.4475 -1.3076
   54CHL1    C1 6446   2.390   0.062   9.817 -0.5105 -0.4497 -0.1893
   54CHL1   H1A 6447   2.355   0.144   9.751  1.7066  0.4301 -0.3524
   54CHL1   H1B 6448   2.329  -0.029   9.795  0.0501 -1.3347  1.7193
   54CHL1    C2 6449   2.363   0.121   9.958 -0.1316  0.5337 -1.2584
   54CHL1   H2A 6450   2.255   0.106   9.980  0.4206 -0.1260  1.3466
   54CHL1   H2B 6451   2.400   0.225   9.973 -0.1987  0.0402  4.3047
   54CHL1   C20 6452   2.636  -0.247   9.129  0.3016  0.0155  0.1776
   54CHL1   H20 6453   2.709  -0.173   9.090 -0.4475  0.7393  0.1293
   54CHL1   C21 6454   2.497  -0.189   9.091  0.0686  0.3794  1.2674
   54CHL1  H21A 6455   2.487  -0.081   9.114 -1.2332  0.7869 -0.9629
   54CHL1  H21B 6456   2.419  -0.250   9.140 -0.8516 -0.7213 -1.3967
   54CHL1  H21C 6457   2.487  -0.195   8.981  1.3928 -1.7468  1.2019
   54CHL1   C22 6458   2.650  -0.376   9.047 -0.3971  0.1504  0.0357
   54CHL1  H22A 6459   2.728  -0.437   9.096 -0.3173  1.3799  1.5187
   54CHL1  H22B 6460   2.553  -0.430   9.036  0.1415 -0.8759  0.2946
   54CHL1   C23 6461   2.710  -0.349   8.909 -0.6643  0.0755 -0.3405
   54CHL1  H23A 6462   2.642  -0.279   8.857 -0.7571  0.2553  0.0231
   54CHL1  H23B 6463   2.812  -0.306   8.918  0.0527 -1.6335  0.2383
   54CHL1   C24 6464   2.729  -0.491   8.841 -0.0474 -0.4456  0.6585
   54CHL1  H24A 6465   2.814  -0.533   8.898 -0.5855 -0.3830  1.5235
   54CHL1  H24B 6466   2.637  -0.553   8.852 -0.2788 -0.2402 -0.0301
   54CHL1   C25 6467   2.766  -0.485   8.688 -0.3435 -0.1174 -0.7962
   54CHL1   H25 6468   2.676  -0.455   8.631  0.3153  3.0243 -0.3658
   54CHL1   C26 6469   2.878  -0.385   8.665 -0.4633 -0.5681 -0.0112
   54CHL1  H26A 6470   2.926  -0.377   8.565 -1.8404  4.2813 -0.5071
   54CHL1  H26B 6471   2.823  -0.289   8.675  1.2000  0.2014  3.6203
   54CHL1  H26C 6472   2.958  -0.393   8.742 -0.7925 -0.4530  0.3453
   54CHL1   C27 6473   2.805  -0.624   8.632  0.7030  0.4279 -0.1256
   54CHL1  H27A 6474   2.891  -0.665   8.689  0.7357  0.4926 -0.1284
   54CHL1  H27B 6475   2.719  -0.695   8.627  0.9569  0.1221 -0.1667
   54CHL1  H27C 6476   2.860  -0.607   8.537 -1.0004 -0.2713 -1.2902
   55CHL1    C3 6477   4.291   4.960  10.267  1.0532 -0.7277 -0.3701
   55CHL1    H3 6478   4.246   4.873  10.214 -0.3405  0.4389 -1.1723
   55CHL1    O3 6479   4.258   4.952  10.400  1.0300 -0.1319  0.1666
   55CHL1   H3' 6480   4.305   5.029  10.434 -0.8993  1.6786 -0.9815
   55CHL1    C4 6481   4.442   4.948  10.250  0.4107 -0.1254  0.6116
   55CHL1   H4A 6482   4.502   5.020  10.311 -2.0042  1.0074  1.7848
   55CHL1   H4B 6483   4.454   4.848  10.297 -2.6227 -0.5115  0.7844
   55CHL1    C5 6484   4.495   4.951  10.108 -0.1359 -0.2618 -1.3318
   55CHL1    C6 6485   4.564   4.846  10.065 -0.9637 -0.0583 -0.1523
   55CHL1    H6 6486   4.578   4.757  10.128  0.5816  0.8628  0.8976
   55CHL1    C7 6487   4.625   4.857   9.924 -0.0907  0.6365 -0.4584
   55CHL1   H7A 6488   4.731   4.825   9.923 -0.1702  0.2007  1.5966
   55CHL1   H7B 6489   4.568   4.790   9.856  0.0095  1.5478 -1.4594
   55CHL1    C8 6490   4.615   4.989   9.852  0.3103 -0.4987  0.5572
   55CHL1    H8 6491   4.697   5.055   9.887 -0.7582  1.1625  0.0761
   55CHL1   C14 6492   4.626   4.969   9.706 -0.6155 -0.5657  0.1583
   55CHL1   H14 6493   4.540   4.911   9.665 -1.3877 -0.1649  1.1696
   55CHL1   C15 6494   4.748   4.886   9.652 -0.1824 -0.6001  0.2324
   55CHL1  H15A 6495   4.842   4.920   9.701 -0.1272  0.7169 -0.7294
   55CHL1  H15B 6496   4.737   4.776   9.651  0.2589 -0.6424 -0.2619
   55CHL1   C16 6497   4.761   4.932   9.502 -0.4446  0.4727  0.6316
   55CHL1  H16A 6498   4.865   4.965   9.482 -0.3132 -0.7997 -0.9874
   55CHL1  H16B 6499   4.734   4.849   9.433 -1.4767  1.7964 -0.6378
   55CHL1   C17 6500   4.646   5.037   9.471  0.0926 -0.3773 -0.7890
   55CHL1   H17 6501   4.552   4.987   9.440 -0.8667  1.1270 -0.4077
   55CHL1   C13 6502   4.608   5.094   9.617  0.5629 -0.3740  0.4329
   55CHL1   C18 6503   4.717   5.198   9.649  0.6291 -0.2714  0.2232
   55CHL1  H18A 6504   4.811   5.149   9.616 -0.3383 -2.1845  0.2121
   55CHL1  H18B 6505   4.716   5.292   9.590 -0.1000  0.9648  2.0922
   55CHL1  H18C 6506   4.729   5.226   9.756  1.1386  2.0664 -0.3727
   55CHL1   C12 6507   4.469   5.143   9.643 -0.4116  0.2326 -0.1288
   55CHL1  H12A 6508   4.454   5.235   9.582 -2.0126  0.2537  0.2591
   55CHL1  H12B 6509   4.400   5.063   9.607  0.3013  0.4461 -2.0962
   55CHL1   C11 6510   4.441   5.177   9.792  0.2006 -0.0664 -0.0999
   55CHL1  H11A 6511   4.515   5.253   9.824 -1.5257  0.9579  1.6829
   55CHL1  H11B 6512   4.340   5.219   9.807 -0.0383  0.5466 -2.9008
   55CHL1    C9 6513   4.479   5.052   9.883  0.0699  0.2120 -0.0823
   55CHL1    H9 6514   4.407   4.972   9.854 -0.3694  0.2569  0.8462
   55CHL1   C10 6515   4.458   5.079  10.037  0.0022 -0.4948  0.1302
   55CHL1   C19 6516   4.544   5.195  10.085 -0.1498 -0.3217  0.0033
   55CHL1  H19A 6517   4.652   5.173  10.073  0.2937  0.4556  2.1408
   55CHL1  H19B 6518   4.508   5.284  10.028 -0.0099 -2.0030 -2.8707
   55CHL1  H19C 6519   4.541   5.221  10.193 -0.3979  2.6896 -0.6237
   55CHL1    C1 6520   4.297   5.106  10.059  0.2124  0.3239 -0.2822
   55CHL1   H1A 6521   4.280   5.205  10.011  1.2978 -0.0564 -1.5062
   55CHL1   H1B 6522   4.249   5.024  10.000 -0.8770 -0.0912  1.1224
   55CHL1    C2 6523   4.248   5.096  10.207 -0.7531 -0.5654  0.1665
   55CHL1   H2A 6524   4.144   5.133  10.213  0.6072  3.5640  1.8928
   55CHL1   H2B 6525   4.299   5.177  10.263 -1.0067 -1.4523  1.7266
   55CHL1   C20 6526   4.686   5.130   9.361  0.4149 -0.4501 -0.3390
   55CHL1   H20 6527   4.770   5.192   9.400  0.7397 -1.6090  0.8998
   55CHL1   C21 6528   4.560   5.223   9.334  0.6280 -0.2051 -0.1799
   55CHL1  H21A 6529   4.555   5.272   9.235 -1.4381 -1.6033 -0.8460
   55CHL1  H21B 6530   4.543   5.298   9.415 -3.0401  0.3743 -1.2710
   55CHL1  H21C 6531   4.467   5.162   9.340 -0.7196  1.6294 -1.2178
   55CHL1   C22 6532   4.725   5.050   9.242  0.1018 -0.2039  0.5128
   55CHL1  H22A 6533   4.750   5.109   9.151  0.8032 -0.7158  0.3683
   55CHL1  H22B 6534   4.817   4.992   9.261 -1.6523 -3.2919  0.2411
   55CHL1   C23 6535   4.616   4.945   9.193 -0.2522  0.0275  0.0319
   55CHL1  H23A 6536   4.614   4.861   9.266  2.4205 -2.0609 -2.0670
   55CHL1  H23B 6537   4.514   4.988   9.191  1.0555  3.6038  1.5100
   55CHL1   C24 6538   4.668   4.875   9.069  0.1208  0.3591 -0.0052
   55CHL1  H24A 6539   4.767   4.831   9.096 -0.9652 -1.9774  0.4171
   55CHL1  H24B 6540   4.599   4.794   9.037  1.6060 -0.2306 -1.9344
   55CHL1   C25 6541   4.666   4.966   8.937 -0.7035 -0.4679  0.1918
   55CHL1   H25 6542   4.760   5.024   8.949 -1.4419  0.4908  1.7423
   55CHL1   C26 6543   4.679   4.882   8.818 -0.1483 -0.3816 -0.2202
   55CHL1  H26A 6544   4.606   4.798   8.822 -0.1890 -0.3027  1.5127
   55CHL1  H26B 6545   4.670   4.941   8.725 -1.1166  0.5346  0.4335
   55CHL1  H26C 6546   4.783   4.844   8.820  0.5306  1.3983  2.0023
   55CHL1   C27 6547   4.547   5.060   8.939  0.0606  0.5818 -0.5838
   55CHL1  H27A 6548   4.458   4.994   8.953  0.4452  0.4334  1.4834
   55CHL1  H27B 6549   4.552   5.131   9.024 -0.0156 -0.9823  0.7707
   55CHL1  H27C 6550   4.538   5.116   8.844 -1.6728 -2.0205 -2.0756
   56CHL1    C3 6551   6.745   2.451  10.143  0.6995  0.6065  0.3598
   56CHL1    H3 6552   6.837   2.399  10.110 -0.1926 -0.8945  0.1233
   56CHL1    O3 6553   6.747   2.479  10.280 -0.5330 -0.1496 -0.3510
   56CHL1   H3' 6554   6.755   2.574  10.293 -0.9963 -0.1024 -0.3874
   56CHL1    C4 6555   6.702   2.567  10.042 -0.2795 -0.2954 -0.9287
   56CHL1   H4A 6556   6.607   2.616  10.070 -0.2434 -2.1379  3.0361
   56CHL1   H4B 6557   6.777   2.645  10.064  0.3174 -0.7542 -1.2819
   56CHL1    C5 6558   6.694   2.516   9.903 -0.2271  0.1565 -0.5016
   56CHL1    C6 6559   6.767   2.574   9.807  0.1659 -0.3287  0.1175
   56CHL1    H6 6560   6.837   2.657   9.824 -0.6645  0.4201 -0.0337
   56CHL1    C7 6561   6.754   2.539   9.665 -0.4446 -0.5145  0.4391
   56CHL1   H7A 6562   6.744   2.629   9.601  1.6489 -1.9912 -2.1836
   56CHL1   H7B 6563   6.853   2.502   9.632 -0.0931  0.4874  0.3496
   56CHL1    C8 6564   6.644   2.438   9.624 -0.6491 -0.0185 -0.1426
   56CHL1    H8 6565   6.556   2.503   9.607  0.3667  1.0371 -1.7044
   56CHL1   C14 6566   6.670   2.378   9.493  0.1889 -0.1418  0.5439
   56CHL1   H14 6567   6.761   2.316   9.504 -0.0569 -1.4648 -3.3589
   56CHL1   C15 6568   6.681   2.477   9.377  0.2936  0.2930  0.4226
   56CHL1  H15A 6569   6.595   2.547   9.375  0.8132  0.9152 -0.6849
   56CHL1  H15B 6570   6.776   2.534   9.382  2.0323 -2.3188 -0.5059
   56CHL1   C16 6571   6.685   2.393   9.258  0.1720  0.0202  0.4039
   56CHL1  H16A 6572   6.630   2.447   9.177  1.2683 -1.8362 -1.6973
   56CHL1  H16B 6573   6.789   2.376   9.220 -0.3153 -0.8366 -0.6028
   56CHL1   C17 6574   6.624   2.258   9.301 -0.6415 -0.4590 -0.9986
   56CHL1   H17 6575   6.710   2.191   9.323  0.8166  1.2485 -1.2647
   56CHL1   C13 6576   6.563   2.282   9.443 -0.3655 -0.8341  0.7529
   56CHL1   C18 6577   6.422   2.352   9.423  0.2506  0.1926  0.3087
   56CHL1  H18A 6578   6.416   2.430   9.344 -3.7531 -0.7861 -0.5752
   56CHL1  H18B 6579   6.347   2.279   9.386  1.1462 -0.2920 -0.6236
   56CHL1  H18C 6580   6.389   2.396   9.519 -2.3455 -1.4714  0.2572
   56CHL1   C12 6581   6.547   2.172   9.548 -0.2876 -0.0058 -0.4681
   56CHL1  H12A 6582   6.456   2.111   9.529 -0.6683  0.6282 -0.6964
   56CHL1  H12B 6583   6.641   2.113   9.543 -0.4404 -0.5316  1.6566
   56CHL1   C11 6584   6.523   2.232   9.687 -0.1761 -0.0673 -0.2452
   56CHL1  H11A 6585   6.425   2.283   9.677 -0.4174 -0.1736  1.4066
   56CHL1  H11B 6586   6.515   2.142   9.752  0.3937 -1.2526 -1.7424
   56CHL1    C9 6587   6.632   2.330   9.734  0.7460  0.0520  0.5089
   56CHL1    H9 6588   6.729   2.275   9.733 -0.0126 -1.3784  1.2263
   56CHL1   C10 6589   6.608   2.388   9.874  0.3257 -0.3676 -0.1881
   56CHL1   C19 6590   6.461   2.448   9.884 -0.0907 -0.3462 -0.2263
   56CHL1  H19A 6591   6.443   2.535   9.818  0.3857  0.7634  1.0655
   56CHL1  H19B 6592   6.384   2.369   9.870 -1.7597  0.9203  1.2599
   56CHL1  H19C 6593   6.441   2.488   9.985  0.2219 -0.9678  0.0844
   56CHL1    C1 6594   6.624   2.284   9.983  0.1038  0.1817 -0.7704
   56CHL1   H1A 6595   6.542   2.209   9.978  0.2914 -0.0245 -0.7341
   56CHL1   H1B 6596   6.713   2.223   9.960 -1.6474 -1.8021 -2.7684
   56CHL1    C2 6597   6.635   2.337  10.131  0.5878 -0.0315  0.2470
   56CHL1   H2A 6598   6.678   2.251  10.187  2.2790  0.6130 -0.0221
   56CHL1   H2B 6599   6.534   2.374  10.162 -0.1246 -1.8389  0.1734
   56CHL1   C20 6600   6.537   2.186   9.193  0.0490 -0.6804 -0.0275
   56CHL1   H20 6601   6.448   2.249   9.172 -0.9260 -1.9376  0.2509
   56CHL1   C21 6602   6.476   2.051   9.242 -0.3158  0.5100  0.0445
   56CHL1  H21A 6603   6.393   2.079   9.310 -0.9071 -0.0972 -0.4145
   56CHL1  H21B 6604   6.541   1.979   9.296 -0.0070  0.0749 -0.8870
   56CHL1  H21C 6605   6.437   1.991   9.157  1.9877 -0.6409 -0.2788
   56CHL1   C22 6606   6.616   2.165   9.060  1.0805  0.8157  0.8643
   56CHL1  H22A 6607   6.680   2.254   9.039  1.4974  0.6149  1.2707
   56CHL1  H22B 6608   6.675   2.074   9.081 -1.0288 -0.9808 -0.5802
   56CHL1   C23 6609   6.541   2.136   8.927 -0.3065 -0.0066  1.0182
   56CHL1  H23A 6610   6.481   2.046   8.950 -0.4570  0.3441  2.0721
   56CHL1  H23B 6611   6.464   2.210   8.899 -1.1668 -0.8962  0.9804
   56CHL1   C24 6612   6.643   2.127   8.803  0.0067  0.6260 -0.8273
   56CHL1  H24A 6613   6.699   2.223   8.795  0.6860  0.3838  0.6060
   56CHL1  H24B 6614   6.716   2.047   8.830 -0.5667  0.1932 -0.5256
   56CHL1   C25 6615   6.580   2.103   8.668  0.1727 -0.2159 -0.5513
   56CHL1   H25 6616   6.498   2.176   8.655  0.6873  0.4688 -0.0380
   56CHL1   C26 6617   6.675   2.139   8.555 -0.3721  0.1260  0.1980
   56CHL1  H26A 6618   6.637   2.103   8.457  2.4055  0.2590 -1.0341
   56CHL1  H26B 6619   6.687   2.249   8.540  0.8670 -0.0073  0.0771
   56CHL1  H26C 6620   6.774   2.091   8.570 -0.2782 -0.1485 -1.1807
   56CHL1   C27 6621   6.530   1.959   8.660 -0.8744 -0.2771  0.1413
   56CHL1  H27A 6622   6.467   1.934   8.748 -0.7777 -0.9274  0.0299
   56CHL1  H27B 6623   6.478   1.936   8.565 -1.9591 -1.5735  1.0009
   56CHL1  H27C 6624   6.613   1.886   8.664 -0.1519  0.5733  1.4388
   57CHL1    C3 6625   4.025   5.674  10.287 -0.2918  0.7135  0.6100
   57CHL1    H3 6626   3.956   5.595  10.251  0.1189  0.9343 -0.7089
   57CHL1    O3 6627   4.009   5.700  10.421  0.2159 -0.5350 -1.0325
   57CHL1   H3' 6628   3.915   5.712  10.434  0.0151 -0.9333 -1.9880
   57CHL1    C4 6629   4.174   5.631  10.254 -0.0418  0.4011 -0.5938
   57CHL1   H4A 6630   4.242   5.700  10.309 -2.4779 -0.6645  4.3030
   57CHL1   H4B 6631   4.192   5.534  10.303 -0.3165  1.6920  2.2621
   57CHL1    C5 6632   4.202   5.616  10.099 -0.1868 -0.1393  0.0592
   57CHL1    C6 6633   4.268   5.515  10.048 -0.0606  1.1742  0.1407
   57CHL1    H6 6634   4.313   5.448  10.123 -1.5055 -0.0280 -0.0066
   57CHL1    C7 6635   4.299   5.492   9.905 -0.7569  0.0333  0.3209
   57CHL1   H7A 6636   4.399   5.449   9.879 -0.0631  0.9183  1.4470
   57CHL1   H7B 6637   4.224   5.425   9.859 -2.3153  1.6748  0.3633
   57CHL1    C8 6638   4.274   5.613   9.820  0.2044 -0.2660  0.3080
   57CHL1    H8 6639   4.357   5.687   9.827 -0.5502  1.0034 -2.6265
   57CHL1   C14 6640   4.254   5.578   9.675  0.2866 -0.2547  0.5556
   57CHL1   H14 6641   4.165   5.511   9.676 -0.1102  0.2657  0.1984
   57CHL1   C15 6642   4.359   5.490   9.600  0.8974  0.6356 -0.8026
   57CHL1  H15A 6643   4.462   5.504   9.640 -0.3149 -0.6250  3.3831
   57CHL1  H15B 6644   4.316   5.389   9.620 -1.7562  1.7471 -0.5252
   57CHL1   C16 6645   4.348   5.521   9.453  0.0706  0.2492  0.3520
   57CHL1  H16A 6646   4.446   5.566   9.425 -0.2940  2.3419  2.1898
   57CHL1  H16B 6647   4.330   5.435   9.385  0.5756 -0.5153  1.1649
   57CHL1   C17 6648   4.224   5.618   9.451 -0.2808 -0.1346  0.7562
   57CHL1   H17 6649   4.135   5.551   9.460 -1.7282  1.7887  1.3225
   57CHL1   C13 6650   4.227   5.693   9.586  0.6372 -0.5903 -0.1279
   57CHL1   C18 6651   4.340   5.801   9.586  0.2606  0.3397  0.3984
   57CHL1  H18A 6652   4.312   5.889   9.524 -0.3840 -0.2683 -0.1897
   57CHL1  H18B 6653   4.358   5.851   9.684 -0.6282  1.4042  0.0406
   57CHL1  H18C 6654   4.438   5.759   9.557  0.0994 -0.0829  0.4521
   57CHL1   C12 6655   4.092   5.756   9.618 -0.2596 -0.3816  0.4741
   57CHL1  H12A 6656   4.061   5.845   9.558  2.3335  0.7283  0.6805
   57CHL1  H12B 6657   4.024   5.672   9.590 -0.4659 -0.1755  0.3532
   57CHL1   C11 6658   4.101   5.796   9.766  1.0672 -0.9652  0.1042
   57CHL1  H11A 6659   4.173   5.880   9.772  1.3708 -1.3237  2.1160
   57CHL1  H11B 6660   4.001   5.837   9.792  0.8291 -1.4264 -0.0586
   57CHL1    C9 6661   4.147   5.690   9.867 -0.2411  0.0475 -0.3848
   57CHL1    H9 6662   4.074   5.609   9.848 -0.5440  0.2831 -0.2206
   57CHL1   C10 6663   4.148   5.736  10.020 -0.4054  0.4189 -0.8779
   57CHL1   C19 6664   4.254   5.849  10.031 -0.0070 -0.0745  0.7539
   57CHL1  H19A 6665   4.201   5.926   9.970  1.4364 -0.8573 -1.5932
   57CHL1  H19B 6666   4.271   5.900  10.128 -1.8038  0.5024  0.8039
   57CHL1  H19C 6667   4.352   5.823   9.985  1.0234  0.8163  2.3342
   57CHL1    C1 6668   4.016   5.783  10.057  0.2390 -0.1778  0.3291
   57CHL1   H1A 6669   4.010   5.881  10.005  0.3793  1.1392  2.6590
   57CHL1   H1B 6670   3.937   5.717  10.015  1.9264 -1.6656 -0.5841
   57CHL1    C2 6671   3.984   5.800  10.209 -0.8873  0.4332  0.2875
   57CHL1   H2A 6672   3.876   5.819  10.226 -0.7678  1.2834  0.1096
   57CHL1   H2B 6673   4.041   5.890  10.240 -0.5815 -0.8710  4.0536
   57CHL1   C20 6674   4.197   5.678   9.317  0.0617  0.0806 -0.3202
   57CHL1   H20 6675   4.121   5.757   9.334 -0.4459 -0.4551 -0.0740
   57CHL1   C21 6676   4.139   5.563   9.226  0.3762  0.0411  0.5202
   57CHL1  H21A 6677   4.052   5.501   9.257  0.1666  0.3258  0.5076
   57CHL1  H21B 6678   4.221   5.495   9.195  0.2152 -1.3085  2.8357
   57CHL1  H21C 6679   4.098   5.598   9.129 -0.4241  1.1509  1.2301
   57CHL1   C22 6680   4.317   5.743   9.255  0.2983  0.0982  0.1965
   57CHL1  H22A 6681   4.389   5.789   9.326 -0.0575 -1.4444  1.6061
   57CHL1  H22B 6682   4.377   5.669   9.198 -0.2259  0.4675 -0.8679
   57CHL1   C23 6683   4.274   5.853   9.147  0.0921 -0.3824 -0.0833
   57CHL1  H23A 6684   4.199   5.815   9.075  1.8377  0.3086 -2.3702
   57CHL1  H23B 6685   4.229   5.934   9.209  2.5710 -0.0360  1.4356
   57CHL1   C24 6686   4.388   5.924   9.064 -0.1688  0.5030  0.4910
   57CHL1  H24A 6687   4.455   5.970   9.140  0.4121 -1.7902  1.4570
   57CHL1  H24B 6688   4.438   5.846   9.003  1.5357  1.4226  0.6525
   57CHL1   C25 6689   4.334   6.027   8.968  0.0126 -0.5800  0.2291
   57CHL1   H25 6690   4.240   6.061   9.016 -0.0736  1.1206 -1.0684
   57CHL1   C26 6691   4.439   6.142   8.951 -0.2612 -0.3562  0.2887
   57CHL1  H26A 6692   4.388   6.219   8.890 -0.1220 -1.0107 -0.6780
   57CHL1  H26B 6693   4.475   6.180   9.049 -0.1038  0.9111 -0.2409
   57CHL1  H26C 6694   4.526   6.105   8.892  0.4141  3.2850 -1.3106
   57CHL1   C27 6695   4.296   5.955   8.833  0.2982  0.4788  0.3918
   57CHL1  H27A 6696   4.393   5.916   8.796  1.5889  1.5815  2.4207
   57CHL1  H27B 6697   4.227   5.871   8.857  0.5129  0.7712  2.1525
   57CHL1  H27C 6698   4.255   6.031   8.764  3.2075  1.8104 -0.0119
   58CHL1    C3 6699   5.620   1.811  10.130  0.1722 -0.1318 -0.5101
   58CHL1    H3 6700   5.535   1.777  10.067 -0.6861 -1.2260  1.1659
   58CHL1    O3 6701   5.580   1.885  10.248 -0.1609  0.7165  0.3660
   58CHL1   H3' 6702   5.578   1.814  10.312 -1.8564  0.3934  0.0181
   58CHL1    C4 6703   5.699   1.687  10.178 -0.1112 -0.2097  0.0397
   58CHL1   H4A 6704   5.765   1.718  10.262 -1.8002  1.4659  0.8107
   58CHL1   H4B 6705   5.632   1.614  10.227  0.7556 -0.3078  1.1377
   58CHL1    C5 6706   5.765   1.611  10.064  0.0419  0.6326  0.1359
   58CHL1    C6 6707   5.744   1.477  10.043  0.7655 -0.3555 -0.1688
   58CHL1    H6 6708   5.675   1.427  10.112 -0.1653  1.7727  0.5126
   58CHL1    C7 6709   5.819   1.397   9.946 -0.5688 -0.9199 -0.1342
   58CHL1   H7A 6710   5.863   1.299   9.976 -0.4883 -1.6737 -2.5040
   58CHL1   H7B 6711   5.736   1.377   9.875 -1.3004  1.2523  0.0184
   58CHL1    C8 6712   5.939   1.478   9.877  0.2738 -0.7443  0.3629
   58CHL1    H8 6713   6.029   1.476   9.942  0.4085 -2.9374  0.1981
   58CHL1   C14 6714   5.975   1.404   9.753  0.5108  0.5508  0.0850
   58CHL1   H14 6715   5.884   1.403   9.689  1.7186  0.0016 -1.6620
   58CHL1   C15 6716   6.007   1.253   9.760  0.4479 -0.4523 -0.2625
   58CHL1  H15A 6717   6.072   1.232   9.848  1.9985  0.9803 -1.0136
   58CHL1  H15B 6718   5.916   1.192   9.779 -0.0964  0.8002  1.4790
   58CHL1   C16 6719   6.072   1.219   9.628  0.1854  0.1425 -0.0231
   58CHL1  H16A 6720   6.172   1.172   9.642  0.5055  0.1559 -1.9876
   58CHL1  H16B 6721   6.002   1.151   9.574 -2.2719 -0.8081  3.9138
   58CHL1   C17 6722   6.084   1.353   9.550  0.3534  0.7307  0.7331
   58CHL1   H17 6723   5.996   1.360   9.482  0.6528  0.9237  0.3634
   58CHL1   C13 6724   6.083   1.466   9.663 -0.4691  0.3058  0.6878
   58CHL1   C18 6725   6.226   1.465   9.728  0.2227  0.1885  0.6964
   58CHL1  H18A 6726   6.261   1.360   9.741 -0.5155 -0.2372 -0.5929
   58CHL1  H18B 6727   6.305   1.522   9.676 -0.9443 -0.0981 -1.4962
   58CHL1  H18C 6728   6.210   1.523   9.822 -1.1007  1.3898 -0.2215
   58CHL1   C12 6729   6.037   1.609   9.625 -0.5439  0.5682  0.6392
   58CHL1  H12A 6730   6.117   1.665   9.571  0.5816 -0.5419  1.0950
   58CHL1  H12B 6731   5.948   1.610   9.559 -0.0800  2.2635  0.0060
   58CHL1   C11 6732   6.006   1.682   9.755 -0.9032 -0.4140 -0.4251
   58CHL1  H11A 6733   6.102   1.708   9.805 -0.8782 -1.3119  0.0190
   58CHL1  H11B 6734   5.976   1.785   9.726 -0.4397 -0.5427 -1.4286
   58CHL1    C9 6735   5.899   1.620   9.848 -0.2529 -0.1111 -0.5092
   58CHL1    H9 6736   5.800   1.616   9.797 -1.3563 -0.3030  1.5334
   58CHL1   C10 6737   5.865   1.698   9.978  0.6985 -0.2861  0.3992
   58CHL1   C19 6738   5.990   1.738  10.047 -0.3727  0.0654 -0.6641
   58CHL1  H19A 6739   5.969   1.804  10.134 -0.5434 -0.2249 -0.4830
   58CHL1  H19B 6740   6.039   1.649  10.093  1.4459  1.2534 -0.2077
   58CHL1  H19C 6741   6.072   1.781   9.986 -0.5193  0.7902 -0.3601
   58CHL1    C1 6742   5.791   1.837   9.942 -0.3307 -0.5070 -0.0704
   58CHL1   H1A 6743   5.868   1.906   9.901 -0.2528  0.3062  1.3503
   58CHL1   H1B 6744   5.725   1.820   9.854  0.6617  0.0005 -0.9367
   58CHL1    C2 6745   5.715   1.902  10.056 -0.0209  0.4410  0.4436
   58CHL1   H2A 6746   5.644   1.969  10.002 -0.0103 -1.3937 -2.0142
   58CHL1   H2B 6747   5.784   1.954  10.126  0.4867  2.9358 -1.7472
   58CHL1   C20 6748   6.202   1.353   9.443  0.3392  0.1732  0.1950
   58CHL1   H20 6749   6.296   1.345   9.502  0.3600  0.6225  0.2218
   58CHL1   C21 6750   6.211   1.488   9.365 -0.3630 -0.0957 -0.3558
   58CHL1  H21A 6751   6.287   1.476   9.285  1.0611  0.2909  0.8945
   58CHL1  H21B 6752   6.230   1.580   9.424  3.1217 -1.1229  0.3819
   58CHL1  H21C 6753   6.118   1.493   9.305  0.4293 -1.1797 -1.7418
   58CHL1   C22 6754   6.204   1.238   9.344 -0.3366  0.2342 -0.2362
   58CHL1  H22A 6755   6.301   1.241   9.290 -0.3193 -2.7319 -0.5365
   58CHL1  H22B 6756   6.201   1.145   9.405  0.5988  1.8939  2.5637
   58CHL1   C23 6757   6.090   1.237   9.247  0.2778 -0.0558  0.0235
   58CHL1  H23A 6758   5.987   1.252   9.288  0.4228 -0.6503  0.6306
   58CHL1  H23B 6759   6.096   1.319   9.173  2.0171 -0.1410  0.0417
   58CHL1   C24 6760   6.088   1.108   9.163 -0.0949  0.4148 -0.4045
   58CHL1  H24A 6761   6.189   1.079   9.130 -0.2055 -1.3904  0.7348
   58CHL1  H24B 6762   6.065   1.033   9.242  0.3677 -0.1794 -0.8307
   58CHL1   C25 6763   5.996   1.105   9.043  0.1348  0.2715  0.2327
   58CHL1   H25 6764   6.012   1.003   9.002 -0.9556 -0.0494  0.5689
   58CHL1   C26 6765   5.847   1.112   9.080  0.3934 -0.1501  0.0463
   58CHL1  H26A 6766   5.809   1.028   9.141 -0.3302  1.9132  2.6506
   58CHL1  H26B 6767   5.843   1.202   9.145  0.8776  0.7929 -1.1748
   58CHL1  H26C 6768   5.778   1.135   8.996  1.2119  1.1042 -0.3166
   58CHL1   C27 6769   6.030   1.210   8.928  0.4394  0.2893 -0.0095
   58CHL1  H27A 6770   5.979   1.303   8.961 -0.3067  0.0697 -0.5462
   58CHL1  H27B 6771   6.138   1.218   8.902  0.1279  0.5047 -1.3102
   58CHL1  H27C 6772   5.978   1.182   8.834  1.8012  1.8196 -1.2829
   59CHL1    C3 6773   5.194   2.885  10.425 -0.2837  0.4195  0.5075
   59CHL1    H3 6774   5.245   2.978  10.391  1.8156 -0.8043  0.1909
   59CHL1    O3 6775   5.186   2.894  10.569 -0.0491  0.2066 -0.0216
   59CHL1   H3' 6776   5.126   2.969  10.567  0.7559  0.8540 -1.3145
   59CHL1    C4 6777   5.050   2.868  10.378  0.1130  0.0625  0.3175
   59CHL1   H4A 6778   4.996   2.789  10.433 -1.0520  0.0391 -0.8025
   59CHL1   H4B 6779   4.986   2.957  10.399 -2.5656 -1.8792  0.9250
   59CHL1    C5 6780   5.047   2.829  10.225 -0.7466  0.4378 -0.4279
   59CHL1    C6 6781   4.969   2.889  10.139  0.5466 -0.2444 -0.4141
   59CHL1    H6 6782   4.915   2.977  10.176  2.8321 -0.0006  2.8217
   59CHL1    C7 6783   4.942   2.856   9.996  0.4859  0.2514 -0.3835
   59CHL1   H7A 6784   4.834   2.849   9.970  0.1567  0.6239  0.7962
   59CHL1   H7B 6785   4.996   2.920   9.923  0.7037  0.1067 -0.3485
   59CHL1    C8 6786   4.993   2.704   9.970  0.4521 -0.3384  0.3443
   59CHL1    H8 6787   4.929   2.633  10.027  0.6735  0.5319  1.7380
   59CHL1   C14 6788   4.992   2.672   9.824 -0.6204 -0.4874  0.2811
   59CHL1   H14 6789   5.053   2.749   9.772 -1.3426 -0.9683 -1.3287
   59CHL1   C15 6790   4.854   2.676   9.748  0.2526  0.7479 -0.2930
   59CHL1  H15A 6791   4.773   2.628   9.807 -0.9457  0.7276 -1.8879
   59CHL1  H15B 6792   4.810   2.777   9.733  1.8616  2.0961  2.9826
   59CHL1   C16 6793   4.879   2.591   9.625  0.5181 -0.5827  0.2052
   59CHL1  H16A 6794   4.807   2.507   9.635 -0.8946  0.4200 -1.0760
   59CHL1  H16B 6795   4.858   2.648   9.532  0.1102  1.7368  1.6513
   59CHL1   C17 6796   5.023   2.543   9.634  0.2075 -0.2144  0.2711
   59CHL1   H17 6797   5.093   2.617   9.590  1.3339 -2.0477 -1.1814
   59CHL1   C13 6798   5.058   2.542   9.789  0.2389 -0.8059 -0.4255
   59CHL1   C18 6799   4.989   2.419   9.850 -0.1142  0.1110 -0.2552
   59CHL1  H18A 6800   4.879   2.408   9.837 -0.1391 -0.8437  0.6743
   59CHL1  H18B 6801   5.044   2.333   9.806  0.7753  1.0411 -1.0109
   59CHL1  H18C 6802   4.998   2.421   9.960  1.2361 -4.0622 -0.1237
   59CHL1   C12 6803   5.205   2.532   9.833  0.6485 -0.4989 -0.5348
   59CHL1  H12A 6804   5.236   2.428   9.812  0.1010 -0.8856  0.4976
   59CHL1  H12B 6805   5.265   2.607   9.778  1.4657 -1.6195 -1.2081
   59CHL1   C11 6806   5.225   2.573   9.980  0.3470  0.0759  1.0550
   59CHL1  H11A 6807   5.209   2.484  10.045  0.6603 -0.2216  0.7309
   59CHL1  H11B 6808   5.329   2.608   9.995  0.8342 -0.3473 -1.0599
   59CHL1    C9 6809   5.141   2.689  10.027 -0.3317 -0.4786  0.2122
   59CHL1    H9 6810   5.188   2.778   9.981  1.5083 -0.6083  1.7117
   59CHL1   C10 6811   5.130   2.709  10.191  0.0476 -0.6260 -0.1009
   59CHL1   C19 6812   5.069   2.578  10.241  0.1902  0.0346 -0.0466
   59CHL1  H19A 6813   5.145   2.498  10.229 -2.3508 -2.6053  0.4280
   59CHL1  H19B 6814   5.035   2.598  10.345  2.3540  2.5928  0.3011
   59CHL1  H19C 6815   4.981   2.536  10.190 -1.0585  2.6876 -0.2639
   59CHL1    C1 6816   5.281   2.723  10.245  0.1496  0.4929 -0.3368
   59CHL1   H1A 6817   5.340   2.629  10.244  1.0734  1.0611 -1.4001
   59CHL1   H1B 6818   5.335   2.804  10.192  1.4939  0.5148  1.0006
   59CHL1    C2 6819   5.283   2.766  10.393  0.4863  0.2234 -0.3325
   59CHL1   H2A 6820   5.386   2.788  10.430  1.0948 -1.0138 -1.2246
   59CHL1   H2B 6821   5.235   2.681  10.446 -1.9153  1.2935 -0.6475
   59CHL1   C20 6822   5.050   2.421   9.550 -0.0048 -0.2632 -0.9396
   59CHL1   H20 6823   5.011   2.335   9.609 -0.9792  1.5378  1.1927
   59CHL1   C21 6824   5.198   2.389   9.525 -0.1870  0.1861 -0.3208
   59CHL1  H21A 6825   5.258   2.479   9.501 -0.0040  0.5540  1.4021
   59CHL1  H21B 6826   5.203   2.319   9.438 -0.9324 -1.9559  1.2640
   59CHL1  H21C 6827   5.249   2.344   9.613  0.2029 -0.7885 -1.0143
   59CHL1   C22 6828   4.982   2.414   9.408 -0.1157  0.3659 -0.4583
   59CHL1  H22A 6829   5.001   2.313   9.366 -2.6208 -0.4072  0.0824
   59CHL1  H22B 6830   4.873   2.407   9.430  0.4620 -2.0756  2.4159
   59CHL1   C23 6831   5.009   2.529   9.305  0.6509 -0.1326  0.3497
   59CHL1  H23A 6832   4.995   2.627   9.355 -2.0669 -1.0928  1.7095
   59CHL1  H23B 6833   5.116   2.533   9.276  0.5327  1.1097  0.0053
   59CHL1   C24 6834   4.920   2.511   9.174  0.6318  0.5894 -0.4070
   59CHL1  H24A 6835   4.963   2.552   9.081  0.0366  1.1645 -0.4379
   59CHL1  H24B 6836   4.921   2.401   9.159  3.4597  0.5932 -0.7587
   59CHL1   C25 6837   4.774   2.560   9.189  0.7149  0.4095  0.0051
   59CHL1   H25 6838   4.739   2.534   9.292 -2.6727 -0.2556 -1.1725
   59CHL1   C26 6839   4.784   2.711   9.163 -0.2921  0.8526 -0.6011
   59CHL1  H26A 6840   4.699   2.775   9.194 -0.2416 -0.3571  2.2776
   59CHL1  H26B 6841   4.871   2.753   9.218  1.0682  1.2596 -2.9097
   59CHL1  H26C 6842   4.807   2.731   9.056  1.0400 -2.5651 -1.0842
   59CHL1   C27 6843   4.677   2.485   9.106  0.1881 -0.1167 -0.0997
   59CHL1  H27A 6844   4.678   2.378   9.135  0.9996 -0.5877 -1.7163
   59CHL1  H27B 6845   4.572   2.517   9.117  0.0369 -0.6202 -0.0613
   59CHL1  H27C 6846   4.711   2.492   9.000 -1.0129 -0.9517 -0.5615
   60CHL1    C3 6847   2.835   2.300  10.504 -0.3324  1.0915  0.5834
   60CHL1    H3 6848   2.890   2.205  10.520 -1.4951  0.1202 -0.9632
   60CHL1    O3 6849   2.780   2.351  10.629 -0.0909 -0.3341  0.4093
   60CHL1   H3' 6850   2.727   2.427  10.605  0.4024 -0.4474 -1.1622
   60CHL1    C4 6851   2.936   2.410  10.456 -0.3460  0.1559  0.3342
   60CHL1   H4A 6852   2.888   2.510  10.469  1.6944  1.3664 -0.8624
   60CHL1   H4B 6853   3.021   2.420  10.527 -0.5909 -0.5157  0.7271
   60CHL1    C5 6854   2.988   2.381  10.318  0.2900  0.5921  0.4756
   60CHL1    C6 6855   3.120   2.378  10.289 -0.0398 -0.2283  0.5829
   60CHL1    H6 6856   3.190   2.407  10.369  2.1937  1.5337 -1.8294
   60CHL1    C7 6857   3.173   2.353  10.153 -0.4114 -0.2936  0.5950
   60CHL1   H7A 6858   3.262   2.416  10.133 -0.6462 -0.8098 -2.6616
   60CHL1   H7B 6859   3.202   2.246  10.153 -3.5200 -1.2541 -1.2537
   60CHL1    C8 6860   3.074   2.375  10.033 -0.2874  0.2596  0.3355
   60CHL1    H8 6861   3.061   2.484  10.018 -1.3363 -0.1942 -2.7669
   60CHL1   C14 6862   3.123   2.302   9.908  0.0781  0.1921 -0.5037
   60CHL1   H14 6863   3.108   2.196   9.938  3.4221 -0.4539 -0.6754
   60CHL1   C15 6864   3.273   2.321   9.866  0.6351  0.2292  0.0222
   60CHL1  H15A 6865   3.292   2.430   9.862  0.3907  0.2634 -0.2630
   60CHL1  H15B 6866   3.339   2.269   9.939  1.4144 -1.2134 -1.6583
   60CHL1   C16 6867   3.281   2.266   9.725 -0.4852 -0.4451 -0.3024
   60CHL1  H16A 6868   3.334   2.339   9.660  1.8884 -0.9123  0.9803
   60CHL1  H16B 6869   3.339   2.171   9.729  0.5892  0.1849 -0.6619
   60CHL1   C17 6870   3.129   2.247   9.678  0.4887 -0.7707 -0.0458
   60CHL1   H17 6871   3.093   2.144   9.699 -1.2144  0.0665  1.3754
   60CHL1   C13 6872   3.040   2.326   9.779 -1.0510  0.0535 -0.5697
   60CHL1   C18 6873   3.051   2.476   9.753  0.0799  0.1219 -0.5243
   60CHL1  H18A 6874   3.146   2.517   9.713  0.4351  0.8288  0.9826
   60CHL1  H18B 6875   2.971   2.483   9.675 -3.4273 -1.8977  2.5305
   60CHL1  H18C 6876   3.004   2.531   9.837 -0.2124 -1.6416  0.5243
   60CHL1   C12 6877   2.903   2.273   9.814  0.3887 -0.1176  0.1264
   60CHL1  H12A 6878   2.825   2.281   9.735 -0.2233  0.0567  0.7466
   60CHL1  H12B 6879   2.914   2.165   9.837 -0.1747 -0.1861  0.0766
   60CHL1   C11 6880   2.837   2.328   9.948 -0.0200  0.1137  0.4801
   60CHL1  H11A 6881   2.799   2.431   9.931 -1.7639 -0.7213 -0.9364
   60CHL1  H11B 6882   2.740   2.278   9.967 -1.5241  2.3625 -0.8174
   60CHL1    C9 6883   2.937   2.320  10.071 -0.8816 -0.0899  0.1405
   60CHL1    H9 6884   2.947   2.211  10.087 -1.3730 -0.0995  0.4181
   60CHL1   C10 6885   2.881   2.355  10.209 -0.1925 -0.3433 -0.9121
   60CHL1   C19 6886   2.821   2.493  10.188 -0.3667  0.0925  0.1489
   60CHL1  H19A 6887   2.900   2.546  10.130  1.0814  0.5957  2.4379
   60CHL1  H19B 6888   2.726   2.495  10.131 -0.1091 -0.3673 -0.3077
   60CHL1  H19C 6889   2.811   2.563  10.273 -2.7662  0.3727 -0.3004
   60CHL1    C1 6890   2.769   2.261  10.262 -1.1996  0.2125  0.4820
   60CHL1   H1A 6891   2.685   2.272  10.190 -0.9332  0.0714  0.1507
   60CHL1   H1B 6892   2.801   2.155  10.250  2.0909  1.3046 -1.9191
   60CHL1    C2 6893   2.723   2.278  10.402  0.5468 -0.3553  0.0101
   60CHL1   H2A 6894   2.660   2.189  10.426 -1.0064  0.5103 -0.7041
   60CHL1   H2B 6895   2.671   2.376  10.410  0.2072 -0.4692 -0.7711
   60CHL1   C20 6896   3.120   2.274   9.523  0.4061  0.4104 -0.3575
   60CHL1   H20 6897   3.144   2.380   9.502  1.2966  0.4334  0.6639
   60CHL1   C21 6898   2.970   2.247   9.486 -0.6579 -0.3516  0.9695
   60CHL1  H21A 6899   2.970   2.269   9.377  5.2613 -0.1273  0.6956
   60CHL1  H21B 6900   2.907   2.322   9.540  1.7148  1.3561  1.5655
   60CHL1  H21C 6901   2.922   2.151   9.512 -1.0247 -0.9977 -1.8641
   60CHL1   C22 6902   3.228   2.194   9.439  0.5337 -0.0141 -0.6269
   60CHL1  H22A 6903   3.325   2.244   9.456 -0.0803  1.4612 -1.2578
   60CHL1  H22B 6904   3.223   2.086   9.463  0.6872  0.3657  1.2259
   60CHL1   C23 6905   3.204   2.190   9.285  0.1697  0.4713 -0.0294
   60CHL1  H23A 6906   3.109   2.133   9.276  1.0961 -1.0876 -0.0941
   60CHL1  H23B 6907   3.189   2.286   9.230  0.4287 -0.6780 -2.2136
   60CHL1   C24 6908   3.322   2.125   9.213  0.0521 -0.3293 -0.3418
   60CHL1  H24A 6909   3.415   2.169   9.255 -1.0099 -0.0386  1.8219
   60CHL1  H24B 6910   3.333   2.018   9.242  1.5489 -0.4100 -1.1068
   60CHL1   C25 6911   3.313   2.129   9.062 -0.1540  0.4962 -0.3416
   60CHL1   H25 6912   3.216   2.080   9.037 -1.1413  0.6191  2.8701
   60CHL1   C26 6913   3.322   2.267   9.007 -0.2123 -0.3140 -0.1206
   60CHL1  H26A 6914   3.313   2.265   8.896 -1.7387  0.9843 -0.0659
   60CHL1  H26B 6915   3.242   2.332   9.049  1.5095  0.1897  2.6076
   60CHL1  H26C 6916   3.416   2.317   9.037  0.0848 -1.5209  1.0486
   60CHL1   C27 6917   3.422   2.047   8.997 -0.3099  0.3218  0.7495
   60CHL1  H27A 6918   3.526   2.081   9.019  0.5380  0.6700 -3.1792
   60CHL1  H27B 6919   3.408   1.944   9.036 -3.9937 -0.0490 -1.2186
   60CHL1  H27C 6920   3.410   2.039   8.887 -0.8113 -2.9712  0.9424
   61CHL1    C3 6921   1.102   3.738  10.423  0.8147 -0.7789  0.3667
   61CHL1    H3 6922   0.995   3.709  10.410  1.3720 -1.7238 -3.0834
   61CHL1    O3 6923   1.139   3.778  10.551  0.3734 -0.2524  0.0412
   61CHL1   H3' 6924   1.163   3.870  10.542 -0.0876 -0.2360 -1.1867
   61CHL1    C4 6925   1.193   3.628  10.371  1.1046 -0.1529  0.4802
   61CHL1   H4A 6926   1.297   3.666  10.379  1.1614 -0.5767  1.9831
   61CHL1   H4B 6927   1.185   3.544  10.443 -1.4743 -1.7093 -1.4546
   61CHL1    C5 6928   1.158   3.595  10.226  0.7875 -0.5819 -0.5146
   61CHL1    C6 6929   1.118   3.471  10.199 -0.9061 -0.4928 -0.5743
   61CHL1    H6 6930   1.122   3.392  10.276 -0.0036  0.4159  0.3449
   61CHL1    C7 6931   1.069   3.424  10.071 -0.0007 -0.3612 -0.0719
   61CHL1   H7A 6932   1.109   3.324  10.044 -0.2866 -0.1693 -1.2525
   61CHL1   H7B 6933   0.960   3.402  10.082 -0.0610 -1.6602 -2.4649
   61CHL1    C8 6934   1.099   3.518   9.958 -0.8026 -0.2538  0.2471
   61CHL1    H8 6935   1.208   3.517   9.938 -1.0635  0.1103 -1.2796
   61CHL1   C14 6936   1.022   3.474   9.836 -0.6548 -0.7805  0.8483
   61CHL1   H14 6937   0.915   3.496   9.857 -0.5090  0.0454  0.7719
   61CHL1   C15 6938   1.026   3.330   9.784 -0.0937  0.3978 -0.0695
   61CHL1  H15A 6939   1.127   3.284   9.777 -0.1340  0.4462 -1.2054
   61CHL1  H15B 6940   0.963   3.260   9.843 -0.1620  0.7069  0.2300
   61CHL1   C16 6941   0.980   3.340   9.641 -0.0317  0.8718  0.1110
   61CHL1  H16A 6942   1.047   3.276   9.580  0.8082  1.2105  0.6496
   61CHL1  H16B 6943   0.880   3.291   9.637  0.4650 -0.0802 -1.8866
   61CHL1   C17 6944   0.978   3.492   9.603  0.6545  0.2342 -0.6647
   61CHL1   H17 6945   0.869   3.514   9.601 -0.0204 -2.6472 -1.2244
   61CHL1   C13 6946   1.056   3.564   9.713 -0.4437  0.2313 -0.2273
   61CHL1   C18 6947   1.207   3.566   9.679  0.6470 -0.2303  0.1270
   61CHL1  H18A 6948   1.223   3.650   9.609  1.9789  0.0752  0.7772
   61CHL1  H18B 6949   1.273   3.598   9.763 -0.0709  0.1390  0.5655
   61CHL1  H18C 6950   1.231   3.472   9.625  3.5073  0.6268 -0.2487
   61CHL1   C12 6951   0.999   3.700   9.749  0.3827  0.4667  0.6267
   61CHL1  H12A 6952   0.993   3.773   9.666  2.0107  0.1619  0.1981
   61CHL1  H12B 6953   0.892   3.678   9.767  1.3445 -3.7868  2.3993
   61CHL1   C11 6954   1.051   3.762   9.877  0.1353 -1.1332  0.0447
   61CHL1  H11A 6955   1.153   3.794   9.848 -0.4473  0.8694  0.0869
   61CHL1  H11B 6956   0.992   3.854   9.896  1.7275 -0.0586 -0.0323
   61CHL1    C9 6957   1.060   3.662   9.996 -0.1606 -0.2452 -0.7896
   61CHL1    H9 6958   0.958   3.650  10.039 -0.2456  4.4055  0.9491
   61CHL1   C10 6959   1.146   3.712  10.124 -0.3175 -0.0183 -0.1421
   61CHL1   C19 6960   1.283   3.766  10.086  0.1886  0.4631 -0.2645
   61CHL1  H19A 6961   1.353   3.689  10.046  0.3546  0.3574  0.2181
   61CHL1  H19B 6962   1.288   3.856  10.022  2.4065  1.8985  1.7614
   61CHL1  H19C 6963   1.330   3.806  10.178  0.4663 -0.2117 -0.0991
   61CHL1    C1 6964   1.066   3.824  10.191 -0.0009 -0.2217  0.2146
   61CHL1   H1A 6965   1.059   3.920  10.136 -1.0968 -1.1345 -1.3286
   61CHL1   H1B 6966   0.962   3.784  10.202 -0.5039  1.1431  0.7167
   61CHL1    C2 6967   1.117   3.862  10.330 -0.3617 -0.3992 -0.1912
   61CHL1   H2A 6968   1.044   3.936  10.369 -1.5329 -0.1445 -2.6649
   61CHL1   H2B 6969   1.223   3.893  10.338 -0.2192  0.3831 -3.6420
   61CHL1   C20 6970   1.024   3.512   9.463 -0.6538  0.3073 -0.6122
   61CHL1   H20 6971   1.130   3.481   9.448 -0.3401  0.8088  0.3974
   61CHL1   C21 6972   0.998   3.658   9.425 -0.8988 -0.3971  0.3242
   61CHL1  H21A 6973   1.014   3.675   9.316 -0.3831  1.8136  0.7001
   61CHL1  H21B 6974   1.077   3.726   9.464 -1.0022  0.1255 -0.3463
   61CHL1  H21C 6975   0.896   3.684   9.462  0.2580  0.6694  3.0236
   61CHL1   C22 6976   0.939   3.421   9.362  0.0156 -0.1672 -0.0218
   61CHL1  H22A 6977   0.926   3.318   9.399  0.7497  0.4409  2.0479
   61CHL1  H22B 6978   0.843   3.474   9.342 -0.3339 -0.0931  1.7145
   61CHL1   C23 6979   1.012   3.412   9.227 -0.3143 -0.2203 -0.0914
   61CHL1  H23A 6980   1.042   3.511   9.186  3.2761 -1.3189 -0.5425
   61CHL1  H23B 6981   1.115   3.378   9.252  0.8466  2.6963 -0.4407
   61CHL1   C24 6982   0.926   3.331   9.129 -0.9015 -0.0528  0.0939
   61CHL1  H24A 6983   0.946   3.224   9.153  1.5560  0.1340 -0.8470
   61CHL1  H24B 6984   0.819   3.334   9.157 -0.5100 -0.7946  1.8025
   61CHL1   C25 6985   0.959   3.365   8.989 -0.0923  0.0666 -0.4579
   61CHL1   H25 6986   1.066   3.396   8.985  0.1965 -0.9192 -0.7471
   61CHL1   C26 6987   0.941   3.245   8.889 -0.0573 -1.2208  0.1652
   61CHL1  H26A 6988   0.989   3.155   8.933  1.8654 -1.8049 -2.7999
   61CHL1  H26B 6989   0.832   3.230   8.873 -1.2687  3.9041  1.9542
   61CHL1  H26C 6990   0.988   3.256   8.789 -2.1850  1.0624 -0.6711
   61CHL1   C27 6991   0.883   3.485   8.943 -0.8618  0.9829 -1.1861
   61CHL1  H27A 6992   0.907   3.578   8.998 -3.1342  0.1242  1.5340
   61CHL1  H27B 6993   0.889   3.507   8.835 -1.7097 -2.2915 -2.0255
   61CHL1  H27C 6994   0.774   3.462   8.945 -0.4807 -1.5995 -4.0318
   62CHL1    C3 6995   3.403   4.806  10.034  0.1278 -0.7716  0.2065
   62CHL1    H3 6996   3.499   4.767   9.995  0.3807  1.1474 -1.2915
   62CHL1    O3 6997   3.406   4.821  10.173 -0.2956  0.4272 -0.2122
   62CHL1   H3' 6998   3.403   4.732  10.209 -1.8344  0.0293 -1.2192
   62CHL1    C4 6999   3.388   4.943   9.967 -0.0140  0.4151  0.4339
   62CHL1   H4A 7000   3.296   4.977  10.020  0.1944  0.7401  0.5919
   62CHL1   H4B 7001   3.478   5.000   9.999 -1.2402  2.5293  0.2887
   62CHL1    C5 7002   3.367   4.937   9.817  0.8331 -0.9500 -0.5752
   62CHL1    C6 7003   3.444   5.007   9.732 -0.4651 -1.6238 -0.5566
   62CHL1    H6 7004   3.530   5.062   9.773 -1.8043 -0.0961  0.3280
   62CHL1    C7 7005   3.434   5.009   9.589  1.1795 -0.7401 -0.4234
   62CHL1   H7A 7006   3.444   5.115   9.558 -2.0564  0.1905  1.2400
   62CHL1   H7B 7007   3.510   4.952   9.532  1.3315 -1.9090  0.8909
   62CHL1    C8 7008   3.294   4.960   9.542 -0.3357  0.8780 -0.7144
   62CHL1    H8 7009   3.211   5.028   9.573 -0.0517  0.6008  0.7239
   62CHL1   C14 7010   3.308   4.931   9.391 -0.7330  0.7541  0.7899
   62CHL1   H14 7011   3.393   4.861   9.377 -0.0290  2.0504 -2.1852
   62CHL1   C15 7012   3.350   5.051   9.302 -0.8853 -0.1137  0.2036
   62CHL1  H15A 7013   3.290   5.140   9.329 -1.5850 -0.8985  1.2986
   62CHL1  H15B 7014   3.458   5.074   9.312 -1.1463  0.6158  1.5314
   62CHL1   C16 7015   3.331   4.999   9.159 -0.1139  1.1150 -0.6219
   62CHL1  H16A 7016   3.278   5.081   9.107  0.0422 -0.3922 -3.3263
   62CHL1  H16B 7017   3.420   4.969   9.098 -0.4927 -0.3030 -0.5111
   62CHL1   C17 7018   3.251   4.868   9.167 -1.1167 -0.9980 -1.2299
   62CHL1   H17 7019   3.326   4.786   9.170 -2.0519 -2.0083  3.4105
   62CHL1   C13 7020   3.196   4.863   9.313 -0.3090  1.2816 -0.5887
   62CHL1   C18 7021   3.068   4.945   9.321  0.1122  0.1562  0.4358
   62CHL1  H18A 7022   2.987   4.890   9.269  0.1980  0.3701  0.0716
   62CHL1  H18B 7023   3.036   4.965   9.425 -1.1391 -0.4137  0.1721
   62CHL1  H18C 7024   3.084   5.038   9.263  0.7556  0.2592  0.7679
   62CHL1   C12 7025   3.175   4.724   9.378 -0.3242  0.4519 -0.0234
   62CHL1  H12A 7026   3.095   4.665   9.330  0.5938 -0.5199 -0.3974
   62CHL1  H12B 7027   3.262   4.656   9.372 -0.7965 -0.1794  0.2282
   62CHL1   C11 7028   3.152   4.741   9.528 -1.1024 -0.0291 -0.0891
   62CHL1  H11A 7029   3.058   4.798   9.537  0.1878  2.7488 -2.5222
   62CHL1  H11B 7030   3.144   4.646   9.586  1.5992 -1.7239 -2.2116
   62CHL1    C9 7031   3.263   4.824   9.613 -0.3954  0.0257 -0.1770
   62CHL1    H9 7032   3.348   4.756   9.590 -0.9583 -1.0033  0.6856
   62CHL1   C10 7033   3.258   4.837   9.771 -0.0135 -0.4822  1.1535
   62CHL1   C19 7034   3.117   4.888   9.806 -0.6784  0.1119  0.0207
   62CHL1  H19A 7035   3.107   4.980   9.744 -0.0113  0.0790 -0.1377
   62CHL1  H19B 7036   3.040   4.818   9.767 -0.0716  1.0255 -3.0450
   62CHL1  H19C 7037   3.102   4.916   9.913 -1.1202 -1.3182  0.3622
   62CHL1    C1 7038   3.290   4.701   9.831  0.5420  0.6830  0.0048
   62CHL1   H1A 7039   3.210   4.627   9.812 -1.0383  1.3138  3.4820
   62CHL1   H1B 7040   3.389   4.667   9.792  1.2904  0.4486  1.9575
   62CHL1    C2 7041   3.297   4.706   9.981  0.0711 -0.0932  0.4729
   62CHL1   H2A 7042   3.319   4.605  10.020  0.7946 -0.0070  0.3065
   62CHL1   H2B 7043   3.200   4.722  10.033 -0.1268 -3.6462  1.4019
   62CHL1   C20 7044   3.159   4.845   9.053 -0.5066 -0.3807  0.8325
   62CHL1   H20 7045   3.081   4.923   9.060  2.7049  2.9892  2.1758
   62CHL1   C21 7046   3.104   4.698   9.058 -0.2318  0.1693  0.9100
   62CHL1  H21A 7047   3.054   4.677   8.961  0.3493  2.1176  0.1381
   62CHL1  H21B 7048   3.039   4.668   9.143 -0.0414 -1.1710  0.6084
   62CHL1  H21C 7049   3.195   4.636   9.070  0.2383  1.0611  2.2245
   62CHL1   C22 7050   3.227   4.878   8.917 -0.2180  0.0375  0.1066
   62CHL1  H22A 7051   3.241   4.987   8.901  0.8382  0.1023  1.3163
   62CHL1  H22B 7052   3.328   4.834   8.905 -0.7989 -0.8857 -1.9077
   62CHL1   C23 7053   3.144   4.842   8.794 -0.6093  0.7796  0.5729
   62CHL1  H23A 7054   3.119   4.733   8.790  1.7383  0.1688  1.0698
   62CHL1  H23B 7055   3.045   4.892   8.803  0.4580  2.6121  2.7766
   62CHL1   C24 7056   3.217   4.883   8.667  0.7302 -0.2672 -0.4672
   62CHL1  H24A 7057   3.228   4.994   8.667  0.3139 -0.2047  1.3954
   62CHL1  H24B 7058   3.323   4.851   8.673  1.1554  0.8646 -1.5234
   62CHL1   C25 7059   3.157   4.843   8.530 -0.2181  0.4642 -0.4238
   62CHL1   H25 7060   3.057   4.889   8.516 -1.5232 -1.8641  0.7916
   62CHL1   C26 7061   3.254   4.903   8.423  0.4348  0.7383  0.0246
   62CHL1  H26A 7062   3.232   5.009   8.398 -1.4316  0.3876 -0.0148
   62CHL1  H26B 7063   3.360   4.886   8.449  0.5409 -0.4536 -1.1018
   62CHL1  H26C 7064   3.229   4.849   8.329 -0.1615  1.1467 -0.0597
   62CHL1   C27 7065   3.137   4.692   8.512 -0.1025  0.1556 -0.2869
   62CHL1  H27A 7066   3.228   4.637   8.546  1.1711  2.4874  0.2979
   62CHL1  H27B 7067   3.060   4.649   8.579 -0.0886  1.8572  0.8699
   62CHL1  H27C 7068   3.120   4.663   8.406 -0.5827 -0.0671 -0.1509
   63CHL1    C3 7069   4.049   6.694  10.431 -0.0862 -0.6019  0.1202
   63CHL1    H3 7070   3.971   6.773  10.430  1.1459  0.7483  2.3428
   63CHL1    O3 7071   4.076   6.650  10.561  0.1610  0.1968  0.0393
   63CHL1   H3' 7072   4.126   6.568  10.552  0.4470  0.3833 -0.0842
   63CHL1    C4 7073   4.008   6.565  10.350 -0.1302  0.1256  0.1794
   63CHL1   H4A 7074   4.087   6.487  10.363 -0.3884 -0.2254 -0.3073
   63CHL1   H4B 7075   3.914   6.539  10.402 -0.5951 -0.1121 -0.7587
   63CHL1    C5 7076   3.989   6.588  10.202 -0.2148 -1.2854 -0.2762
   63CHL1    C6 7077   3.869   6.575  10.144  0.0032  0.2584 -0.0760
   63CHL1    H6 7078   3.785   6.527  10.195 -1.2060  2.5207  0.2031
   63CHL1    C7 7079   3.848   6.591   9.996  0.4393  0.2106 -0.4731
   63CHL1   H7A 7080   3.784   6.509   9.956 -0.6488  1.2173 -0.8210
   63CHL1   H7B 7081   3.781   6.678   9.985 -0.7455 -0.4003  1.4867
   63CHL1    C8 7082   3.978   6.607   9.918  0.2308 -0.1688 -0.1111
   63CHL1    H8 7083   4.032   6.510   9.910  0.3798 -0.0543 -0.4853
   63CHL1   C14 7084   3.952   6.653   9.779  0.5674 -0.3418 -0.3791
   63CHL1   H14 7085   3.914   6.756   9.796  3.3296  0.4220  1.8824
   63CHL1   C15 7086   3.853   6.565   9.699 -1.4472 -0.6946 -0.3554
   63CHL1  H15A 7087   3.878   6.457   9.710  2.8854  0.3290  2.1285
   63CHL1  H15B 7088   3.748   6.587   9.728 -1.1402  1.5119 -0.7429
   63CHL1   C16 7089   3.879   6.615   9.553 -0.3000  0.0496 -0.0684
   63CHL1  H16A 7090   3.914   6.531   9.489  2.0976  1.8034 -1.2214
   63CHL1  H16B 7091   3.790   6.658   9.502  0.8012 -1.2204 -3.3570
   63CHL1   C17 7092   3.999   6.719   9.564 -0.0165 -0.0696 -0.2059
   63CHL1   H17 7093   3.962   6.817   9.599  0.4354  0.2224 -0.5375
   63CHL1   C13 7094   4.078   6.672   9.687  0.3817 -0.2281 -0.3818
   63CHL1   C18 7095   4.157   6.546   9.652  0.0364  0.3315 -0.0651
   63CHL1  H18A 7096   4.261   6.567   9.619  0.4443 -0.4981  0.6675
   63CHL1  H18B 7097   4.151   6.470   9.733  1.7021 -0.3506 -0.5413
   63CHL1  H18C 7098   4.106   6.498   9.566 -1.4790  0.5660  0.6696
   63CHL1   C12 7099   4.165   6.785   9.754  0.1653  0.3335  0.2184
   63CHL1  H12A 7100   4.257   6.807   9.695  0.8532  0.0705  1.1492
   63CHL1  H12B 7101   4.097   6.871   9.770  0.8741  0.8571  0.4689
   63CHL1   C11 7102   4.205   6.741   9.894 -0.3202 -0.1361 -0.0376
   63CHL1  H11A 7103   4.275   6.655   9.884 -0.3251  0.0083 -1.4904
   63CHL1  H11B 7104   4.264   6.824   9.938  2.2557 -0.5111 -2.5212
   63CHL1    C9 7105   4.074   6.706   9.987  0.5828 -0.0665  1.3403
   63CHL1    H9 7106   4.011   6.796   9.998  0.1210  0.2961 -2.6961
   63CHL1   C10 7107   4.104   6.663  10.130 -0.5724 -0.1262  0.2302
   63CHL1   C19 7108   4.217   6.551  10.124  0.1452 -0.4448 -0.5367
   63CHL1  H19A 7109   4.238   6.493  10.216  0.7688 -1.1486 -1.1078
   63CHL1  H19B 7110   4.180   6.478  10.047 -2.2874  0.1631 -0.0373
   63CHL1  H19C 7111   4.315   6.593  10.094  0.3904 -0.5247  0.1504
   63CHL1    C1 7112   4.147   6.789  10.220 -0.1154  0.1145  0.6820
   63CHL1   H1A 7113   4.234   6.835  10.170 -1.6857  1.2755 -1.1373
   63CHL1   H1B 7114   4.064   6.863  10.214 -0.6023 -0.5008 -0.5533
   63CHL1    C2 7115   4.170   6.766  10.370 -0.4377 -0.0286  0.1043
   63CHL1   H2A 7116   4.181   6.862  10.424 -3.9429  1.1668 -1.0243
   63CHL1   H2B 7117   4.263   6.707  10.385  0.3693  1.0949 -0.3587
   63CHL1   C20 7118   4.073   6.743   9.426 -0.4666 -0.0090 -0.2499
   63CHL1   H20 7119   4.156   6.670   9.414 -1.3910 -0.6971 -3.3155
   63CHL1   C21 7120   4.133   6.887   9.424  0.6605  0.1766 -0.4837
   63CHL1  H21A 7121   4.194   6.898   9.516  0.4612  0.0339 -0.3371
   63CHL1  H21B 7122   4.058   6.969   9.421 -0.7124 -0.9467  1.1847
   63CHL1  H21C 7123   4.194   6.892   9.331  2.5756 -2.9205  0.4433
   63CHL1   C22 7124   3.985   6.720   9.299 -0.8121 -0.1237 -0.6092
   63CHL1  H22A 7125   3.939   6.619   9.305 -0.5209 -0.1749  1.4569
   63CHL1  H22B 7126   3.905   6.798   9.301 -0.1024  0.6074  0.2026
   63CHL1   C23 7127   4.056   6.744   9.164 -0.3273  1.0310  0.2487
   63CHL1  H23A 7128   3.984   6.739   9.079  1.3272  0.7507 -1.1880
   63CHL1  H23B 7129   4.085   6.851   9.158 -1.4221  1.3504  0.4773
   63CHL1   C24 7130   4.166   6.652   9.119 -0.2074  0.4362  0.6681
   63CHL1  H24A 7131   4.254   6.652   9.187 -0.0958 -3.0695  0.7035
   63CHL1  H24B 7132   4.128   6.548   9.124 -0.1668  0.4036  0.3245
   63CHL1   C25 7133   4.215   6.690   8.977  1.1033 -0.4179 -0.1650
   63CHL1   H25 7134   4.132   6.714   8.907 -0.5360  1.6091  2.3099
   63CHL1   C26 7135   4.300   6.819   8.988  0.1816  0.0053 -0.5645
   63CHL1  H26A 7136   4.376   6.809   9.067 -0.3734  0.4271  0.0385
   63CHL1  H26B 7137   4.344   6.852   8.891  0.3293 -1.8854 -1.1662
   63CHL1  H26C 7138   4.234   6.905   9.014 -0.2331 -0.3757 -0.3425
   63CHL1   C27 7139   4.313   6.584   8.927  0.6824  0.7287  0.4534
   63CHL1  H27A 7140   4.403   6.577   8.992  0.5280 -2.4644  0.4699
   63CHL1  H27B 7141   4.251   6.492   8.935 -1.6022  2.0562 -0.8317
   63CHL1  H27C 7142   4.340   6.595   8.819 -1.5377 -3.0829 -0.6542
   64CHL1    C3 7143   3.792   5.356  10.037  0.5641  0.3619 -0.3130
   64CHL1    H3 7144   3.807   5.459   9.997  1.7705  0.5174  0.4787
   64CHL1    O3 7145   3.739   5.365  10.174  0.2780 -0.6509  0.1024
   64CHL1   H3' 7146   3.681   5.290  10.190 -0.4963  0.3434  2.3907
   64CHL1    C4 7147   3.686   5.279   9.943  0.5890 -0.2341 -0.4789
   64CHL1   H4A 7148   3.668   5.175   9.977 -0.3600  0.3196  0.7911
   64CHL1   H4B 7149   3.591   5.333   9.962  0.0354 -1.8782  1.7975
   64CHL1    C5 7150   3.736   5.277   9.802 -0.0180  0.4422 -0.6017
   64CHL1    C6 7151   3.661   5.319   9.705 -0.5230  0.3507  0.3470
   64CHL1    H6 7152   3.557   5.345   9.727 -1.0870 -2.3572  1.3292
   64CHL1    C7 7153   3.706   5.327   9.561 -0.0933  0.3001  0.1031
   64CHL1   H7A 7154   3.625   5.298   9.491  0.4913 -0.4266 -0.2937
   64CHL1   H7B 7155   3.738   5.429   9.531 -0.3155  0.0846 -0.8994
   64CHL1    C8 7156   3.822   5.239   9.538  0.1389  0.3606 -0.1994
   64CHL1    H8 7157   3.784   5.135   9.547  1.3190 -0.1701 -1.0499
   64CHL1   C14 7158   3.877   5.249   9.397 -0.3986 -0.0301  0.0617
   64CHL1   H14 7159   3.909   5.353   9.375  1.9457 -0.8539 -0.7707
   64CHL1   C15 7160   3.778   5.230   9.279 -0.1345  0.1871 -0.5763
   64CHL1  H15A 7161   3.721   5.136   9.297  2.6418 -1.7006 -1.0960
   64CHL1  H15B 7162   3.711   5.319   9.283  1.3710  1.3782 -1.1847
   64CHL1   C16 7163   3.862   5.221   9.153  0.4979 -0.0806 -0.5048
   64CHL1  H16A 7164   3.819   5.136   9.097 -2.6333 -0.0330  1.5975
   64CHL1  H16B 7165   3.876   5.306   9.082  1.2629  1.7205  1.6633
   64CHL1   C17 7166   4.010   5.192   9.207  0.2302 -0.0478 -0.3564
   64CHL1   H17 7167   4.049   5.296   9.199  0.2065 -0.0608 -0.6377
   64CHL1   C13 7168   3.996   5.165   9.360 -0.1540  0.1841 -0.5716
   64CHL1   C18 7169   3.956   5.015   9.387  0.6803  0.3623  0.1377
   64CHL1  H18A 7170   4.047   4.951   9.381  0.3898  0.0036 -0.7077
   64CHL1  H18B 7171   3.912   4.994   9.486 -0.1413  0.2398 -0.2423
   64CHL1  H18C 7172   3.887   4.985   9.305  0.7680  1.3433 -0.3134
   64CHL1   C12 7173   4.104   5.209   9.454  0.1004  0.3981  0.3454
   64CHL1  H12A 7174   4.200   5.156   9.434 -0.9005 -0.4593 -2.7819
   64CHL1  H12B 7175   4.125   5.316   9.430 -0.9962  0.4371 -0.5524
   64CHL1   C11 7176   4.060   5.192   9.602 -1.2389 -0.0397 -0.3898
   64CHL1  H11A 7177   4.061   5.081   9.615  2.2304 -0.2072 -1.1853
   64CHL1  H11B 7178   4.141   5.223   9.671 -0.9569  0.4872 -0.9473
   64CHL1    C9 7179   3.932   5.266   9.640 -0.1063 -0.5489 -0.0887
   64CHL1    H9 7180   3.952   5.375   9.640 -1.3694 -0.2994 -0.7723
   64CHL1   C10 7181   3.883   5.234   9.790 -0.0570  0.6088  0.2416
   64CHL1   C19 7182   3.897   5.082   9.807  0.9733  0.0733 -0.3315
   64CHL1  H19A 7183   3.999   5.056   9.842  0.4315  1.4596  2.6842
   64CHL1  H19B 7184   3.836   5.041   9.891  3.2648 -2.3905  0.2377
   64CHL1  H19C 7185   3.866   5.014   9.725 -0.7597 -0.9778  1.0975
   64CHL1    C1 7186   3.979   5.302   9.890  0.6675 -0.5850 -0.9215
   64CHL1   H1A 7187   4.079   5.253   9.882  1.5519  0.3301  2.7387
   64CHL1   H1B 7188   3.992   5.407   9.856  0.3107  0.4381  1.9071
   64CHL1    C2 7189   3.935   5.290  10.036 -0.7692  0.1030  0.2083
   64CHL1   H2A 7190   3.997   5.363  10.093  0.2996  1.0223 -2.0001
   64CHL1   H2B 7191   3.941   5.186  10.074  0.3853  0.9548  2.4927
   64CHL1   C20 7192   4.097   5.107   9.110  0.4121 -0.0706  0.0468
   64CHL1   H20 7193   4.061   5.003   9.123 -2.5467  0.9241  0.5822
   64CHL1   C21 7194   4.245   5.106   9.153 -0.6549  0.1066  0.1673
   64CHL1  H21A 7195   4.270   5.051   9.247  0.9843 -1.1790 -0.9452
   64CHL1  H21B 7196   4.292   5.207   9.158 -0.8772  0.2320 -0.2298
   64CHL1  H21C 7197   4.304   5.055   9.073 -0.5232  1.7738 -0.8444
   64CHL1   C22 7198   4.086   5.144   8.960  1.0610 -0.1619 -0.2582
   64CHL1  H22A 7199   4.149   5.069   8.907  0.7560  0.1759 -1.1104
   64CHL1  H22B 7200   3.983   5.133   8.921  0.7529  1.3502  0.0682
   64CHL1   C23 7201   4.140   5.284   8.926  0.2525 -0.0108 -0.4196
   64CHL1  H23A 7202   4.078   5.362   8.975  1.0433 -0.3586  1.2430
   64CHL1  H23B 7203   4.244   5.306   8.958  0.2755 -1.0726  0.2982
   64CHL1   C24 7204   4.136   5.305   8.778  0.5092 -0.4680 -0.3534
   64CHL1  H24A 7205   4.212   5.237   8.733 -0.4095 -1.6877 -0.1116
   64CHL1  H24B 7206   4.034   5.291   8.735 -0.1522  3.5794 -0.4522
   64CHL1   C25 7207   4.172   5.444   8.739 -0.0724  0.1053 -0.3824
   64CHL1   H25 7208   4.106   5.520   8.784 -2.0291 -1.0092 -1.2359
   64CHL1   C26 7209   4.325   5.477   8.761  0.3100 -0.4075 -0.2695
   64CHL1  H26A 7210   4.340   5.573   8.707 -2.7010 -0.2462 -0.9924
   64CHL1  H26B 7211   4.366   5.468   8.864  3.0139 -0.0106 -1.2267
   64CHL1  H26C 7212   4.385   5.397   8.712  1.1315 -0.5258  0.9036
   64CHL1   C27 7213   4.137   5.449   8.589 -0.0478  0.3460  0.5490
   64CHL1  H27A 7214   4.194   5.384   8.519 -2.5118 -1.2029 -0.1208
   64CHL1  H27B 7215   4.037   5.406   8.570  0.2893  0.0001 -0.5354
   64CHL1  H27C 7216   4.147   5.556   8.559 -1.5924  0.2203 -0.5562
   65CHL1    C3 7217   4.327   2.013  10.393  0.5406  0.4869  0.0237
   65CHL1    H3 7218   4.302   2.115  10.356  3.2431  1.3411  0.3476
   65CHL1    O3 7219   4.342   2.038  10.534 -0.6059  0.5820  0.0594
   65CHL1   H3' 7220   4.384   2.124  10.539  1.0757  0.0375 -2.5994
   65CHL1    C4 7221   4.222   1.898  10.361 -0.2158 -0.6828  0.2641
   65CHL1   H4A 7222   4.254   1.816  10.429 -1.4654  0.9609  3.0158
   65CHL1   H4B 7223   4.128   1.937  10.406  0.1226 -1.0107  1.2805
   65CHL1    C5 7224   4.211   1.877  10.215  0.8066  0.3075  0.0381
   65CHL1    C6 7225   4.094   1.894  10.150 -0.8066  0.2451  0.0049
   65CHL1    H6 7226   4.004   1.934  10.198 -1.5614 -1.2104 -0.1577
   65CHL1    C7 7227   4.079   1.874  10.001  0.1663 -0.7606 -0.0537
   65CHL1   H7A 7228   3.975   1.837   9.984 -0.6853  1.5123 -0.1495
   65CHL1   H7B 7229   4.082   1.974   9.953  0.3798 -1.4572 -1.5486
   65CHL1    C8 7230   4.197   1.799   9.943  0.6343  0.2613 -0.0314
   65CHL1    H8 7231   4.184   1.692   9.967 -2.3738  0.2153 -1.3873
   65CHL1   C14 7232   4.186   1.811   9.788  0.6347  0.0800 -0.0294
   65CHL1   H14 7233   4.202   1.919   9.769  0.6741 -0.2139 -1.8011
   65CHL1   C15 7234   4.051   1.768   9.722  0.4046 -0.7133  0.5143
   65CHL1  H15A 7235   4.033   1.667   9.764 -1.9687  1.0800  4.4068
   65CHL1  H15B 7236   3.960   1.830   9.737  0.9077  0.3650 -0.6393
   65CHL1   C16 7237   4.092   1.760   9.568  0.4067 -0.3034 -0.3526
   65CHL1  H16A 7238   4.049   1.664   9.530 -0.2208 -0.2274  0.1423
   65CHL1  H16B 7239   4.049   1.841   9.506  3.5553  2.3035  0.6001
   65CHL1   C17 7240   4.242   1.769   9.562 -0.5287  0.2255  0.2176
   65CHL1   H17 7241   4.271   1.875   9.548  1.6982 -0.6898 -3.6005
   65CHL1   C13 7242   4.291   1.740   9.710 -0.3916  0.2060  0.4546
   65CHL1   C18 7243   4.291   1.586   9.730  0.0993 -0.4467 -0.7322
   65CHL1  H18A 7244   4.377   1.537   9.679  1.4280  1.0478 -0.0400
   65CHL1  H18B 7245   4.295   1.563   9.839  1.6690  2.9692  0.0901
   65CHL1  H18C 7246   4.196   1.550   9.686 -1.0106  1.9953 -0.4740
   65CHL1   C12 7247   4.426   1.798   9.757  0.0112  0.7008  0.1071
   65CHL1  H12A 7248   4.509   1.748   9.703 -0.5533 -0.1202 -0.0115
   65CHL1  H12B 7249   4.435   1.907   9.737  2.1114  0.1928 -2.1222
   65CHL1   C11 7250   4.443   1.772   9.912  0.5638  0.1248  0.4461
   65CHL1  H11A 7251   4.439   1.663   9.933  1.0134  0.2527  1.2572
   65CHL1  H11B 7252   4.547   1.801   9.940  1.2415 -0.2298 -1.5345
   65CHL1    C9 7253   4.334   1.851   9.988  0.0318  0.2383  0.0818
   65CHL1    H9 7254   4.329   1.961   9.970 -2.1049  0.1201 -0.2844
   65CHL1   C10 7255   4.345   1.844  10.140 -0.0899  0.0377 -0.1237
   65CHL1   C19 7256   4.383   1.700  10.184 -0.2847 -0.4172 -0.4014
   65CHL1  H19A 7257   4.481   1.676  10.138 -0.0902  1.3572 -0.9857
   65CHL1  H19B 7258   4.398   1.711  10.294  0.4328  5.2202 -0.7637
   65CHL1  H19C 7259   4.314   1.616  10.160 -3.1033  1.1193  1.6149
   65CHL1    C1 7260   4.457   1.950  10.191  1.4334 -0.2334  0.2128
   65CHL1   H1A 7261   4.556   1.910  10.159  2.4181  0.6171  2.0438
   65CHL1   H1B 7262   4.435   2.048  10.146  1.7575 -0.4498 -0.4354
   65CHL1    C2 7263   4.463   1.975  10.346  1.5186 -0.1919 -0.2116
   65CHL1   H2A 7264   4.537   2.056  10.363 -0.1087  0.7686  3.4426
   65CHL1   H2B 7265   4.500   1.883  10.394  2.6805  0.0088 -0.6966
   65CHL1   C20 7266   4.310   1.678   9.448 -0.1448 -0.5929 -0.4347
   65CHL1   H20 7267   4.281   1.573   9.469 -1.5815 -0.4796 -1.6906
   65CHL1   C21 7268   4.462   1.697   9.448  0.2605  0.0398  0.4376
   65CHL1  H21A 7269   4.515   1.672   9.354  0.9955  0.4985  0.7231
   65CHL1  H21B 7270   4.508   1.639   9.531  0.1114  0.3888  0.7663
   65CHL1  H21C 7271   4.486   1.801   9.476 -0.4806 -0.0134  1.3105
   65CHL1   C22 7272   4.258   1.711   9.301  0.9415  0.2131  0.6395
   65CHL1  H22A 7273   4.148   1.726   9.309  0.6745 -1.8750  1.5027
   65CHL1  H22B 7274   4.299   1.811   9.276  1.8374  0.2382  2.1074
   65CHL1   C23 7275   4.284   1.603   9.186  0.1281  0.3116 -0.0827
   65CHL1  H23A 7276   4.394   1.586   9.177  0.5291  1.9011  1.1908
   65CHL1  H23B 7277   4.233   1.510   9.218  0.7762 -0.0797 -0.1757
   65CHL1   C24 7278   4.216   1.635   9.054  0.3391 -0.3530 -0.6442
   65CHL1  H24A 7279   4.216   1.533   9.010  0.9533 -0.1505 -1.1415
   65CHL1  H24B 7280   4.114   1.672   9.075  1.1373  0.8474  1.4597
   65CHL1   C25 7281   4.294   1.731   8.961  0.7489  0.8648 -0.9330
   65CHL1   H25 7282   4.338   1.816   9.017 -0.3459  0.7954  0.0656
   65CHL1   C26 7283   4.415   1.673   8.894  0.1598 -0.2666  0.7243
   65CHL1  H26A 7284   4.472   1.605   8.961 -0.3673 -1.8128 -0.3413
   65CHL1  H26B 7285   4.386   1.611   8.806  2.0307 -0.7319  0.3990
   65CHL1  H26C 7286   4.481   1.750   8.849 -1.7528 -0.2105 -2.2752
   65CHL1   C27 7287   4.189   1.783   8.854 -0.3872  0.2128  0.0231
   65CHL1  H27A 7288   4.212   1.871   8.790 -0.4190  1.3694  1.5382
   65CHL1  H27B 7289   4.153   1.691   8.804 -0.2814 -0.1588  0.6132
   65CHL1  H27C 7290   4.102   1.826   8.908 -0.4976  0.2362 -0.1731
   66CHL1    C3 7291   3.695   0.102  10.524  0.0890  0.4259  0.3618
   66CHL1    H3 7292   3.803   0.114  10.499 -0.0321  0.6509 -0.0553
   66CHL1    O3 7293   3.691   0.076  10.664  0.5189 -0.1934  0.5169
   66CHL1   H3' 7294   3.735   0.143  10.716 -0.7748  0.3077  1.0071
   66CHL1    C4 7295   3.621   0.225  10.486 -0.1236 -1.4302  0.4325
   66CHL1   H4A 7296   3.513   0.212  10.508 -1.1996  0.2312 -3.1160
   66CHL1   H4B 7297   3.660   0.310  10.545  0.1789 -0.3933 -1.1941
   66CHL1    C5 7298   3.642   0.261  10.342  0.5506 -0.0715  0.4933
   66CHL1    C6 7299   3.686   0.383  10.306  0.0272 -0.1544  0.5365
   66CHL1    H6 7300   3.725   0.455  10.379 -2.5891  1.3821  0.5424
   66CHL1    C7 7301   3.689   0.418  10.162 -0.4286  0.3111 -0.2103
   66CHL1   H7A 7302   3.654   0.521  10.138  0.5824  0.1363 -2.7605
   66CHL1   H7B 7303   3.796   0.420  10.130  0.0625  1.4996  1.3340
   66CHL1    C8 7304   3.607   0.325  10.062 -0.5279 -0.3245  0.0716
   66CHL1    H8 7305   3.505   0.370  10.060 -0.9279 -1.1783  0.3597
   66CHL1   C14 7306   3.658   0.336   9.913  0.1232  0.1683 -0.3605
   66CHL1   H14 7307   3.761   0.295   9.928 -1.0567 -1.8363  3.7886
   66CHL1   C15 7308   3.669   0.472   9.847  1.1331 -0.0469  0.6182
   66CHL1  H15A 7309   3.575   0.525   9.873  1.1528  0.6811 -0.7174
   66CHL1  H15B 7310   3.764   0.518   9.882  0.5248  1.4107  0.3832
   66CHL1   C16 7311   3.669   0.442   9.697  0.7418  0.1830 -0.5196
   66CHL1  H16A 7312   3.582   0.495   9.653 -0.1537 -0.4565  0.4465
   66CHL1  H16B 7313   3.762   0.478   9.648  1.0238  0.1139 -0.0422
   66CHL1   C17 7314   3.662   0.288   9.683  0.0957 -0.0254  0.0926
   66CHL1   H17 7315   3.769   0.258   9.692  0.1891  0.4322  0.5810
   66CHL1   C13 7316   3.591   0.239   9.810 -0.3601  0.0432  0.3640
   66CHL1   C18 7317   3.441   0.266   9.797  0.9312 -0.4138 -0.0808
   66CHL1  H18A 7318   3.421   0.370   9.762 -0.5833 -0.1059  1.5440
   66CHL1  H18B 7319   3.387   0.191   9.735 -0.5852 -1.3929  2.2924
   66CHL1  H18C 7320   3.392   0.258   9.896 -0.7071  0.2623 -0.7816
   66CHL1   C12 7321   3.614   0.099   9.854  0.3144  0.2797 -0.3715
   66CHL1  H12A 7322   3.564   0.033   9.780 -0.5090  0.0659  0.3651
   66CHL1  H12B 7323   3.723   0.076   9.857  0.3428  0.3627 -0.7722
   66CHL1   C11 7324   3.567   0.074  10.000 -0.1012 -0.0696  0.0692
   66CHL1  H11A 7325   3.456   0.074  10.006 -0.0281 -0.4319  1.8241
   66CHL1  H11B 7326   3.601  -0.029  10.025 -2.1576 -0.4520  1.5328
   66CHL1    C9 7327   3.621   0.181  10.101  0.3103 -0.3344  0.6755
   66CHL1    H9 7328   3.732   0.175  10.097  0.3280  0.2303  0.0300
   66CHL1   C10 7329   3.586   0.153  10.253  1.3822  0.2149 -0.0494
   66CHL1   C19 7330   3.425   0.128  10.265  0.1002 -0.0041 -0.4050
   66CHL1  H19A 7331   3.369   0.212  10.218 -0.8798  0.8936  2.1919
   66CHL1  H19B 7332   3.388   0.035  10.217 -1.8911  1.0315 -0.9758
   66CHL1  H19C 7333   3.393   0.135  10.371 -0.2996  0.1623 -0.5362
   66CHL1    C1 7334   3.667   0.023  10.295  0.3229 -0.9810  0.4637
   66CHL1   H1A 7335   3.638  -0.056  10.223  0.9763  0.6330 -1.6885
   66CHL1   H1B 7336   3.769   0.060  10.271 -1.3218  2.6785 -1.7186
   66CHL1    C2 7337   3.649  -0.014  10.436 -0.1610 -0.5180 -0.1642
   66CHL1   H2A 7338   3.732  -0.086  10.455 -0.6648 -0.8039  1.0409
   66CHL1   H2B 7339   3.553  -0.056  10.472 -0.1517  0.4201  1.0313
   66CHL1   C20 7340   3.610   0.237   9.547 -0.1105 -0.4620  0.2357
   66CHL1   H20 7341   3.500   0.244   9.548 -0.1039 -0.2327 -0.2791
   66CHL1   C21 7342   3.656   0.094   9.523  0.4079  0.3030 -0.4000
   66CHL1  H21A 7343   3.559   0.047   9.550  0.6254 -0.3368 -0.7104
   66CHL1  H21B 7344   3.739   0.070   9.593 -1.1992  0.3844  1.6004
   66CHL1  H21C 7345   3.677   0.070   9.416  1.5331 -0.5871 -0.0103
   66CHL1   C22 7346   3.646   0.322   9.425 -0.6651 -0.7179  0.8019
   66CHL1  H22A 7347   3.599   0.274   9.337  0.5501  2.2517 -1.6614
   66CHL1  H22B 7348   3.601   0.424   9.433  0.1063 -0.3247  0.2490
   66CHL1   C23 7349   3.798   0.337   9.405  0.5457  0.5168 -0.4230
   66CHL1  H23A 7350   3.844   0.366   9.502  0.5083 -0.7584 -0.0111
   66CHL1  H23B 7351   3.837   0.239   9.372  0.4189 -0.1470  1.2804
   66CHL1   C24 7352   3.836   0.451   9.311  0.2831 -0.0545 -0.6397
   66CHL1  H24A 7353   3.774   0.535   9.348 -0.0638 -0.8781  0.7096
   66CHL1  H24B 7354   3.942   0.483   9.319  0.4899 -1.1553  3.3833
   66CHL1   C25 7355   3.812   0.426   9.158  0.4087  0.5123  0.0090
   66CHL1   H25 7356   3.710   0.392   9.130  0.9321  0.3050 -1.7439
   66CHL1   C26 7357   3.846   0.551   9.068 -0.9745 -0.4190 -0.3467
   66CHL1  H26A 7358   3.758   0.619   9.060  0.6092  1.7679 -0.1758
   66CHL1  H26B 7359   3.938   0.603   9.103  1.0751 -2.8739 -1.7159
   66CHL1  H26C 7360   3.864   0.516   8.964  1.5924 -0.1147 -0.0833
   66CHL1   C27 7361   3.903   0.306   9.112  0.2909 -0.3736 -0.0271
   66CHL1  H27A 7362   3.920   0.298   9.003  0.5779  0.3701 -0.0416
   66CHL1  H27B 7363   4.005   0.323   9.154  0.0389  2.3207 -0.3323
   66CHL1  H27C 7364   3.864   0.209   9.150 -0.9134 -0.8003 -2.1849
   67CHL1    C3 7365   0.882   1.193  10.179 -0.0761 -0.3973  0.1616
   67CHL1    H3 7366   0.975   1.253  10.169 -1.7112  2.3516  0.3805
   67CHL1    O3 7367   0.854   1.156  10.316  0.4225  0.3291 -0.4568
   67CHL1   H3' 7368   0.795   1.225  10.349  0.6447  0.3715 -0.1427
   67CHL1    C4 7369   0.765   1.291  10.134  0.3367 -0.1774  0.4472
   67CHL1   H4A 7370   0.667   1.244  10.157 -0.2566  1.4374  1.4306
   67CHL1   H4B 7371   0.770   1.378  10.203 -4.4778  0.0713  0.7985
   67CHL1    C5 7372   0.768   1.337   9.985 -0.1751  0.3583  0.0460
   67CHL1    C6 7373   0.762   1.463   9.948 -0.1572 -0.7471 -0.3657
   67CHL1    H6 7374   0.757   1.542  10.024 -0.1641  0.3952 -1.5020
   67CHL1    C7 7375   0.759   1.512   9.809 -0.3645 -0.2969 -0.0186
   67CHL1   H7A 7376   0.680   1.590   9.805 -1.4769 -1.3579  0.6417
   67CHL1   H7B 7377   0.855   1.565   9.791 -0.7223  0.5572  0.5085
   67CHL1    C8 7378   0.719   1.402   9.705 -0.5644  0.0906 -0.5703
   67CHL1    H8 7379   0.610   1.383   9.708 -0.7999  0.5947 -3.0241
   67CHL1   C14 7380   0.758   1.453   9.563 -0.1982  0.1889 -0.7888
   67CHL1   H14 7381   0.863   1.489   9.561 -0.5799  1.3425 -0.5330
   67CHL1   C15 7382   0.680   1.568   9.505  0.0404  0.1222 -0.3545
   67CHL1  H15A 7383   0.573   1.565   9.535  0.3231  3.8437  1.5803
   67CHL1  H15B 7384   0.725   1.663   9.540  0.5257 -0.3009  0.1871
   67CHL1   C16 7385   0.688   1.554   9.353 -0.0303 -0.4697  0.3354
   67CHL1  H16A 7386   0.586   1.544   9.309  0.5239 -1.9000 -0.6907
   67CHL1  H16B 7387   0.735   1.647   9.313  0.1050 -0.5000  0.4245
   67CHL1   C17 7388   0.754   1.421   9.328 -0.3022  0.4360  1.5810
   67CHL1   H17 7389   0.865   1.430   9.326 -0.2419  0.2193 -1.4086
   67CHL1   C13 7390   0.734   1.342   9.459 -1.0788  0.5336 -0.2432
   67CHL1   C18 7391   0.584   1.284   9.454 -0.1486 -0.9877 -0.2875
   67CHL1  H18A 7392   0.555   1.241   9.356 -0.2254 -1.8040  0.0911
   67CHL1  H18B 7393   0.569   1.214   9.538  0.6267  0.8081  1.4310
   67CHL1  H18C 7394   0.508   1.362   9.474  1.0060  0.1167 -0.0318
   67CHL1   C12 7395   0.826   1.224   9.488 -0.5883 -0.4153  0.2775
   67CHL1  H12A 7396   0.795   1.148   9.413  0.0384  1.5563 -2.1210
   67CHL1  H12B 7397   0.930   1.257   9.467 -0.9936  0.2487 -0.7673
   67CHL1   C11 7398   0.834   1.175   9.632 -0.2801  0.4779  0.7301
   67CHL1  H11A 7399   0.760   1.094   9.650  0.0564 -0.5440 -2.0299
   67CHL1  H11B 7400   0.928   1.121   9.657  0.4471  1.3779  0.0184
   67CHL1    C9 7401   0.815   1.280   9.743  0.0779  0.1158  0.5645
   67CHL1    H9 7402   0.913   1.332   9.743 -1.0345  2.3632 -0.7448
   67CHL1   C10 7403   0.783   1.222   9.878 -0.0986 -0.4092  0.5357
   67CHL1   C19 7404   0.640   1.151   9.873 -0.3837  0.0285 -0.1656
   67CHL1  H19A 7405   0.613   1.115   9.975  0.1677  1.1852  0.4009
   67CHL1  H19B 7406   0.560   1.222   9.845 -0.9111  0.9126  3.1772
   67CHL1  H19C 7407   0.653   1.065   9.804  0.2959  0.2061 -0.2637
   67CHL1    C1 7408   0.898   1.120   9.929  0.3451 -0.0972 -0.0172
   67CHL1   H1A 7409   0.910   1.034   9.860  3.0745 -0.4772  0.7799
   67CHL1   H1B 7410   0.991   1.181   9.931  0.9487 -0.9886  1.1728
   67CHL1    C2 7411   0.887   1.076  10.076  0.0969  0.1243  1.0569
   67CHL1   H2A 7412   0.970   1.010  10.107 -0.0546 -0.6313 -0.0693
   67CHL1   H2B 7413   0.790   1.021  10.072 -1.3331  2.5345 -1.1535
   67CHL1   C20 7414   0.728   1.355   9.184  0.3224 -0.1816 -0.0619
   67CHL1   H20 7415   0.618   1.338   9.176  0.2081  0.1317  0.7549
   67CHL1   C21 7416   0.797   1.220   9.171  0.4660 -0.4599 -0.5682
   67CHL1  H21A 7417   0.789   1.185   9.066  1.4770 -1.0141 -0.4684
   67CHL1  H21B 7418   0.749   1.142   9.233  0.4904  0.1436  0.2351
   67CHL1  H21C 7419   0.904   1.233   9.197  0.1603  1.1723 -0.0016
   67CHL1   C22 7420   0.776   1.438   9.061  0.6226 -0.3134  0.4116
   67CHL1  H22A 7421   0.764   1.547   9.080 -0.3552 -0.4298  0.4950
   67CHL1  H22B 7422   0.884   1.429   9.037  0.6596  0.7328  0.1513
   67CHL1   C23 7423   0.685   1.411   8.939  0.2215 -0.4635 -0.5507
   67CHL1  H23A 7424   0.708   1.307   8.909 -0.4116 -0.4099 -1.2743
   67CHL1  H23B 7425   0.578   1.418   8.967 -0.0401 -0.2891 -1.5483
   67CHL1   C24 7426   0.722   1.491   8.823  0.3104  0.4941  0.1143
   67CHL1  H24A 7427   0.700   1.598   8.839 -0.2452  0.5609 -0.9849
   67CHL1  H24B 7428   0.830   1.482   8.799  0.2087  1.1193 -0.6055
   67CHL1   C25 7429   0.641   1.460   8.692 -0.3115  0.0411 -0.7206
   67CHL1   H25 7430   0.666   1.551   8.633 -0.4340  0.9517  0.5716
   67CHL1   C26 7431   0.670   1.327   8.626  0.0217 -0.2721 -0.0974
   67CHL1  H26A 7432   0.771   1.320   8.580  0.3708  0.5591  0.5130
   67CHL1  H26B 7433   0.671   1.245   8.700  1.8661  1.7083  2.2405
   67CHL1  H26C 7434   0.600   1.317   8.541  0.3840  1.0018 -0.5711
   67CHL1   C27 7435   0.488   1.470   8.718 -0.0823 -0.0058 -0.0388
   67CHL1  H27A 7436   0.462   1.375   8.769 -0.4293 -0.1840 -0.5480
   67CHL1  H27B 7437   0.461   1.555   8.785 -0.0186 -1.9181  2.6043
   67CHL1  H27C 7438   0.425   1.480   8.628 -0.2036  0.4266  0.0937
   68CHL1    C3 7439   4.687   1.406  10.251 -0.3939 -0.2157  0.3455
   68CHL1    H3 7440   4.714   1.513  10.236 -3.2307  0.8497  2.1177
   68CHL1    O3 7441   4.651   1.389  10.391  0.5483  0.3881  0.4239
   68CHL1   H3' 7442   4.682   1.303  10.419 -0.5450  0.4146  1.8040
   68CHL1    C4 7443   4.586   1.356  10.148 -0.1654 -0.1827  0.3015
   68CHL1   H4A 7444   4.555   1.256  10.185 -1.3974 -0.2926 -0.9549
   68CHL1   H4B 7445   4.501   1.428  10.159 -0.1059 -0.1211  0.3646
   68CHL1    C5 7446   4.639   1.349  10.007 -0.6966  0.1445  0.8212
   68CHL1    C6 7447   4.586   1.412   9.907  0.0964 -0.7952 -0.2573
   68CHL1    H6 7448   4.494   1.470   9.923  0.6969 -0.0785  0.7472
   68CHL1    C7 7449   4.624   1.406   9.765  0.5103  0.5560  0.2183
   68CHL1   H7A 7450   4.533   1.376   9.707  0.6905  0.3764  0.0218
   68CHL1   H7B 7451   4.666   1.498   9.720 -0.3139  0.0868 -1.6306
   68CHL1    C8 7452   4.722   1.291   9.732  0.1413 -0.4290  0.4597
   68CHL1    H8 7453   4.662   1.198   9.719  1.0631 -0.9779  0.0384
   68CHL1   C14 7454   4.791   1.315   9.594  0.0061  0.0042  0.1379
   68CHL1   H14 7455   4.848   1.408   9.616  0.5842 -0.3365  0.1178
   68CHL1   C15 7456   4.716   1.356   9.460  0.0135 -0.1149 -0.6272
   68CHL1  H15A 7457   4.636   1.279   9.450  0.5356 -0.7781  0.1965
   68CHL1  H15B 7458   4.687   1.463   9.452  3.3026  0.8298 -1.5553
   68CHL1   C16 7459   4.823   1.323   9.353  0.7015 -0.4679 -0.8496
   68CHL1  H16A 7460   4.801   1.235   9.289 -0.3441 -0.7158 -0.1673
   68CHL1  H16B 7461   4.820   1.409   9.283  1.5348 -2.1642 -3.1150
   68CHL1   C17 7462   4.956   1.294   9.427 -1.0331  0.2939 -1.0212
   68CHL1   H17 7463   5.002   1.386   9.469 -0.3368 -1.5097  2.4647
   68CHL1   C13 7464   4.905   1.220   9.558  0.0831 -0.0793  0.5075
   68CHL1   C18 7465   4.849   1.077   9.522  0.2913  0.5407 -0.4720
   68CHL1  H18A 7466   4.808   1.066   9.419 -0.9164  2.1571 -0.2122
   68CHL1  H18B 7467   4.931   1.003   9.530 -0.5211 -0.2135  1.3364
   68CHL1  H18C 7468   4.766   1.049   9.590  1.1122 -2.8602 -0.7237
   68CHL1   C12 7469   5.001   1.208   9.679  0.8362 -0.3890 -0.0896
   68CHL1  H12A 7470   5.078   1.131   9.657  0.3170 -0.7308 -0.7412
   68CHL1  H12B 7471   5.056   1.304   9.689  1.0738 -0.4719 -0.5608
   68CHL1   C11 7472   4.932   1.168   9.812 -0.9632 -0.1328  0.6507
   68CHL1  H11A 7473   4.881   1.069   9.806  0.2864 -0.7397 -0.4443
   68CHL1  H11B 7474   5.009   1.159   9.891  0.5871  0.1147 -0.7870
   68CHL1    C9 7475   4.824   1.273   9.846  0.4512 -0.2659 -0.2394
   68CHL1    H9 7476   4.879   1.370   9.852  1.0696 -0.5045 -1.5915
   68CHL1   C10 7477   4.764   1.261   9.985  0.4147 -0.0458 -0.2718
   68CHL1   C19 7478   4.720   1.110  10.010 -0.6390 -0.3293 -0.4719
   68CHL1  H19A 7479   4.800   1.036   9.987  0.1013  0.9402 -2.1536
   68CHL1  H19B 7480   4.690   1.092  10.116  2.4827 -1.1667  0.3872
   68CHL1  H19C 7481   4.636   1.080   9.944 -0.5796  1.1608 -1.2790
   68CHL1    C1 7482   4.861   1.312  10.097 -0.0541 -0.4615  0.1219
   68CHL1   H1A 7483   4.947   1.245  10.116 -0.9168 -0.9540  2.8335
   68CHL1   H1B 7484   4.906   1.410  10.071  0.1186 -0.2869  1.0197
   68CHL1    C2 7485   4.806   1.316  10.239 -0.3615 -0.5134 -0.4062
   68CHL1   H2A 7486   4.888   1.332  10.313 -0.9909  0.0634  0.1878
   68CHL1   H2B 7487   4.775   1.214  10.269  0.8274 -1.1851 -1.3571
   68CHL1   C20 7488   5.060   1.227   9.332  0.4641  0.3690  0.2257
   68CHL1   H20 7489   5.017   1.129   9.303  0.0220  0.9837 -1.3350
   68CHL1   C21 7490   5.193   1.205   9.399 -0.7069 -0.2030  0.0333
   68CHL1  H21A 7491   5.176   1.112   9.459  1.2214 -1.5274 -1.3674
   68CHL1  H21B 7492   5.207   1.286   9.473 -0.8274  0.4161 -0.6156
   68CHL1  H21C 7493   5.278   1.177   9.334 -0.7813  0.4632 -0.3570
   68CHL1   C22 7494   5.077   1.306   9.202  0.1545 -0.7473  0.4476
   68CHL1  H22A 7495   4.986   1.352   9.157 -0.2236 -1.4781  0.4420
   68CHL1  H22B 7496   5.142   1.393   9.222 -1.5061  0.6524  0.0522
   68CHL1   C23 7497   5.151   1.238   9.085  0.3572  0.1679  0.3422
   68CHL1  H23A 7498   5.250   1.204   9.123  1.3900  1.5480 -0.9592
   68CHL1  H23B 7499   5.088   1.151   9.057  0.6492 -0.7278  2.3034
   68CHL1   C24 7500   5.166   1.332   8.962 -0.1700 -0.1148  0.3069
   68CHL1  H24A 7501   5.062   1.343   8.925 -1.1715 -0.7735  2.7163
   68CHL1  H24B 7502   5.197   1.436   8.987 -5.7064  1.3316  2.7080
   68CHL1   C25 7503   5.248   1.277   8.841  0.1581  0.0978 -0.2910
   68CHL1   H25 7504   5.226   1.171   8.820 -0.6305  0.4774 -1.4845
   68CHL1   C26 7505   5.230   1.368   8.717 -0.3540 -0.2924 -0.0039
   68CHL1  H26A 7506   5.127   1.369   8.677 -1.2216 -1.0855  2.0649
   68CHL1  H26B 7507   5.274   1.468   8.740 -0.6210  0.3911 -2.2404
   68CHL1  H26C 7508   5.293   1.323   8.637  0.5334 -0.2576  0.6540
   68CHL1   C27 7509   5.399   1.271   8.882  0.2974 -0.0361 -0.0882
   68CHL1  H27A 7510   5.466   1.252   8.795  0.6099  0.0722  0.1266
   68CHL1  H27B 7511   5.433   1.366   8.929 -0.2825  0.1111  0.0396
   68CHL1  H27C 7512   5.417   1.188   8.953  0.3213 -0.5482 -0.6847
   69CHL1    C3 7513   0.119   0.777   6.868  0.0097 -0.4643  0.1903
   69CHL1    H3 7514   0.150   0.883   6.884  2.4172 -1.3348  1.7369
   69CHL1    O3 7515   0.103   0.751   6.725 -0.4626  0.5237  0.3100
   69CHL1   H3' 7516   0.191   0.730   6.694 -0.2218 -2.1842  2.5108
   69CHL1    C4 7517   0.220   0.689   6.935  0.2744  0.3115  0.6999
   69CHL1   H4A 7518   0.184   0.584   6.925 -0.2382  0.4202  1.3243
   69CHL1   H4B 7519   0.318   0.711   6.889 -0.6097  0.0076 -1.4708
   69CHL1    C5 7520   0.231   0.718   7.082  0.1659 -0.4780 -0.2360
   69CHL1    C6 7521   0.351   0.748   7.134  0.0797  0.1819 -0.7327
   69CHL1    H6 7522   0.432   0.753   7.059  0.2469  0.4518 -0.5355
   69CHL1    C7 7523   0.383   0.768   7.276 -0.3767 -0.4747 -0.6712
   69CHL1   H7A 7524   0.476   0.713   7.304 -0.7364 -0.7780 -0.0791
   69CHL1   H7B 7525   0.411   0.872   7.304  0.3550 -1.2006  1.5051
   69CHL1    C8 7526   0.269   0.727   7.367  0.4649  0.5040  0.7901
   69CHL1    H8 7527   0.283   0.621   7.396  0.3409  0.5552  1.0462
   69CHL1   C14 7528   0.269   0.798   7.506 -0.3398  0.2048  0.6558
   69CHL1   H14 7529   0.254   0.907   7.489  0.1375  0.0328 -1.0131
   69CHL1   C15 7530   0.401   0.796   7.587 -0.5871  0.1284 -0.1619
   69CHL1  H15A 7531   0.450   0.696   7.587  0.2538  0.5324  0.5966
   69CHL1  H15B 7532   0.474   0.870   7.549 -0.2531 -0.7828 -1.3591
   69CHL1   C16 7533   0.360   0.843   7.731  0.2660  0.7501  0.4479
   69CHL1  H16A 7534   0.382   0.761   7.803 -2.2734 -2.3491 -2.0088
   69CHL1  H16B 7535   0.409   0.941   7.748  1.2195  0.0930  1.6716
   69CHL1   C17 7536   0.204   0.850   7.727 -0.6958 -0.3116  0.0174
   69CHL1   H17 7537   0.197   0.956   7.693  1.4307 -0.4467 -0.9921
   69CHL1   C13 7538   0.166   0.757   7.606  0.0643 -0.0293 -0.8585
   69CHL1   C18 7539   0.164   0.609   7.638 -0.4910  0.3251 -0.6972
   69CHL1  H18A 7540   0.255   0.578   7.695 -0.9138  0.0593 -0.1565
   69CHL1  H18B 7541   0.084   0.576   7.708  2.2016  0.9744  3.0464
   69CHL1  H18C 7542   0.157   0.557   7.541  1.1322  1.4747 -1.4826
   69CHL1   C12 7543   0.028   0.793   7.546 -0.2982  0.2716  0.3054
   69CHL1  H12A 7544  -0.051   0.757   7.615  0.0460 -0.8725  0.1300
   69CHL1  H12B 7545   0.034   0.904   7.552  1.3078  0.2832 -0.7622
   69CHL1   C11 7546   0.014   0.733   7.404 -0.7879 -0.0842 -0.7490
   69CHL1  H11A 7547  -0.009   0.627   7.429  0.3613 -0.4123 -0.9966
   69CHL1  H11B 7548  -0.084   0.764   7.362 -0.7895  0.1664 -0.5639
   69CHL1    C9 7549   0.134   0.767   7.312  0.5755  0.3631 -0.2510
   69CHL1    H9 7550   0.133   0.877   7.297  2.9092  0.5340  0.4536
   69CHL1   C10 7551   0.106   0.709   7.169 -0.1913  0.0648 -0.0955
   69CHL1   C19 7552   0.084   0.555   7.186  0.5929 -0.0563 -0.0912
   69CHL1  H19A 7553   0.166   0.506   7.241 -0.3387  1.5253  2.9087
   69CHL1  H19B 7554  -0.007   0.544   7.248  1.6360 -0.4233  1.4178
   69CHL1  H19C 7555   0.070   0.507   7.087 -0.9782  0.1209  0.0098
   69CHL1    C1 7556  -0.011   0.790   7.090 -0.6027  0.3464 -0.5891
   69CHL1   H1A 7557  -0.106   0.788   7.148 -0.1846 -0.8281  0.0829
   69CHL1   H1B 7558   0.027   0.893   7.108  0.2374 -0.4904  3.4271
   69CHL1    C2 7559  -0.017   0.748   6.939  0.6033 -0.1327 -0.1937
   69CHL1   H2A 7560  -0.102   0.786   6.879  1.7698 -0.5133 -2.1954
   69CHL1   H2B 7561  -0.047   0.642   6.925 -1.3555  0.3754 -0.1855
   69CHL1   C20 7562   0.120   0.844   7.861 -0.4517  0.5042  0.4634
   69CHL1   H20 7563   0.011   0.828   7.848 -0.6207  0.1286  2.0658
   69CHL1   C21 7564   0.135   0.972   7.926 -0.5935  0.4144  0.4424
   69CHL1  H21A 7565   0.242   0.992   7.948  0.2263 -0.6125 -2.2183
   69CHL1  H21B 7566   0.067   0.974   8.014  1.1234 -1.5332  1.8972
   69CHL1  H21C 7567   0.101   1.050   7.855 -1.2760  0.2566  0.5867
   69CHL1   C22 7568   0.164   0.725   7.956 -0.3458 -0.4339  0.4565
   69CHL1  H22A 7569   0.154   0.637   7.889  1.1006 -0.0106 -0.3624
   69CHL1  H22B 7570   0.273   0.732   7.981 -0.1157 -0.2582 -0.5770
   69CHL1   C23 7571   0.054   0.696   8.060  0.2402 -0.1446 -0.2520
   69CHL1  H23A 7572   0.035   0.776   8.136  0.8302  0.6702 -0.9421
   69CHL1  H23B 7573  -0.042   0.680   8.006  0.5388 -0.9526 -0.5500
   69CHL1   C24 7574   0.066   0.557   8.137 -0.3516  0.0846 -0.3640
   69CHL1  H24A 7575  -0.034   0.534   8.179 -0.5573 -1.5300 -1.6490
   69CHL1  H24B 7576   0.085   0.473   8.066 -1.6712 -0.2648 -0.3336
   69CHL1   C25 7577   0.179   0.545   8.245 -0.0792 -0.9072 -0.2400
   69CHL1   H25 7578   0.168   0.627   8.318 -0.4665 -0.4943 -0.7522
   69CHL1   C26 7579   0.165   0.408   8.310 -0.3648  0.0768 -0.1958
   69CHL1  H26A 7580   0.059   0.390   8.339  0.5396 -2.0405  2.1859
   69CHL1  H26B 7581   0.195   0.321   8.248  2.0058  1.0807 -0.5505
   69CHL1  H26C 7582   0.225   0.396   8.402 -0.7268 -1.1636 -0.0994
   69CHL1   C27 7583   0.321   0.558   8.191  0.4253  0.0548 -0.3770
   69CHL1  H27A 7584   0.345   0.494   8.103  3.2356 -0.1698  0.4614
   69CHL1  H27B 7585   0.337   0.662   8.155  3.3580 -0.8071 -1.9107
   69CHL1  H27C 7586   0.394   0.525   8.269 -1.6306 -0.4474  1.4435
   70CHL1    C3 7587   5.400   3.537   7.052  0.9007 -0.3268 -0.0317
   70CHL1    H3 7588   5.443   3.436   7.070  0.4672 -0.8846 -1.8853
   70CHL1    O3 7589   5.365   3.545   6.913  0.0271  0.4766 -0.2319
   70CHL1   H3' 7590   5.443   3.527   6.861  0.0563 -3.6684  0.8707
   70CHL1    C4 7591   5.273   3.557   7.141  0.0184  0.2584  0.1616
   70CHL1   H4A 7592   5.228   3.657   7.122  1.0555  0.8891  0.9349
   70CHL1   H4B 7593   5.193   3.486   7.111 -0.5473  1.8062 -2.3679
   70CHL1    C5 7594   5.305   3.545   7.293  0.2835 -0.6109 -0.3287
   70CHL1    C6 7595   5.261   3.440   7.373 -0.4522  0.4666 -0.0857
   70CHL1    H6 7596   5.202   3.360   7.324 -1.2994  0.4445  0.9245
   70CHL1    C7 7597   5.311   3.432   7.514  0.0153  0.1441  0.3837
   70CHL1   H7A 7598   5.233   3.382   7.574  1.5668 -2.3583  0.4461
   70CHL1   H7B 7599   5.397   3.361   7.516  0.3584  0.5015 -0.6852
   70CHL1    C8 7600   5.342   3.572   7.568 -0.2137  0.3583  0.6703
   70CHL1    H8 7601   5.247   3.630   7.574  0.6790  2.0571 -0.7213
   70CHL1   C14 7602   5.412   3.550   7.704 -0.7707 -0.6203 -0.4690
   70CHL1   H14 7603   5.506   3.496   7.681  0.9158  0.8399  2.4613
   70CHL1   C15 7604   5.344   3.458   7.808  0.2504  0.0181  0.8949
   70CHL1  H15A 7605   5.234   3.471   7.805  0.1199 -1.0869 -0.7705
   70CHL1  H15B 7606   5.361   3.355   7.770 -2.0543  0.2348 -0.9392
   70CHL1   C16 7607   5.421   3.493   7.939  0.5904 -0.1650 -0.6754
   70CHL1  H16A 7608   5.338   3.500   8.013  1.3772 -1.5459  0.4003
   70CHL1  H16B 7609   5.492   3.411   7.962 -0.2394 -0.4714  0.9480
   70CHL1   C17 7610   5.503   3.627   7.920  0.0611 -0.1560  0.0813
   70CHL1   H17 7611   5.609   3.595   7.910 -0.0903 -0.5184 -0.3785
   70CHL1   C13 7612   5.454   3.674   7.782 -0.0752 -0.1968  0.1739
   70CHL1   C18 7613   5.330   3.766   7.794  0.2513 -0.1283  0.5772
   70CHL1  H18A 7614   5.353   3.866   7.836 -0.6073  0.4432 -0.2764
   70CHL1  H18B 7615   5.280   3.795   7.699 -2.1684 -0.0863  1.8118
   70CHL1  H18C 7616   5.251   3.721   7.857  1.1239 -1.2810  0.8816
   70CHL1   C12 7617   5.566   3.737   7.693  1.1893  0.1958 -0.8990
   70CHL1  H12A 7618   5.603   3.832   7.737 -0.8765  1.9061 -2.6159
   70CHL1  H12B 7619   5.647   3.662   7.689  0.0023 -1.3379  1.4956
   70CHL1   C11 7620   5.523   3.762   7.548 -0.1729 -0.1654 -0.0401
   70CHL1  H11A 7621   5.452   3.848   7.556 -0.5252 -0.5300  1.1276
   70CHL1  H11B 7622   5.606   3.801   7.487 -1.3998  1.0438 -1.0003
   70CHL1    C9 7623   5.443   3.637   7.482  0.6468  0.2375 -0.6033
   70CHL1    H9 7624   5.525   3.561   7.474  0.4952 -0.0477  0.4171
   70CHL1   C10 7625   5.396   3.661   7.338  0.1358 -0.5768 -0.2337
   70CHL1   C19 7626   5.312   3.788   7.336  0.1317  0.3860  0.7730
   70CHL1  H19A 7627   5.263   3.815   7.240 -0.9285  1.1743  1.5217
   70CHL1  H19B 7628   5.221   3.779   7.399 -0.1682  0.9821  0.4357
   70CHL1  H19C 7629   5.374   3.878   7.362  3.0733 -0.7256 -1.7182
   70CHL1    C1 7630   5.523   3.668   7.239 -0.5825  0.5342 -0.3289
   70CHL1   H1A 7631   5.568   3.766   7.265 -1.3770  0.6271  0.7640
   70CHL1   H1B 7632   5.593   3.586   7.266  0.7649  1.8455  0.3018
   70CHL1    C2 7633   5.491   3.654   7.090  0.1354 -0.1927 -0.5363
   70CHL1   H2A 7634   5.582   3.646   7.028  0.9587  0.4936  0.5462
   70CHL1   H2B 7635   5.442   3.748   7.058 -1.1577 -0.5606  0.2810
   70CHL1   C20 7636   5.481   3.717   8.039  0.1941 -0.7139  0.7211
   70CHL1   H20 7637   5.378   3.757   8.031  1.1085  1.3784 -3.5246
   70CHL1   C21 7638   5.577   3.841   8.034  0.5901 -0.2777 -0.5608
   70CHL1  H21A 7639   5.550   3.902   8.123 -0.6058 -0.4895 -0.7670
   70CHL1  H21B 7640   5.569   3.906   7.944  1.5622  0.3806 -0.1946
   70CHL1  H21C 7641   5.678   3.795   8.033  0.8173  0.1567  0.5510
   70CHL1   C22 7642   5.503   3.642   8.172  0.6476  0.0594 -0.0767
   70CHL1  H22A 7643   5.407   3.588   8.188 -0.7782  2.9987  2.4900
   70CHL1  H22B 7644   5.587   3.571   8.157 -1.3322 -2.0749 -1.6812
   70CHL1   C23 7645   5.542   3.725   8.301 -0.1890 -0.2052  0.0081
   70CHL1  H23A 7646   5.642   3.769   8.281 -0.7748  1.0751 -0.2097
   70CHL1  H23B 7647   5.466   3.802   8.325  0.7338  0.7544 -0.0630
   70CHL1   C24 7648   5.558   3.635   8.425  0.1330 -0.3366 -0.8203
   70CHL1  H24A 7649   5.465   3.575   8.431 -0.0960  0.1180  0.4533
   70CHL1  H24B 7650   5.640   3.561   8.422  0.6885  0.2789 -1.3039
   70CHL1   C25 7651   5.570   3.710   8.560 -0.7756 -0.4083 -0.5776
   70CHL1   H25 7652   5.470   3.755   8.574  0.8626  2.9325  1.8163
   70CHL1   C26 7653   5.591   3.609   8.678 -0.3281 -0.3959  0.6509
   70CHL1  H26A 7654   5.516   3.529   8.696 -2.2360  0.8497 -1.1904
   70CHL1  H26B 7655   5.686   3.554   8.657 -0.6599 -0.4926 -0.6793
   70CHL1  H26C 7656   5.609   3.668   8.770 -0.7586 -1.1100  1.2042
   70CHL1   C27 7657   5.676   3.820   8.563 -0.3163  0.1806 -0.3862
   70CHL1  H27A 7658   5.645   3.893   8.641  0.1244  3.6666 -3.2431
   70CHL1  H27B 7659   5.769   3.768   8.594  0.1864 -1.0345 -3.5148
   70CHL1  H27C 7660   5.700   3.870   8.467  1.0409  0.1134 -0.0952
   71CHL1    C3 7661   6.197   5.921   6.778 -0.3587 -0.0509 -1.1825
   71CHL1    H3 7662   6.233   6.025   6.781 -3.8166  1.2739  0.9963
   71CHL1    O3 7663   6.196   5.872   6.646  0.3399  0.0076  0.5467
   71CHL1   H3' 7664   6.147   5.937   6.594 -1.7285 -1.1743  0.9148
   71CHL1    C4 7665   6.282   5.836   6.873  0.7777 -0.2295 -0.4071
   71CHL1   H4A 7666   6.254   5.729   6.871 -1.6541  0.2659  1.5847
   71CHL1   H4B 7667   6.384   5.842   6.829  0.5274  1.2898 -0.8480
   71CHL1    C5 7668   6.271   5.893   7.013 -0.3328  0.5292  0.1562
   71CHL1    C6 7669   6.382   5.925   7.081 -0.2580  0.5602 -0.6862
   71CHL1    H6 7670   6.481   5.906   7.037  0.2796  0.5812  0.4829
   71CHL1    C7 7671   6.388   5.990   7.223 -0.2511 -0.6612  0.0674
   71CHL1   H7A 7672   6.455   5.930   7.288  2.1824  0.8165 -0.9604
   71CHL1   H7B 7673   6.430   6.093   7.220  0.9722 -1.1503 -0.0368
   71CHL1    C8 7674   6.255   5.996   7.296 -0.5445  0.3247 -0.6781
   71CHL1    H8 7675   6.241   5.894   7.337  2.5621 -0.8564 -2.1616
   71CHL1   C14 7676   6.239   6.096   7.407  0.2891  0.6691 -1.2381
   71CHL1   H14 7677   6.249   6.190   7.350  0.3829  2.2755  1.2765
   71CHL1   C15 7678   6.352   6.107   7.516 -0.2600  0.1047 -0.3076
   71CHL1  H15A 7679   6.380   6.008   7.559 -0.7744  1.4215  3.3344
   71CHL1  H15B 7680   6.439   6.169   7.486  0.4541  0.7623  2.8234
   71CHL1   C16 7681   6.286   6.191   7.630  0.4399 -0.0710  0.9394
   71CHL1  H16A 7682   6.296   6.139   7.728  0.6797 -0.6697  0.6002
   71CHL1  H16B 7683   6.326   6.295   7.636 -0.7615  0.4906 -0.4391
   71CHL1   C17 7684   6.129   6.205   7.599  0.4606 -0.5857  0.1040
   71CHL1   H17 7685   6.106   6.303   7.552 -0.0270 -0.6638  0.1828
   71CHL1   C13 7686   6.104   6.096   7.486 -0.7698 -0.1302 -0.4097
   71CHL1   C18 7687   6.073   5.953   7.543  0.5868 -0.2392  0.5914
   71CHL1  H18A 7688   6.070   5.873   7.466  2.9403 -2.3243  2.4844
   71CHL1  H18B 7689   6.148   5.912   7.614  0.2727 -2.5974 -0.3655
   71CHL1  H18C 7690   5.975   5.957   7.595 -0.0096  0.6806 -0.5454
   71CHL1   C12 7691   5.991   6.128   7.389  0.0721 -0.6190 -0.0991
   71CHL1  H12A 7692   5.888   6.108   7.426 -0.2696  1.7303  0.3890
   71CHL1  H12B 7693   5.997   6.236   7.364  0.5046 -0.8172 -0.8562
   71CHL1   C11 7694   5.995   6.044   7.263 -0.4219 -0.1759  0.0367
   71CHL1  H11A 7695   5.948   5.946   7.283  0.1427 -0.5274 -0.3449
   71CHL1  H11B 7696   5.937   6.099   7.185  1.1531 -2.6055 -3.0928
   71CHL1    C9 7697   6.137   6.014   7.198 -1.0304 -0.1911 -0.4832
   71CHL1    H9 7698   6.158   6.112   7.151 -1.8677 -0.6524 -1.8762
   71CHL1   C10 7699   6.133   5.918   7.070 -0.1563 -0.0753  0.0534
   71CHL1   C19 7700   6.072   5.778   7.099 -0.2510 -0.6423  0.3675
   71CHL1  H19A 7701   6.075   5.712   7.010  0.6650 -1.4350  0.9705
   71CHL1  H19B 7702   6.116   5.719   7.182  1.2613 -1.7460 -1.1514
   71CHL1  H19C 7703   5.964   5.797   7.121  0.1794  1.1295  1.0751
   71CHL1    C1 7704   6.040   5.988   6.962 -0.4201 -0.3234 -0.2020
   71CHL1   H1A 7705   5.934   5.963   6.988 -0.9221  1.1117 -0.7639
   71CHL1   H1B 7706   6.056   6.098   6.958  1.8088 -0.5049  1.6902
   71CHL1    C2 7707   6.052   5.924   6.819 -0.1541  0.3690 -0.6907
   71CHL1   H2A 7708   5.987   5.969   6.741  0.5204  2.1343 -0.2819
   71CHL1   H2B 7709   6.012   5.820   6.822  0.8408 -0.0251 -0.8008
   71CHL1   C20 7710   6.042   6.200   7.722  0.4338  0.5333 -0.7553
   71CHL1   H20 7711   6.048   6.094   7.756  3.0113  0.5881 -0.9165
   71CHL1   C21 7712   5.896   6.244   7.680  0.3281 -0.1509  0.7992
   71CHL1  H21A 7713   5.832   6.245   7.771 -1.5551 -2.5991 -0.3734
   71CHL1  H21B 7714   5.841   6.188   7.601  0.6672  0.0321  0.4259
   71CHL1  H21C 7715   5.887   6.351   7.651 -0.5304 -0.5099 -0.3578
   71CHL1   C22 7716   6.086   6.280   7.853 -0.0725 -0.8431  0.3006
   71CHL1  H22A 7717   6.188   6.242   7.877 -0.3737 -1.3577  0.8051
   71CHL1  H22B 7718   6.102   6.388   7.837  2.5101 -1.0564  0.9096
   71CHL1   C23 7719   5.999   6.236   7.974 -0.1462  0.4167 -0.1180
   71CHL1  H23A 7720   5.898   6.280   7.963 -0.5799  0.5393  3.2783
   71CHL1  H23B 7721   5.981   6.127   7.965 -0.6342  0.4927 -0.0679
   71CHL1   C24 7722   6.075   6.248   8.113  0.1060 -0.9029 -0.1172
   71CHL1  H24A 7723   6.176   6.215   8.083  0.2917  0.7185 -1.4277
   71CHL1  H24B 7724   6.072   6.354   8.146 -0.9431 -0.9292 -0.1071
   71CHL1   C25 7725   6.033   6.171   8.235  0.2700  0.1466 -0.4812
   71CHL1   H25 7726   6.045   6.062   8.218 -0.5457 -0.1993  0.9945
   71CHL1   C26 7727   6.119   6.212   8.361  0.7324 -0.0719  0.0976
   71CHL1  H26A 7728   6.213   6.153   8.356  0.0344 -1.1849 -3.9848
   71CHL1  H26B 7729   6.141   6.320   8.349 -0.2580 -0.0351 -1.8405
   71CHL1  H26C 7730   6.057   6.191   8.451  0.4635 -0.6139 -0.2048
   71CHL1   C27 7731   5.880   6.194   8.274 -0.0089  0.1691  0.0386
   71CHL1  H27A 7732   5.854   6.150   8.372 -1.2907 -0.8291 -0.7159
   71CHL1  H27B 7733   5.856   6.302   8.284 -1.5088 -0.3322  2.7918
   71CHL1  H27C 7734   5.814   6.154   8.194 -0.6926  0.3765  0.4874
   72CHL1    C3 7735   5.449   4.227   7.151  0.4027  0.1076  0.3281
   72CHL1    H3 7736   5.357   4.286   7.174 -0.8558 -1.6718  0.0049
   72CHL1    O3 7737   5.454   4.198   7.010  0.5282 -0.2040  0.5138
   72CHL1   H3' 7738   5.527   4.250   6.975  0.0384  0.8334  0.9942
   72CHL1    C4 7739   5.579   4.294   7.198 -0.4410  0.2216 -0.0912
   72CHL1   H4A 7740   5.652   4.213   7.175 -1.5309 -0.8857  0.2684
   72CHL1   H4B 7741   5.611   4.374   7.127  0.9893  0.8019  1.1447
   72CHL1    C5 7742   5.575   4.327   7.344 -0.3124  0.4017  0.0257
   72CHL1    C6 7743   5.604   4.452   7.390 -0.2816 -0.0330 -0.0220
   72CHL1    H6 7744   5.655   4.520   7.320  1.2736 -0.6300  0.4927
   72CHL1    C7 7745   5.612   4.490   7.533 -0.6041  0.4588  0.7723
   72CHL1   H7A 7746   5.703   4.550   7.555  0.2456 -0.0879 -1.0547
   72CHL1   H7B 7747   5.524   4.555   7.551 -1.4309 -0.0073 -1.2849
   72CHL1    C8 7748   5.596   4.371   7.633 -0.1780  0.4560  0.4886
   72CHL1    H8 7749   5.698   4.328   7.643  0.4709  1.0612 -2.5992
   72CHL1   C14 7750   5.550   4.418   7.773 -0.1125 -0.0012  0.2431
   72CHL1   H14 7751   5.447   4.455   7.750  0.5850  0.7871 -1.7845
   72CHL1   C15 7752   5.604   4.547   7.845  0.0595 -0.4321 -0.1923
   72CHL1  H15A 7753   5.715   4.559   7.845  0.0397  0.0280 -1.7179
   72CHL1  H15B 7754   5.562   4.641   7.802 -2.9288 -0.5977  2.0702
   72CHL1   C16 7755   5.561   4.527   7.988 -0.2916  0.2055 -0.0445
   72CHL1  H16A 7756   5.661   4.518   8.035  0.1950  0.8431 -0.9364
   72CHL1  H16B 7757   5.505   4.612   8.031 -1.5089 -0.7967  0.4395
   72CHL1   C17 7758   5.483   4.393   8.007 -0.0927  0.2789 -0.1399
   72CHL1   H17 7759   5.375   4.416   7.987 -0.6137 -1.5438  0.4142
   72CHL1   C13 7760   5.523   4.313   7.882 -0.2932 -0.0926  0.6627
   72CHL1   C18 7761   5.658   4.234   7.916  0.3324 -0.6949  0.5255
   72CHL1  H18A 7762   5.635   4.148   7.983 -1.9610 -0.2790  0.3455
   72CHL1  H18B 7763   5.702   4.185   7.826  0.4184  0.1480  0.0994
   72CHL1  H18C 7764   5.734   4.305   7.954  1.5971 -1.5569 -0.2792
   72CHL1   C12 7765   5.421   4.220   7.826  0.1309  0.4466  0.6791
   72CHL1  H12A 7766   5.411   4.137   7.899 -0.1425  0.7619  1.0038
   72CHL1  H12B 7767   5.321   4.267   7.812  1.1377  2.0522 -1.6535
   72CHL1   C11 7768   5.456   4.165   7.689  0.8010 -0.2651  0.2404
   72CHL1  H11A 7769   5.542   4.096   7.694  0.6689 -0.4307  0.2406
   72CHL1  H11B 7770   5.365   4.105   7.665 -0.2418  1.5180 -0.4490
   72CHL1    C9 7771   5.489   4.274   7.581  0.7343  0.3742 -0.6550
   72CHL1    H9 7772   5.409   4.348   7.563  1.0714  1.1545  0.8634
   72CHL1   C10 7773   5.523   4.214   7.438  0.6197 -0.0715  0.0295
   72CHL1   C19 7774   5.636   4.109   7.462  0.0653 -1.4243  0.4490
   72CHL1  H19A 7775   5.600   4.024   7.524  1.3894 -1.6775  0.8994
   72CHL1  H19B 7776   5.677   4.080   7.363 -2.4191 -0.9427 -0.7937
   72CHL1  H19C 7777   5.720   4.155   7.517 -1.6254  2.5828  0.0287
   72CHL1    C1 7778   5.398   4.145   7.384  0.1772 -0.2759  0.4838
   72CHL1   H1A 7779   5.369   4.058   7.447 -0.9048 -0.3266 -0.0625
   72CHL1   H1B 7780   5.314   4.217   7.385 -0.2372 -0.7561  1.1395
   72CHL1    C2 7781   5.419   4.098   7.230  0.3854 -0.4395 -1.2839
   72CHL1   H2A 7782   5.322   4.056   7.197 -2.0179  2.7526  1.0297
   72CHL1   H2B 7783   5.498   4.020   7.219  0.7838 -0.5105  1.2698
   72CHL1   C20 7784   5.484   4.327   8.140  0.2831 -0.0542 -0.7013
   72CHL1   H20 7785   5.464   4.217   8.143 -1.9043  0.2507 -1.7555
   72CHL1   C21 7786   5.347   4.376   8.208 -0.0322  0.0075 -0.0529
   72CHL1  H21A 7787   5.324   4.342   8.311 -1.1817  0.7258 -0.0518
   72CHL1  H21B 7788   5.255   4.349   8.151 -0.0380 -0.3616  0.1267
   72CHL1  H21C 7789   5.345   4.487   8.203  2.1787  0.0735 -0.4599
   72CHL1   C22 7790   5.606   4.357   8.226  0.0618 -0.0129  0.1638
   72CHL1  H22A 7791   5.702   4.353   8.171  1.0131  2.3607  1.4926
   72CHL1  H22B 7792   5.584   4.461   8.257 -2.1162 -0.2630 -0.3506
   72CHL1   C23 7793   5.631   4.259   8.347  1.0019 -0.1178 -0.7868
   72CHL1  H23A 7794   5.536   4.256   8.405  1.9894 -0.6844  0.8724
   72CHL1  H23B 7795   5.643   4.158   8.304 -1.3058 -0.5993 -0.4733
   72CHL1   C24 7796   5.751   4.299   8.423 -0.1726  0.2953 -0.0709
   72CHL1  H24A 7797   5.846   4.294   8.365 -1.6567  1.6271 -2.8107
   72CHL1  H24B 7798   5.749   4.404   8.461  0.9233 -0.0974  1.1895
   72CHL1   C25 7799   5.764   4.209   8.554  0.1879  0.2565  0.6247
   72CHL1   H25 7800   5.748   4.102   8.528  1.3222  0.2130  0.0265
   72CHL1   C26 7801   5.903   4.218   8.616 -0.4086 -0.5373 -0.7375
   72CHL1  H26A 7802   5.985   4.195   8.545  2.3413  1.5999  1.5021
   72CHL1  H26B 7803   5.924   4.316   8.665 -1.6396 -0.5149 -0.2098
   72CHL1  H26C 7804   5.896   4.138   8.693  2.9359  0.3691  0.6975
   72CHL1   C27 7805   5.664   4.248   8.662  0.1172  0.6051  0.4192
   72CHL1  H27A 7806   5.675   4.173   8.743 -0.7594  1.1063  1.0166
   72CHL1  H27B 7807   5.696   4.347   8.702 -1.8837  2.7279 -2.7669
   72CHL1  H27C 7808   5.558   4.265   8.632  0.3472  1.6665  0.1714
   73CHL1    C3 7809   6.189   6.449   6.964 -0.0788 -0.0766 -0.1292
   73CHL1    H3 7810   6.110   6.380   6.998  2.0189 -2.3718  0.3347
   73CHL1    O3 7811   6.227   6.430   6.829 -0.1372 -0.3195  0.7411
   73CHL1   H3' 7812   6.312   6.472   6.821  0.4868 -1.1718  2.4211
   73CHL1    C4 7813   6.130   6.588   6.988 -0.0505 -0.0591 -0.2044
   73CHL1   H4A 7814   6.204   6.667   6.962 -2.3295  1.9270 -1.0168
   73CHL1   H4B 7815   6.034   6.603   6.935 -1.4736  0.1035  2.2466
   73CHL1    C5 7816   6.103   6.607   7.134  0.1688  0.2870  0.0041
   73CHL1    C6 7817   5.978   6.649   7.177 -1.0795  0.4042  0.3713
   73CHL1    H6 7818   5.898   6.671   7.106 -1.3317 -0.5899  0.3304
   73CHL1    C7 7819   5.945   6.666   7.324 -0.1349 -0.4950 -0.0901
   73CHL1   H7A 7820   5.869   6.745   7.345 -0.5914 -1.4929  2.3602
   73CHL1   H7B 7821   5.911   6.566   7.358  0.6139 -0.7602 -0.1242
   73CHL1    C8 7822   6.073   6.699   7.410  0.1690  0.4639 -0.0034
   73CHL1    H8 7823   6.116   6.798   7.388 -2.6325  1.6264 -0.7302
   73CHL1   C14 7824   6.025   6.688   7.556 -0.0289  0.3931  0.2020
   73CHL1   H14 7825   5.995   6.581   7.567  2.4102 -0.5413 -1.2563
   73CHL1   C15 7826   5.920   6.781   7.601 -0.9906 -0.4859  0.2599
   73CHL1  H15A 7827   5.945   6.880   7.558 -2.7703 -0.6967 -1.3815
   73CHL1  H15B 7828   5.820   6.749   7.563 -0.9568 -1.0759  0.6435
   73CHL1   C16 7829   5.928   6.767   7.751  0.0138  0.6323  0.4073
   73CHL1  H16A 7830   5.922   6.870   7.791 -0.7433  1.6166 -2.0288
   73CHL1  H16B 7831   5.842   6.710   7.793 -0.4720 -1.7023 -3.2330
   73CHL1   C17 7832   6.065   6.695   7.788 -0.4308 -0.6669  0.0795
   73CHL1   H17 7833   6.041   6.587   7.800  0.5605 -0.7114  1.9717
   73CHL1   C13 7834   6.142   6.705   7.660 -0.2390  0.1243 -0.2886
   73CHL1   C18 7835   6.216   6.836   7.648  0.8151  0.9806  0.1229
   73CHL1  H18A 7836   6.270   6.849   7.551 -2.1316  0.8245 -1.6803
   73CHL1  H18B 7837   6.150   6.921   7.676  0.1836 -0.5832  3.8410
   73CHL1  H18C 7838   6.302   6.840   7.718  1.2057 -2.8131  0.0302
   73CHL1   C12 7839   6.241   6.589   7.638 -0.3230 -0.0029  0.2497
   73CHL1  H12A 7840   6.326   6.582   7.710  2.3512 -0.8861 -2.7942
   73CHL1  H12B 7841   6.180   6.497   7.647 -2.3668  1.4359  2.4782
   73CHL1   C11 7842   6.299   6.589   7.490 -0.3658 -0.1273  0.4366
   73CHL1  H11A 7843   6.371   6.672   7.471  0.1563 -0.5088  0.7157
   73CHL1  H11B 7844   6.361   6.498   7.476  1.1399  1.0955 -1.5031
   73CHL1    C9 7845   6.183   6.591   7.383  0.5343 -0.5855 -0.4962
   73CHL1    H9 7846   6.131   6.494   7.397 -0.9783  0.2578 -0.0888
   73CHL1   C10 7847   6.226   6.578   7.229  0.5993 -0.1679 -0.1599
   73CHL1   C19 7848   6.353   6.670   7.216 -0.8521  0.3430 -0.3495
   73CHL1  H19A 7849   6.380   6.673   7.108 -0.3252  0.2395 -0.2246
   73CHL1  H19B 7850   6.338   6.775   7.249  0.1311  0.0737  1.0612
   73CHL1  H19C 7851   6.444   6.630   7.265  0.6187  1.3780 -2.1119
   73CHL1    C1 7852   6.276   6.440   7.205  0.3611 -0.1116 -0.3019
   73CHL1   H1A 7853   6.366   6.415   7.266  2.1024  2.5978 -1.5581
   73CHL1   H1B 7854   6.194   6.369   7.229 -0.1182  0.0438 -1.4049
   73CHL1    C2 7855   6.310   6.414   7.055 -0.0927 -0.2959 -0.6848
   73CHL1   H2A 7856   6.341   6.309   7.035  1.4518 -0.4969  2.2216
   73CHL1   H2B 7857   6.393   6.478   7.020 -0.0730 -1.4913 -3.0014
   73CHL1   C20 7858   6.117   6.745   7.926  0.5099  0.0514  0.5345
   73CHL1   H20 7859   6.144   6.852   7.921  0.6869 -0.0594 -2.6043
   73CHL1   C21 7860   6.249   6.664   7.966  0.3667 -0.0167 -0.5630
   73CHL1  H21A 7861   6.244   6.661   8.077 -2.0782 -1.0873 -0.6412
   73CHL1  H21B 7862   6.337   6.727   7.943 -0.9120  1.5772 -1.2684
   73CHL1  H21C 7863   6.250   6.561   7.924 -2.3802 -0.5977  0.5768
   73CHL1   C22 7864   6.011   6.749   8.038  0.3605 -0.3425  0.2159
   73CHL1  H22A 7865   6.062   6.778   8.133 -0.4277  0.9238  0.2810
   73CHL1  H22B 7866   5.924   6.813   8.013 -1.1659 -1.5130  2.1790
   73CHL1   C23 7867   5.946   6.610   8.069 -0.4983 -0.0429 -0.1156
   73CHL1  H23A 7868   5.928   6.550   7.977  2.1659 -0.7951 -0.2259
   73CHL1  H23B 7869   6.017   6.554   8.132 -0.5726  2.5730  2.4826
   73CHL1   C24 7870   5.816   6.623   8.151  0.4704 -0.6558  0.2609
   73CHL1  H24A 7871   5.759   6.713   8.120 -0.5747 -0.0101  3.6377
   73CHL1  H24B 7872   5.746   6.538   8.135 -2.2458  1.4842  0.2158
   73CHL1   C25 7873   5.822   6.655   8.309  1.1668 -0.0222  0.5137
   73CHL1   H25 7874   5.859   6.560   8.354  0.5787 -0.9900 -0.9583
   73CHL1   C26 7875   5.914   6.774   8.340  0.0666  0.4220  0.2805
   73CHL1  H26A 7876   5.898   6.869   8.285 -0.3073 -0.4759 -1.2045
   73CHL1  H26B 7877   5.903   6.792   8.449 -1.2341 -0.0798  0.2541
   73CHL1  H26C 7878   6.018   6.746   8.314 -1.1326 -1.6229 -2.8183
   73CHL1   C27 7879   5.675   6.673   8.351  0.1435  0.1715  0.6956
   73CHL1  H27A 7880   5.622   6.753   8.295 -1.7150 -0.7566  1.0552
   73CHL1  H27B 7881   5.617   6.583   8.321 -0.0274  0.3330  0.5359
   73CHL1  H27C 7882   5.654   6.682   8.459  0.3934 -1.4814  0.9075
   74CHL1    C3 7883   5.081   0.959   6.999  0.8708 -0.3042 -0.5808
   74CHL1    H3 7884   5.130   0.860   6.998  0.0628 -0.9921  4.2134
   74CHL1    O3 7885   5.137   1.011   6.875 -0.2504  0.3654 -0.1666
   74CHL1   H3' 7886   5.083   0.991   6.798 -0.5454  1.9706 -0.4039
   74CHL1    C4 7887   4.924   0.954   6.990  0.2999 -0.0900  0.1567
   74CHL1   H4A 7888   4.910   1.056   6.950  4.1206  1.9529  3.2579
   74CHL1   H4B 7889   4.902   0.885   6.906 -1.2688 -0.0372  0.5052
   74CHL1    C5 7890   4.855   0.938   7.122  1.1414  0.5177 -0.2028
   74CHL1    C6 7891   4.749   0.854   7.144 -0.7774  0.2482  0.1770
   74CHL1    H6 7892   4.732   0.782   7.063 -1.9160 -0.2246  0.8281
   74CHL1    C7 7893   4.668   0.832   7.268 -0.2116 -0.9785 -0.2850
   74CHL1   H7A 7894   4.561   0.845   7.243  0.1369  1.6583 -0.6280
   74CHL1   H7B 7895   4.689   0.730   7.308  0.1268 -0.3799  1.1176
   74CHL1    C8 7896   4.708   0.938   7.372  0.0928  0.8065 -0.4848
   74CHL1    H8 7897   4.653   1.031   7.349 -1.3793  0.0167 -0.3054
   74CHL1   C14 7898   4.674   0.883   7.509  0.4797  0.3194  0.1214
   74CHL1   H14 7899   4.727   0.785   7.515 -0.5730 -0.3713 -1.2893
   74CHL1   C15 7900   4.527   0.833   7.522 -0.1812 -0.4689  0.4890
   74CHL1  H15A 7901   4.452   0.909   7.490 -0.5153 -1.0046 -0.0216
   74CHL1  H15B 7902   4.507   0.742   7.462 -1.0400  0.6473 -1.0012
   74CHL1   C16 7903   4.521   0.820   7.675  0.2439  0.4474  0.5031
   74CHL1  H16A 7904   4.428   0.871   7.710 -0.3404  2.4155 -3.3894
   74CHL1  H16B 7905   4.518   0.716   7.714  0.3470  0.8480  1.6434
   74CHL1   C17 7906   4.647   0.874   7.742 -0.0758 -0.2070 -0.0955
   74CHL1   H17 7907   4.718   0.790   7.755  1.5207  0.8378 -1.6065
   74CHL1   C13 7908   4.702   0.968   7.630 -0.8370  0.5194 -0.8477
   74CHL1   C18 7909   4.621   1.099   7.628 -0.3678  0.4955 -0.3426
   74CHL1  H18A 7910   4.622   1.162   7.536 -2.3777  0.0323 -0.7406
   74CHL1  H18B 7911   4.513   1.083   7.649  0.0245 -0.6578  0.9589
   74CHL1  H18C 7912   4.664   1.166   7.705  0.7113  1.2123 -1.5218
   74CHL1   C12 7913   4.856   0.995   7.629  0.0302 -0.1486  0.0965
   74CHL1  H12A 7914   4.892   1.058   7.713  2.0354 -0.1914 -0.6867
   74CHL1  H12B 7915   4.907   0.896   7.633  2.3878  1.0210  0.5233
   74CHL1   C11 7916   4.897   1.063   7.494 -0.6926  0.5641  0.4538
   74CHL1  H11A 7917   4.842   1.159   7.491 -0.9581  0.5462  2.7221
   74CHL1  H11B 7918   5.006   1.084   7.493 -0.4423 -0.6288 -0.9282
   74CHL1    C9 7919   4.859   0.970   7.378 -0.1946  1.0713  0.6203
   74CHL1    H9 7920   4.910   0.876   7.405 -1.6638 -0.4738 -1.5586
   74CHL1   C10 7921   4.912   1.021   7.241 -0.3019  0.1206  0.2223
   74CHL1   C19 7922   4.875   1.170   7.226 -0.6895 -0.5708  0.5221
   74CHL1  H19A 7923   4.922   1.240   7.298 -0.5596  0.3851 -0.4718
   74CHL1  H19B 7924   4.902   1.216   7.129  2.6936 -2.0563  0.6514
   74CHL1  H19C 7925   4.764   1.170   7.237 -0.4815 -0.6375  3.6447
   74CHL1    C1 7926   5.068   1.008   7.239 -0.2875  0.4815 -0.2032
   74CHL1   H1A 7927   5.112   1.072   7.318 -0.8100  1.7575 -0.9161
   74CHL1   H1B 7928   5.111   0.907   7.254 -0.9604  0.1008 -0.7726
   74CHL1    C2 7929   5.127   1.052   7.113 -0.1564  0.3151 -0.6242
   74CHL1   H2A 7930   5.237   1.048   7.127 -0.3221  0.9687  1.0885
   74CHL1   H2B 7931   5.106   1.160   7.098  0.2489  0.4314 -0.3848
   74CHL1   C20 7932   4.620   0.936   7.883  0.4496 -0.8198  0.1918
   74CHL1   H20 7933   4.561   1.027   7.858  1.3331 -0.4310 -0.5348
   74CHL1   C21 7934   4.741   0.984   7.963 -0.0787 -0.3410  0.2469
   74CHL1  H21A 7935   4.830   1.014   7.904  0.9869 -3.4893  0.0612
   74CHL1  H21B 7936   4.781   0.901   8.024 -1.3482  0.0116  1.6344
   74CHL1  H21C 7937   4.709   1.067   8.030 -1.6659  0.4324 -1.3690
   74CHL1   C22 7938   4.532   0.850   7.976 -0.9735 -0.1189  0.5071
   74CHL1  H22A 7939   4.447   0.806   7.920 -1.5720 -1.8366  2.6505
   74CHL1  H22B 7940   4.605   0.772   8.005 -0.2118 -0.0528 -1.1048
   74CHL1   C23 7941   4.475   0.918   8.098 -0.0322 -0.5337 -0.1247
   74CHL1  H23A 7942   4.556   0.968   8.156  0.1283 -1.1285  0.1682
   74CHL1  H23B 7943   4.409   1.002   8.067  1.0570  0.4028 -0.0033
   74CHL1   C24 7944   4.394   0.819   8.184  0.4388 -0.0464 -0.5335
   74CHL1  H24A 7945   4.334   0.750   8.120 -0.6550 -0.4407  0.8834
   74CHL1  H24B 7946   4.467   0.760   8.243  0.6752 -0.2478 -1.0176
   74CHL1   C25 7947   4.293   0.871   8.283 -0.0842  0.3661  0.1170
   74CHL1   H25 7948   4.349   0.937   8.352 -0.6368  0.1629  0.7674
   74CHL1   C26 7949   4.201   0.966   8.219 -0.2418  0.5818 -0.2776
   74CHL1  H26A 7950   4.151   0.924   8.130 -1.5198  0.6485  0.3812
   74CHL1  H26B 7951   4.119   0.992   8.289  1.0883  1.5802  0.9835
   74CHL1  H26C 7952   4.259   1.059   8.197 -0.3158  0.7949  0.4025
   74CHL1   C27 7953   4.215   0.763   8.348  0.1851  0.1149 -0.3545
   74CHL1  H27A 7954   4.283   0.716   8.422 -1.4851 -1.1357  0.4675
   74CHL1  H27B 7955   4.123   0.803   8.396 -0.2972  0.2362 -1.3431
   74CHL1  H27C 7956   4.187   0.680   8.280  1.1832 -0.9439  0.4916
   75CHL1    C3 7957   0.432   0.415   6.792 -0.3939 -0.5325  0.0944
   75CHL1    H3 7958   0.397   0.516   6.821 -0.6139 -0.5915  0.0367
   75CHL1    O3 7959   0.432   0.394   6.653 -0.0272  0.5207  0.1190
   75CHL1   H3' 7960   0.397   0.307   6.634  0.5515 -0.1001  1.6972
   75CHL1    C4 7961   0.580   0.394   6.843 -0.2128  0.0001 -0.7432
   75CHL1   H4A 7962   0.597   0.287   6.816  2.3924  0.0572  0.4010
   75CHL1   H4B 7963   0.647   0.457   6.782 -1.0801  0.9911 -0.7018
   75CHL1    C5 7964   0.600   0.400   6.996 -0.9484  0.0027  0.6818
   75CHL1    C6 7965   0.688   0.489   7.044  0.5571  0.9316  0.7219
   75CHL1    H6 7966   0.748   0.546   6.971  0.3133 -0.0728 -0.2865
   75CHL1    C7 7967   0.696   0.511   7.192  0.2207  0.3658  0.6063
   75CHL1   H7A 7968   0.802   0.535   7.214  0.3151  0.2935  0.2450
   75CHL1   H7B 7969   0.637   0.598   7.229  0.7589  1.0503 -0.1135
   75CHL1    C8 7970   0.644   0.398   7.282  0.2678 -0.1943  0.1073
   75CHL1    H8 7971   0.720   0.319   7.262 -0.1183 -0.4017 -0.5817
   75CHL1   C14 7972   0.636   0.442   7.428  0.1843  0.6854 -0.1729
   75CHL1   H14 7973   0.559   0.522   7.433 -0.6601 -0.0479 -1.1624
   75CHL1   C15 7974   0.774   0.495   7.486 -0.2653 -0.0869 -0.1446
   75CHL1  H15A 7975   0.843   0.422   7.439 -1.2824 -1.1723  0.0149
   75CHL1  H15B 7976   0.790   0.603   7.466 -3.9275  0.6855  0.2910
   75CHL1   C16 7977   0.763   0.466   7.642  0.4783  0.6519 -0.1832
   75CHL1  H16A 7978   0.832   0.382   7.664  0.8329  1.0356  0.1859
   75CHL1  H16B 7979   0.767   0.562   7.698 -1.1090  0.3947  0.4425
   75CHL1   C17 7980   0.614   0.405   7.656 -0.6857 -0.8529  0.2570
   75CHL1   H17 7981   0.547   0.494   7.663 -0.4422 -0.7246  1.1196
   75CHL1   C13 7982   0.586   0.337   7.522  0.6875  0.2539 -0.1738
   75CHL1   C18 7983   0.667   0.201   7.513 -0.2120 -1.0682  0.7030
   75CHL1  H18A 7984   0.624   0.123   7.579 -1.2526 -0.1222  1.1626
   75CHL1  H18B 7985   0.666   0.167   7.408 -0.1214 -3.0315  1.2969
   75CHL1  H18C 7986   0.770   0.223   7.549 -0.4576  1.2933  0.1313
   75CHL1   C12 7987   0.443   0.307   7.481  0.1927  0.1234  0.2648
   75CHL1  H12A 7988   0.396   0.230   7.546  2.2847 -0.4222  1.2325
   75CHL1  H12B 7989   0.381   0.399   7.480  0.6199  0.4699 -2.6532
   75CHL1   C11 7990   0.431   0.259   7.327 -0.3618  0.5834  0.1764
   75CHL1  H11A 7991   0.461   0.152   7.318 -0.9182  0.5472 -2.0392
   75CHL1  H11B 7992   0.321   0.271   7.312 -0.2018  2.1704  0.1088
   75CHL1    C9 7993   0.506   0.355   7.226 -0.0816  0.6278 -0.4740
   75CHL1    H9 7994   0.454   0.453   7.236 -3.7593 -1.3212  1.6321
   75CHL1   C10 7995   0.501   0.317   7.077 -0.3420 -0.9266  0.0332
   75CHL1   C19 7996   0.536   0.162   7.067 -0.1890  0.1415  1.1651
   75CHL1  H19A 7997   0.561   0.136   6.962 -0.3351  0.8480  0.9467
   75CHL1  H19B 7998   0.620   0.131   7.133  0.8526 -2.7980 -1.3354
   75CHL1  H19C 7999   0.454   0.102   7.110 -1.3925  1.3234  0.5947
   75CHL1    C1 8000   0.354   0.350   7.025 -0.7297  0.1990  0.0416
   75CHL1   H1A 8001   0.277   0.286   7.073  0.7548 -0.6045  1.4479
   75CHL1   H1B 8002   0.333   0.458   7.040 -1.0333 -0.0678  1.7315
   75CHL1    C2 8003   0.341   0.322   6.870  0.2506 -0.1829  0.1546
   75CHL1   H2A 8004   0.234   0.335   6.843  0.5635 -0.6729 -1.3862
   75CHL1   H2B 8005   0.366   0.215   6.860 -0.0040 -0.1028 -1.8069
   75CHL1   C20 8006   0.607   0.334   7.790  0.4168  0.1620 -0.0683
   75CHL1   H20 8007   0.673   0.246   7.782 -0.0713 -0.1940 -0.2412
   75CHL1   C21 8008   0.463   0.291   7.825 -0.0090  1.3914 -0.2002
   75CHL1  H21A 8009   0.390   0.372   7.802 -1.0727 -0.1631 -2.6510
   75CHL1  H21B 8010   0.448   0.254   7.929 -0.6649  0.6727 -0.5470
   75CHL1  H21C 8011   0.442   0.218   7.744  0.8931  2.4971 -1.4782
   75CHL1   C22 8012   0.661   0.421   7.909  0.0121  0.5192 -0.5662
   75CHL1  H22A 8013   0.655   0.529   7.884 -0.0371  0.1281 -2.3878
   75CHL1  H22B 8014   0.592   0.410   7.995  1.3191 -1.1329  0.3277
   75CHL1   C23 8015   0.801   0.377   7.956  0.2260 -0.3424 -0.2322
   75CHL1  H23A 8016   0.795   0.271   7.989 -1.5409 -1.2048 -2.9898
   75CHL1  H23B 8017   0.874   0.375   7.872 -0.5075 -2.2981 -0.8718
   75CHL1   C24 8018   0.851   0.477   8.060 -0.7138 -0.4029  0.2322
   75CHL1  H24A 8019   0.858   0.573   8.005 -1.0968 -0.6195 -0.1944
   75CHL1  H24B 8020   0.771   0.494   8.136 -2.9952 -1.6432 -1.7725
   75CHL1   C25 8021   0.986   0.454   8.131  0.3007 -0.5193  0.5620
   75CHL1   H25 8022   1.068   0.467   8.057 -0.4544 -3.2566 -0.8793
   75CHL1   C26 8023   1.004   0.547   8.245 -0.2567  0.1910 -0.1622
   75CHL1  H26A 8024   0.992   0.651   8.209 -1.3531 -0.3372 -1.3946
   75CHL1  H26B 8025   0.931   0.526   8.326 -0.0644  1.3442  0.3359
   75CHL1  H26C 8026   1.109   0.536   8.280 -0.7417 -1.1766  0.9556
   75CHL1   C27 8027   0.995   0.311   8.186 -0.0708 -0.2150 -0.7506
   75CHL1  H27A 8028   0.993   0.237   8.104  0.8802  1.8778 -2.7705
   75CHL1  H27B 8029   1.089   0.309   8.245  0.3628  0.7512 -1.3858
   75CHL1  H27C 8030   0.901   0.289   8.240 -1.3520  2.2757 -1.7752
   76CHL1    C3 8031   4.485   2.663   7.311  0.3603  1.0038 -0.9446
   76CHL1    H3 8032   4.476   2.773   7.320 -1.7053  0.8074  0.0158
   76CHL1    O3 8033   4.457   2.636   7.178  0.0982 -0.5195 -0.2860
   76CHL1   H3' 8034   4.422   2.547   7.169  1.2642 -0.8861 -1.5878
   76CHL1    C4 8035   4.626   2.622   7.346 -0.8456  0.7182  0.2766
   76CHL1   H4A 8036   4.638   2.516   7.317 -2.1349  0.1468  1.6508
   76CHL1   H4B 8037   4.699   2.676   7.282  0.0983 -0.4421  0.3480
   76CHL1    C5 8038   4.653   2.662   7.493 -0.1184  0.6145 -0.7353
   76CHL1    C6 8039   4.744   2.755   7.526 -0.3723 -0.1505  0.3899
   76CHL1    H6 8040   4.812   2.803   7.455 -0.3695  0.5228  0.8366
   76CHL1    C7 8041   4.770   2.787   7.669  0.2810 -0.3350 -0.5523
   76CHL1   H7A 8042   4.878   2.782   7.695  0.1183 -3.0670 -0.0863
   76CHL1   H7B 8043   4.735   2.891   7.689 -0.5561 -0.1179 -2.8576
   76CHL1    C8 8044   4.705   2.686   7.767 -0.3261 -0.7927 -0.2511
   76CHL1    H8 8045   4.777   2.602   7.769  1.0772  0.3820  0.1747
   76CHL1   C14 8046   4.726   2.749   7.906  0.1637  0.5303 -0.0788
   76CHL1   H14 8047   4.660   2.838   7.903  0.3777  0.7700  1.5479
   76CHL1   C15 8048   4.864   2.798   7.955  0.3983  0.5685 -0.0635
   76CHL1  H15A 8049   4.932   2.711   7.947  0.8296  0.5681  2.6406
   76CHL1  H15B 8050   4.888   2.890   7.898 -1.2553 -0.0909 -1.9718
   76CHL1   C16 8051   4.850   2.812   8.102  0.2038 -0.1255 -0.2396
   76CHL1  H16A 8052   4.925   2.747   8.151 -0.1001  0.1097  0.5578
   76CHL1  H16B 8053   4.855   2.919   8.131 -2.6692 -0.6989  3.0162
   76CHL1   C17 8054   4.710   2.762   8.137 -0.0592 -0.4106 -0.3194
   76CHL1   H17 8055   4.640   2.848   8.124 -0.5710 -0.9826 -1.5837
   76CHL1   C13 8056   4.660   2.672   8.016 -0.1469  0.0093  0.1143
   76CHL1   C18 8057   4.732   2.536   8.031  0.1265 -0.0963  0.8797
   76CHL1  H18A 8058   4.721   2.480   7.936 -1.1500 -0.2124  1.0686
   76CHL1  H18B 8059   4.840   2.549   8.050  0.5000  0.2855 -1.2323
   76CHL1  H18C 8060   4.676   2.474   8.105 -0.6752  1.5818  1.7458
   76CHL1   C12 8061   4.509   2.638   7.985 -0.2781  0.6617 -0.5424
   76CHL1  H12A 8062   4.475   2.580   8.073  0.3291  0.6283 -0.3229
   76CHL1  H12B 8063   4.454   2.734   7.982  0.5434  1.2453  1.6606
   76CHL1   C11 8064   4.485   2.573   7.852  0.2154  0.3955  1.4137
   76CHL1  H11A 8065   4.514   2.466   7.864 -0.0185  0.3812  1.8907
   76CHL1  H11B 8066   4.375   2.570   7.837  0.0308 -0.7697  2.7822
   76CHL1    C9 8067   4.561   2.657   7.736 -0.4930 -0.0135 -0.0980
   76CHL1    H9 8068   4.519   2.760   7.744  2.1489  1.3631 -2.0621
   76CHL1   C10 8069   4.550   2.603   7.593  0.3601 -0.0839  0.0703
   76CHL1   C19 8070   4.576   2.452   7.592  0.1864 -0.2181  0.0996
   76CHL1  H19A 8071   4.578   2.413   7.488 -0.6467 -0.9133  0.3327
   76CHL1  H19B 8072   4.675   2.434   7.641 -0.8297  0.4795  2.5542
   76CHL1  H19C 8073   4.500   2.390   7.645  1.0537 -1.4050  0.0074
   76CHL1    C1 8074   4.400   2.627   7.547  0.5251  0.1329 -0.1095
   76CHL1   H1A 8075   4.344   2.563   7.620  1.8621 -0.6198  0.2792
   76CHL1   H1B 8076   4.364   2.730   7.567 -1.3591  0.1723 -3.1441
   76CHL1    C2 8077   4.370   2.602   7.399 -0.2537  0.6297  0.5089
   76CHL1   H2A 8078   4.274   2.647   7.368  0.6025  1.9216 -0.3711
   76CHL1   H2B 8079   4.357   2.493   7.381  0.8884  0.6096 -0.3087
   76CHL1   C20 8080   4.684   2.717   8.282  0.1452 -0.4131  0.2873
   76CHL1   H20 8081   4.716   2.611   8.280  0.8422 -0.1993 -1.5722
   76CHL1   C21 8082   4.535   2.727   8.319 -0.1198 -0.2342  0.1167
   76CHL1  H21A 8083   4.522   2.676   8.417  0.1295  2.0204  1.3814
   76CHL1  H21B 8084   4.467   2.681   8.244 -0.4917  2.4411 -1.2995
   76CHL1  H21C 8085   4.500   2.831   8.336 -1.2884 -0.6557  0.3551
   76CHL1   C22 8086   4.761   2.794   8.390 -0.5928  0.1014  0.1617
   76CHL1  H22A 8087   4.871   2.810   8.378 -0.6406  0.1446 -0.2353
   76CHL1  H22B 8088   4.721   2.895   8.413  0.2869 -0.0098  2.4663
   76CHL1   C23 8089   4.771   2.720   8.530  0.6681  0.2261  0.9594
   76CHL1  H23A 8090   4.667   2.714   8.571 -0.0740  0.7211 -0.7791
   76CHL1  H23B 8091   4.794   2.618   8.492  0.0848  0.3172  0.3368
   76CHL1   C24 8092   4.882   2.771   8.622 -0.8093 -0.5318 -0.2497
   76CHL1  H24A 8093   4.982   2.757   8.577 -1.1240  1.8826 -1.9384
   76CHL1  H24B 8094   4.868   2.881   8.634 -1.0678 -0.7147  1.2955
   76CHL1   C25 8095   4.877   2.715   8.763  0.3805  0.9878  0.2181
   76CHL1   H25 8096   4.777   2.720   8.811  0.4962 -0.4168  0.6568
   76CHL1   C26 8097   4.896   2.559   8.751 -0.2254  0.0189  0.2317
   76CHL1  H26A 8098   4.807   2.521   8.696  0.1108  1.0469 -1.0785
   76CHL1  H26B 8099   4.987   2.539   8.691 -1.0340 -2.0221 -0.3933
   76CHL1  H26C 8100   4.901   2.514   8.852 -0.2429  1.4214  0.8817
   76CHL1   C27 8101   4.985   2.778   8.850  0.1019  0.2283  0.1768
   76CHL1  H27A 8102   4.949   2.881   8.872  0.0858  0.0517  1.0060
   76CHL1  H27B 8103   4.998   2.721   8.944 -2.3510 -1.5982 -0.4777
   76CHL1  H27C 8104   5.081   2.778   8.795  0.4251 -1.5257  0.6721
   77CHL1    C3 8105   6.038   2.093   6.801  0.5690 -0.0645  0.4378
   77CHL1    H3 8106   5.941   2.047   6.829  0.6519  0.0727  0.9521
   77CHL1    O3 8107   6.050   2.086   6.658  0.1811  0.7650 -0.0380
   77CHL1   H3' 8108   6.060   2.180   6.641 -1.3760  1.7733  3.7857
   77CHL1    C4 8109   6.040   2.243   6.844 -0.1546  0.2261 -0.1894
   77CHL1   H4A 8110   6.133   2.286   6.800 -0.7019  0.4232 -1.1779
   77CHL1   H4B 8111   5.953   2.295   6.798  0.3966  2.3806  1.0515
   77CHL1    C5 8112   6.039   2.248   6.998 -0.5968  0.6910  0.2999
   77CHL1    C6 8113   5.941   2.311   7.064  0.4082 -0.3600  0.3360
   77CHL1    H6 8114   5.857   2.358   7.010 -1.0551 -0.9442  2.0014
   77CHL1    C7 8115   5.914   2.315   7.212  0.5957  0.4433  0.7259
   77CHL1   H7A 8116   5.904   2.423   7.238  1.0051  0.9212 -0.9608
   77CHL1   H7B 8117   5.827   2.252   7.237  0.9300 -1.1708 -1.8195
   77CHL1    C8 8118   6.044   2.277   7.283  0.0717  0.1133 -0.2730
   77CHL1    H8 8119   6.114   2.362   7.264 -1.2057  1.4238  0.6379
   77CHL1   C14 8120   6.019   2.258   7.427 -0.8824 -0.1988 -0.1937
   77CHL1   H14 8121   5.948   2.172   7.432 -1.7207  0.4979  0.2024
   77CHL1   C15 8122   5.947   2.380   7.497 -0.2921  0.4321  0.0592
   77CHL1  H15A 8123   6.004   2.473   7.475  1.3925 -0.4908  0.3161
   77CHL1  H15B 8124   5.844   2.383   7.456  0.2033  0.2767 -1.2409
   77CHL1   C16 8125   5.975   2.354   7.649 -1.0819 -0.6323  0.8311
   77CHL1  H16A 8126   6.029   2.445   7.685 -2.1406 -0.0536  0.9992
   77CHL1  H16B 8127   5.879   2.330   7.699 -0.4385 -1.8980  1.5111
   77CHL1   C17 8128   6.073   2.227   7.651  0.3616  0.7160 -0.0797
   77CHL1   H17 8129   6.002   2.142   7.651  0.9310  0.2292 -0.7309
   77CHL1   C13 8130   6.137   2.222   7.515  0.8029  0.4458 -0.0836
   77CHL1   C18 8131   6.243   2.336   7.517 -0.4554  0.2079 -1.0163
   77CHL1  H18A 8132   6.334   2.307   7.574  0.4657  2.0160 -1.4765
   77CHL1  H18B 8133   6.273   2.364   7.414 -0.9123 -0.2624 -1.2805
   77CHL1  H18C 8134   6.207   2.426   7.572  2.5059  0.6455  0.4432
   77CHL1   C12 8135   6.203   2.094   7.464 -0.3795 -0.5483  0.4743
   77CHL1  H12A 8136   6.295   2.058   7.515 -0.4932 -0.0207  1.0589
   77CHL1  H12B 8137   6.124   2.016   7.456  0.2084 -0.9643 -2.8203
   77CHL1   C11 8138   6.238   2.112   7.318 -0.2340  0.4277  0.5696
   77CHL1  H11A 8139   6.309   2.196   7.302 -1.5417  1.7852  1.4979
   77CHL1  H11B 8140   6.262   2.015   7.271  1.2866  1.7678 -1.5869
   77CHL1    C9 8141   6.113   2.157   7.228 -0.4528  0.2263  0.0802
   77CHL1    H9 8142   6.038   2.076   7.227 -0.1330 -0.0779 -0.5988
   77CHL1   C10 8143   6.146   2.164   7.076 -0.6471  0.3444  0.0923
   77CHL1   C19 8144   6.272   2.248   7.066  0.7119 -0.5119  0.1234
   77CHL1  H19A 8145   6.363   2.188   7.087  1.1060  0.0057 -0.1061
   77CHL1  H19B 8146   6.298   2.282   6.964  2.2605 -0.1570  0.6093
   77CHL1  H19C 8147   6.272   2.345   7.120  2.5649 -0.5441  0.2561
   77CHL1    C1 8148   6.154   2.017   7.013 -0.1599 -0.2331 -0.1473
   77CHL1   H1A 8149   6.247   1.967   7.049 -0.5766 -0.4426  0.6700
   77CHL1   H1B 8150   6.073   1.954   7.056 -2.5102  3.7276  1.7551
   77CHL1    C2 8151   6.156   2.011   6.861  0.1118  0.1827 -0.4637
   77CHL1   H2A 8152   6.136   1.908   6.824  0.4260 -0.0173 -0.0812
   77CHL1   H2B 8153   6.254   2.040   6.817 -0.0979  0.9577 -0.4361
   77CHL1   C20 8154   6.157   2.214   7.782  0.2590 -0.6687  0.7266
   77CHL1   H20 8155   6.246   2.280   7.789  0.2558 -0.7441  1.6998
   77CHL1   C21 8156   6.218   2.072   7.797  0.3415  0.1085 -0.1414
   77CHL1  H21A 8157   6.293   2.045   7.719 -0.7810 -0.2099 -1.1315
   77CHL1  H21B 8158   6.133   2.000   7.796  1.4439 -1.3253 -3.1419
   77CHL1  H21C 8159   6.277   2.079   7.891 -1.1965 -3.0898  1.2289
   77CHL1   C22 8160   6.070   2.246   7.912  0.5136  0.2289 -0.3070
   77CHL1  H22A 8161   6.036   2.351   7.914  0.5051  0.2374 -0.8372
   77CHL1  H22B 8162   5.983   2.177   7.910  1.0646 -0.5728  1.3127
   77CHL1   C23 8163   6.147   2.229   8.041  0.0739 -0.3649 -0.1270
   77CHL1  H23A 8164   6.160   2.123   8.072  0.3145 -0.3545 -0.1914
   77CHL1  H23B 8165   6.246   2.277   8.025  0.2674 -1.1973 -1.6243
   77CHL1   C24 8166   6.079   2.279   8.175  0.2467 -0.0059  1.1090
   77CHL1  H24A 8167   5.986   2.330   8.144  0.7030 -1.2554 -2.8373
   77CHL1  H24B 8168   6.046   2.193   8.237  0.7869 -1.4255 -0.5160
   77CHL1   C25 8169   6.173   2.365   8.260 -0.4897 -0.1496 -0.2784
   77CHL1   H25 8170   6.218   2.441   8.192  0.9241 -1.1009 -0.4536
   77CHL1   C26 8171   6.093   2.447   8.363 -0.2770 -0.3309  0.0233
   77CHL1  H26A 8172   6.160   2.530   8.393 -2.0708  1.7990 -1.6023
   77CHL1  H26B 8173   5.996   2.488   8.328 -0.6357  0.3341  1.7307
   77CHL1  H26C 8174   6.066   2.381   8.448 -0.2507  1.6403  1.6174
   77CHL1   C27 8175   6.294   2.294   8.316  0.2289  0.2132  0.1695
   77CHL1  H27A 8176   6.272   2.208   8.382  1.8976 -0.9232 -0.6580
   77CHL1  H27B 8177   6.378   2.275   8.245 -0.0454 -0.4952  0.0276
   77CHL1  H27C 8178   6.338   2.370   8.384  0.5755 -2.1572  2.7450
   78CHL1    C3 8179   0.354   2.377   6.641 -0.3128  0.1267 -0.3506
   78CHL1    H3 8180   0.404   2.279   6.635  2.2051  1.3839 -1.5306
   78CHL1    O3 8181   0.333   2.427   6.505  0.0676 -0.2560 -0.2162
   78CHL1   H3' 8182   0.356   2.355   6.445  1.9108  1.0426 -1.1525
   78CHL1    C4 8183   0.215   2.370   6.705  0.6598 -0.1577 -0.5291
   78CHL1   H4A 8184   0.171   2.472   6.697 -2.3922 -1.2791  0.4955
   78CHL1   H4B 8185   0.159   2.299   6.640  1.8569 -0.7667 -0.9110
   78CHL1    C5 8186   0.230   2.333   6.861  0.7513 -0.0636  0.0411
   78CHL1    C6 8187   0.169   2.232   6.915  0.0274  0.3203 -0.4314
   78CHL1    H6 8188   0.103   2.171   6.851 -0.0660  0.0535 -0.0855
   78CHL1    C7 8189   0.183   2.191   7.061  0.4338  0.6266  0.1768
   78CHL1   H7A 8190   0.083   2.172   7.106  1.1994  1.9375  2.5814
   78CHL1   H7B 8191   0.235   2.094   7.078 -1.3065 -0.0560  2.0595
   78CHL1    C8 8192   0.250   2.290   7.154 -0.4429 -0.1658 -0.2237
   78CHL1    H8 8193   0.174   2.368   7.173 -0.6673  0.0633 -1.9466
   78CHL1   C14 8194   0.297   2.227   7.281  0.7848 -0.1378  0.5892
   78CHL1   H14 8195   0.373   2.150   7.253  1.1161  0.3274  0.1989
   78CHL1   C15 8196   0.199   2.156   7.374 -0.0518 -0.0600 -0.1939
   78CHL1  H15A 8197   0.104   2.214   7.366  1.1057  1.7185 -2.0173
   78CHL1  H15B 8198   0.181   2.053   7.336 -1.6193  0.4367 -0.8739
   78CHL1   C16 8199   0.264   2.156   7.513  0.0573 -0.7660  0.2631
   78CHL1  H16A 8200   0.202   2.217   7.582  1.6687  0.1112  1.0169
   78CHL1  H16B 8201   0.254   2.054   7.557  0.7096 -0.8601  0.2010
   78CHL1   C17 8202   0.408   2.216   7.493  0.4292  0.0096 -0.6461
   78CHL1   H17 8203   0.476   2.136   7.456 -0.7049 -0.8513 -0.8948
   78CHL1   C13 8204   0.382   2.316   7.373  0.1388 -0.0231 -0.0615
   78CHL1   C18 8205   0.296   2.436   7.420  0.1916  0.2397 -0.2618
   78CHL1  H18A 8206   0.353   2.530   7.439 -1.2549  1.6090 -2.2615
   78CHL1  H18B 8207   0.225   2.480   7.347 -0.1218 -0.1289 -0.1785
   78CHL1  H18C 8208   0.239   2.408   7.511 -1.6277 -0.2780 -1.4982
   78CHL1   C12 8209   0.505   2.367   7.290  0.0753  0.5034  0.1824
   78CHL1  H12A 8210   0.547   2.444   7.358 -0.1705  1.6354 -0.9143
   78CHL1  H12B 8211   0.591   2.297   7.278 -0.2458  0.0130  0.6740
   78CHL1   C11 8212   0.466   2.434   7.159 -0.4704  0.1011 -0.3314
   78CHL1  H11A 8213   0.403   2.517   7.198  2.1329  0.4253  3.8243
   78CHL1  H11B 8214   0.555   2.477   7.108 -0.4629  2.2256  1.3466
   78CHL1    C9 8215   0.375   2.345   7.076 -0.0517 -0.1606  1.1638
   78CHL1    H9 8216   0.443   2.264   7.043  2.5584  1.6319  1.8817
   78CHL1   C10 8217   0.338   2.417   6.944  0.4215  0.8909 -0.1893
   78CHL1   C19 8218   0.265   2.554   6.965  0.8318 -0.2113 -0.0286
   78CHL1  H19A 8219   0.264   2.619   6.875  0.8842 -0.8240 -0.4814
   78CHL1  H19B 8220   0.163   2.548   7.009  0.5052  2.2599 -0.3428
   78CHL1  H19C 8221   0.309   2.620   7.041 -0.8047 -0.5989  1.3222
   78CHL1    C1 8222   0.465   2.430   6.858  0.0872  0.1735 -0.3125
   78CHL1   H1A 8223   0.547   2.493   6.898  0.9839 -1.5789  0.6646
   78CHL1   H1B 8224   0.514   2.331   6.857 -1.5476 -0.6901  0.8748
   78CHL1    C2 8225   0.440   2.476   6.712  0.5527 -0.8528  0.4022
   78CHL1   H2A 8226   0.535   2.494   6.657  0.5433 -0.7267  0.4269
   78CHL1   H2B 8227   0.386   2.573   6.713  0.6330 -0.8052  1.5948
   78CHL1   C20 8228   0.464   2.277   7.624 -0.4543  0.6725  0.6265
   78CHL1   H20 8229   0.415   2.375   7.644  0.7968  1.5418 -0.3709
   78CHL1   C21 8230   0.613   2.312   7.598 -0.8469 -0.0394 -0.2955
   78CHL1  H21A 8231   0.613   2.407   7.539 -3.1387 -0.5660 -1.2762
   78CHL1  H21B 8232   0.661   2.244   7.525  1.0594  1.3008 -0.3639
   78CHL1  H21C 8233   0.675   2.313   7.690 -0.4429  0.2285 -0.5675
   78CHL1   C22 8234   0.427   2.189   7.742  0.7236  0.0460  0.1357
   78CHL1  H22A 8235   0.317   2.186   7.755  0.4873  3.1069 -0.4329
   78CHL1  H22B 8236   0.478   2.092   7.721 -0.2219 -0.5317  0.4636
   78CHL1   C23 8237   0.480   2.223   7.884 -0.5551 -1.0087 -0.8697
   78CHL1  H23A 8238   0.588   2.198   7.871  0.0154  0.7435  0.2639
   78CHL1  H23B 8239   0.477   2.330   7.911  2.4504 -0.8021 -0.9846
   78CHL1   C24 8240   0.415   2.131   7.991 -0.0977  0.1965  1.1853
   78CHL1  H24A 8241   0.305   2.145   8.003  0.0245  2.5919  0.1307
   78CHL1  H24B 8242   0.428   2.031   7.945 -2.6539 -0.1065  0.9865
   78CHL1   C25 8243   0.476   2.135   8.130 -0.6345  0.2272  0.1623
   78CHL1   H25 8244   0.428   2.055   8.191 -2.4971 -0.1289 -1.6411
   78CHL1   C26 8245   0.628   2.115   8.149 -0.2062  0.1021  0.3417
   78CHL1  H26A 8246   0.660   2.153   8.248  0.1006 -0.2589  0.3850
   78CHL1  H26B 8247   0.663   2.016   8.113 -0.7563  0.4922 -1.3626
   78CHL1  H26C 8248   0.682   2.187   8.083 -1.2173  1.4378  0.9252
   78CHL1   C27 8249   0.451   2.273   8.194 -0.9155 -0.3366 -0.1034
   78CHL1  H27A 8250   0.502   2.353   8.136  0.9283 -2.2027 -1.1573
   78CHL1  H27B 8251   0.341   2.292   8.193 -1.0028 -0.8332 -0.6302
   78CHL1  H27C 8252   0.487   2.273   8.299 -0.7390  0.3564 -0.1569
   79CHL1    C3 8253   5.602   3.244   7.179 -0.1288  1.0271  0.6613
   79CHL1    H3 8254   5.540   3.332   7.206  2.1279  2.3175  1.9971
   79CHL1    O3 8255   5.592   3.211   7.038 -0.5752 -0.0454 -0.0312
   79CHL1   H3' 8256   5.671   3.163   7.012 -1.1361 -0.4747 -0.9633
   79CHL1    C4 8257   5.743   3.283   7.204  0.1000 -0.5132 -0.0650
   79CHL1   H4A 8258   5.822   3.212   7.170  2.2223  1.7448 -0.0899
   79CHL1   H4B 8259   5.776   3.371   7.146  0.2790  0.2833  1.2193
   79CHL1    C5 8260   5.757   3.320   7.347 -0.2398  0.0987  0.0707
   79CHL1    C6 8261   5.796   3.447   7.391  0.4698  0.2376 -0.2385
   79CHL1    H6 8262   5.844   3.515   7.319 -0.0173 -0.4453 -1.2368
   79CHL1    C7 8263   5.812   3.480   7.537 -0.7015  0.1032 -0.1763
   79CHL1   H7A 8264   5.893   3.552   7.559  0.9391 -1.3060 -1.2990
   79CHL1   H7B 8265   5.716   3.528   7.564 -1.8336 -2.6115  1.0043
   79CHL1    C8 8266   5.831   3.357   7.627  0.0643  0.9265  0.7881
   79CHL1    H8 8267   5.935   3.322   7.608 -0.2229  0.7296 -0.5339
   79CHL1   C14 8268   5.807   3.402   7.767 -0.2948  0.0890  0.8781
   79CHL1   H14 8269   5.708   3.450   7.782  0.1897  1.6210 -0.5148
   79CHL1   C15 8270   5.899   3.511   7.824 -0.4425  0.3394 -0.2009
   79CHL1  H15A 8271   6.008   3.504   7.805 -0.6203 -0.6868 -0.8795
   79CHL1  H15B 8272   5.852   3.608   7.796  0.2759  0.0586 -2.5780
   79CHL1   C16 8273   5.886   3.509   7.979 -0.0003  0.5976  0.0646
   79CHL1  H16A 8274   5.991   3.495   8.013 -0.5428 -0.9001  1.2665
   79CHL1  H16B 8275   5.841   3.603   8.016 -0.8453  0.8492 -1.5378
   79CHL1   C17 8276   5.800   3.381   8.004 -0.1391  0.3621 -0.0714
   79CHL1   H17 8277   5.693   3.406   7.992 -0.8464 -1.1349  2.4394
   79CHL1   C13 8278   5.811   3.290   7.873  0.5854 -0.2058 -0.1601
   79CHL1   C18 8279   5.952   3.227   7.876  0.9166 -0.2198  0.8528
   79CHL1  H18A 8280   5.977   3.184   7.776 -0.8173 -0.2958  0.4193
   79CHL1  H18B 8281   6.033   3.299   7.901  1.1612 -0.0403 -0.3680
   79CHL1  H18C 8282   5.956   3.143   7.948 -2.9509 -1.4697 -0.1070
   79CHL1   C12 8283   5.700   3.190   7.839  0.0320 -0.5834 -0.3612
   79CHL1  H12A 8284   5.705   3.095   7.897  1.3131 -1.1128 -1.3138
   79CHL1  H12B 8285   5.603   3.243   7.849  1.3571  2.3097 -1.9515
   79CHL1   C11 8286   5.709   3.139   7.693  0.9830  0.2384 -0.2483
   79CHL1  H11A 8287   5.795   3.069   7.693 -0.5569 -1.7438  0.3519
   79CHL1  H11B 8288   5.613   3.087   7.672  0.4310 -0.6420  3.6574
   79CHL1    C9 8289   5.722   3.256   7.599 -0.0819 -0.3861  0.0457
   79CHL1    H9 8290   5.626   3.311   7.601  0.7844  1.1606  1.2387
   79CHL1   C10 8291   5.722   3.206   7.452  0.2943 -0.1920  0.5147
   79CHL1   C19 8292   5.828   3.093   7.427 -0.6636  0.1054 -0.2716
   79CHL1  H19A 8293   5.925   3.146   7.431 -0.6169  0.0823 -0.9869
   79CHL1  H19B 8294   5.826   3.010   7.501  0.7551  0.4601  0.1865
   79CHL1  H19C 8295   5.827   3.049   7.325 -2.1581 -1.0137  0.1832
   79CHL1    C1 8296   5.585   3.149   7.413 -0.1286 -0.4570  0.9800
   79CHL1   H1A 8297   5.563   3.052   7.462 -1.9858 -0.0565  0.9851
   79CHL1   H1B 8298   5.504   3.215   7.449 -0.2557  0.8125 -1.4411
   79CHL1    C2 8299   5.564   3.120   7.257 -0.2156 -0.0416  0.0247
   79CHL1   H2A 8300   5.455   3.099   7.252 -0.0948 -0.4126 -1.7980
   79CHL1   H2B 8301   5.616   3.030   7.217  0.2050  0.0341  0.3963
   79CHL1   C20 8302   5.823   3.306   8.138  0.6490 -0.6817 -0.5145
   79CHL1   H20 8303   5.895   3.224   8.121 -0.6064 -2.0045  0.3545
   79CHL1   C21 8304   5.686   3.250   8.180  0.4452  0.3488 -0.2170
   79CHL1  H21A 8305   5.686   3.201   8.280 -1.8862  2.4501  0.9279
   79CHL1  H21B 8306   5.635   3.183   8.108 -0.7226 -1.6865  2.3324
   79CHL1  H21C 8307   5.618   3.336   8.197 -0.5551 -0.5036  0.1968
   79CHL1   C22 8308   5.876   3.408   8.240  0.3803 -0.4993 -0.3440
   79CHL1  H22A 8309   5.976   3.444   8.209 -0.0623  0.1606 -1.0611
   79CHL1  H22B 8310   5.803   3.492   8.239  0.9306  0.1674  3.0653
   79CHL1   C23 8311   5.883   3.364   8.388 -0.2523  0.4122  0.3437
   79CHL1  H23A 8312   5.924   3.445   8.453  2.3056 -0.7805  0.3355
   79CHL1  H23B 8313   5.778   3.342   8.416 -0.2825  0.5928  0.3770
   79CHL1   C24 8314   5.972   3.238   8.411  0.8195 -0.6256 -0.2253
   79CHL1  H24A 8315   5.928   3.157   8.349  1.1689 -0.2689 -0.9524
   79CHL1  H24B 8316   6.073   3.261   8.371  0.9437  2.4423  1.5442
   79CHL1   C25 8317   5.983   3.197   8.557  0.4493  0.3943 -0.1921
   79CHL1   H25 8318   5.877   3.194   8.591  0.4872  2.3536  0.2519
   79CHL1   C26 8319   6.046   3.058   8.570 -0.1627 -0.4354  0.9918
   79CHL1  H26A 8320   5.979   2.986   8.518 -1.8508 -0.2144  2.7116
   79CHL1  H26B 8321   6.145   3.066   8.520 -0.6734  0.9344  0.1541
   79CHL1  H26C 8322   6.058   3.021   8.675 -0.4930  1.0549  1.5749
   79CHL1   C27 8323   6.049   3.298   8.644  0.7030 -0.4012 -0.2515
   79CHL1  H27A 8324   5.976   3.381   8.652 -0.8644 -1.5273 -1.8258
   79CHL1  H27B 8325   6.078   3.252   8.741  1.9192 -1.6744 -1.1727
   79CHL1  H27C 8326   6.144   3.328   8.595  0.9951 -0.9665 -0.0419
   80CHL1    C3 8327   5.641   0.761   6.964  0.3575  0.4890 -0.3587
   80CHL1    H3 8328   5.748   0.747   6.991 -0.4529 -1.7990  2.0264
   80CHL1    O3 8329   5.623   0.737   6.825 -0.3700 -0.0953  0.5275
   80CHL1   H3' 8330   5.707   0.694   6.805  0.5031  1.3413  0.9716
   80CHL1    C4 8331   5.564   0.651   7.026 -1.0063  0.6403 -0.1054
   80CHL1   H4A 8332   5.456   0.663   7.004 -1.4883 -2.8904 -0.1223
   80CHL1   H4B 8333   5.595   0.555   6.980  0.3870  1.1127 -0.1820
   80CHL1    C5 8334   5.575   0.662   7.173 -0.9249  0.1591 -0.1634
   80CHL1    C6 8335   5.633   0.560   7.240  0.1202 -0.2532 -0.5765
   80CHL1    H6 8336   5.664   0.467   7.190  0.8600 -0.3630  0.0764
   80CHL1    C7 8337   5.659   0.564   7.394  0.4837  0.9596  0.0256
   80CHL1   H7A 8338   5.631   0.469   7.444  0.9378 -0.0776 -1.6109
   80CHL1   H7B 8339   5.767   0.587   7.402  0.6820 -0.0072  0.2729
   80CHL1    C8 8340   5.579   0.679   7.463 -0.3573 -0.4871  0.1837
   80CHL1    H8 8341   5.471   0.653   7.460 -1.2255  2.7117 -0.1033
   80CHL1   C14 8342   5.626   0.702   7.609  0.4691 -0.3215 -0.1166
   80CHL1   H14 8343   5.734   0.725   7.601  0.4868  0.1326  1.1729
   80CHL1   C15 8344   5.621   0.576   7.700  0.2142 -0.2058 -0.1514
   80CHL1  H15A 8345   5.515   0.545   7.687 -0.1964  1.3109 -0.6711
   80CHL1  H15B 8346   5.687   0.489   7.684  1.0788 -0.4372  3.7724
   80CHL1   C16 8347   5.630   0.642   7.837  0.0153  0.3612 -0.7598
   80CHL1  H16A 8348   5.546   0.606   7.901  0.7191 -2.0322 -1.1156
   80CHL1  H16B 8349   5.730   0.621   7.882 -0.1135 -1.2319 -1.1591
   80CHL1   C17 8350   5.625   0.798   7.822  0.1724  0.1844  0.2972
   80CHL1   H17 8351   5.730   0.828   7.806  0.4482 -0.9562 -0.1074
   80CHL1   C13 8352   5.560   0.816   7.686 -0.0721  0.0248 -0.1095
   80CHL1   C18 8353   5.408   0.786   7.709 -0.5816 -0.5744 -0.2160
   80CHL1  H18A 8354   5.392   0.698   7.774  0.7923 -0.3330  0.4689
   80CHL1  H18B 8355   5.358   0.875   7.753 -1.0017 -0.6885 -0.4573
   80CHL1  H18C 8356   5.352   0.776   7.613  0.2139  1.2757 -0.9369
   80CHL1   C12 8357   5.578   0.946   7.605 -0.6470  0.5937 -0.0516
   80CHL1  H12A 8358   5.524   1.033   7.647 -1.8255 -0.7111  1.2284
   80CHL1  H12B 8359   5.687   0.965   7.604 -0.5282 -0.0592 -0.0854
   80CHL1   C11 8360   5.523   0.928   7.458 -0.2272 -0.9588  0.4563
   80CHL1  H11A 8361   5.412   0.919   7.469 -0.0989 -0.7585  2.2393
   80CHL1  H11B 8362   5.546   1.028   7.418 -1.6230  0.2707  2.4892
   80CHL1    C9 8363   5.587   0.810   7.385  0.0678 -0.3319  0.7005
   80CHL1    H9 8364   5.696   0.829   7.376  0.5785 -2.5838  1.5888
   80CHL1   C10 8365   5.539   0.799   7.236  0.0290 -0.5082  0.6862
   80CHL1   C19 8366   5.381   0.808   7.218 -0.5572  0.4916  0.6153
   80CHL1  H19A 8367   5.324   0.743   7.288 -1.3266  1.9792  1.4030
   80CHL1  H19B 8368   5.358   0.913   7.244  0.3980  0.6432  0.8610
   80CHL1  H19C 8369   5.357   0.798   7.110 -0.1068 -1.8894  0.6813
   80CHL1    C1 8370   5.600   0.914   7.158 -0.3116 -0.5663  0.4727
   80CHL1   H1A 8371   5.568   1.015   7.191 -1.3241 -0.9181  0.5771
   80CHL1   H1B 8372   5.709   0.906   7.180  0.1973 -0.4291 -1.7344
   80CHL1    C2 8373   5.587   0.895   7.008  0.1517 -0.4343  0.8582
   80CHL1   H2A 8374   5.638   0.976   6.951  0.2109 -1.1394 -0.1061
   80CHL1   H2B 8375   5.485   0.913   6.967  0.5159  1.2394  0.6221
   80CHL1   C20 8376   5.574   0.863   7.957  0.0282 -0.1796  0.2117
   80CHL1   H20 8377   5.474   0.824   7.984  0.2300  0.0155  1.2666
   80CHL1   C21 8378   5.560   1.015   7.931  0.8332 -0.6211 -0.4415
   80CHL1  H21A 8379   5.656   1.061   7.902  0.1505  1.4686  0.4631
   80CHL1  H21B 8380   5.523   1.056   8.027 -0.4104  0.6207 -1.4076
   80CHL1  H21C 8381   5.490   1.028   7.846 -1.4412 -4.1764  0.6590
   80CHL1   C22 8382   5.657   0.838   8.084  0.1653  0.2363  0.7437
   80CHL1  H22A 8383   5.595   0.854   8.175 -0.2852 -1.9009  0.8742
   80CHL1  H22B 8384   5.689   0.732   8.088 -0.0258  0.1868  1.0248
   80CHL1   C23 8385   5.799   0.911   8.091  0.1561 -0.5943 -0.1179
   80CHL1  H23A 8386   5.849   0.905   7.992  1.3778 -0.3286  0.4609
   80CHL1  H23B 8387   5.787   1.022   8.098  0.5506 -0.4128 -1.8362
   80CHL1   C24 8388   5.886   0.864   8.204 -0.2054 -0.0096 -0.5926
   80CHL1  H24A 8389   5.830   0.898   8.294 -0.9583  1.6472 -1.6467
   80CHL1  H24B 8390   5.896   0.754   8.212 -0.4942  0.0840  1.9439
   80CHL1   C25 8391   6.031   0.919   8.212 -0.0490 -0.4394  1.0538
   80CHL1   H25 8392   6.027   1.025   8.179  1.5234 -0.1566  1.6745
   80CHL1   C26 8393   6.088   0.925   8.354 -0.7933 -0.3613 -0.1502
   80CHL1  H26A 8394   6.099   0.823   8.397  0.8219 -0.2778 -0.2976
   80CHL1  H26B 8395   6.191   0.966   8.358 -1.3234  1.0385 -0.1507
   80CHL1  H26C 8396   6.018   0.983   8.418  0.4781  2.6109 -1.2944
   80CHL1   C27 8397   6.130   0.842   8.121 -0.3304  0.0111  0.3930
   80CHL1  H27A 8398   6.133   0.734   8.147 -3.1250 -0.1841  0.2264
   80CHL1  H27B 8399   6.104   0.845   8.013 -1.5729  0.4514  0.6866
   80CHL1  H27C 8400   6.232   0.885   8.133 -1.3719  2.7441  0.1607
   81CHL1    C3 8401   3.324   0.217   6.835 -0.2333  0.6876 -0.0368
   81CHL1    H3 8402   3.229   0.273   6.820 -0.5258  0.4620  0.9228
   81CHL1    O3 8403   3.389   0.232   6.708  0.3384  0.4642  0.4702
   81CHL1   H3' 8404   3.355   0.160   6.654  0.3813  0.9841 -0.2696
   81CHL1    C4 8405   3.403   0.285   6.942 -0.1351 -0.3859  0.9190
   81CHL1   H4A 8406   3.497   0.227   6.942 -1.7140 -3.1481  0.1062
   81CHL1   H4B 8407   3.429   0.385   6.900  2.6622 -1.1106  0.7852
   81CHL1    C5 8408   3.354   0.299   7.084  0.1720  0.1456  0.2401
   81CHL1    C6 8409   3.337   0.417   7.148  0.9469  0.4931  0.1307
   81CHL1    H6 8410   3.363   0.512   7.099  0.1966  1.0726  0.8283
   81CHL1    C7 8411   3.282   0.433   7.287  0.3013  0.3413  0.6651
   81CHL1   H7A 8412   3.338   0.505   7.351  0.9042 -0.1859  0.7407
   81CHL1   H7B 8413   3.181   0.476   7.275  0.3952  0.3411 -0.1761
   81CHL1    C8 8414   3.274   0.293   7.359 -0.3871 -0.8365 -0.7651
   81CHL1    H8 8415   3.369   0.262   7.406 -1.0178 -1.0128  0.4327
   81CHL1   C14 8416   3.177   0.299   7.475  0.9363 -0.0489 -0.4704
   81CHL1   H14 8417   3.085   0.329   7.420  2.3365  1.5475 -2.0663
   81CHL1   C15 8418   3.195   0.411   7.578 -0.3043 -0.1971 -0.1023
   81CHL1  H15A 8419   3.301   0.445   7.591 -0.8097  0.9111  1.4251
   81CHL1  H15B 8420   3.136   0.496   7.538 -0.6179 -0.8788 -1.1330
   81CHL1   C16 8421   3.125   0.357   7.698  0.1868 -0.2359  0.3123
   81CHL1  H16A 8422   3.195   0.331   7.780  2.0035 -2.6691 -1.8613
   81CHL1  H16B 8423   3.049   0.428   7.737 -0.5116 -0.2364 -0.9825
   81CHL1   C17 8424   3.055   0.219   7.662 -0.7946 -0.2341 -0.9074
   81CHL1   H17 8425   2.963   0.256   7.612  0.0488  0.7483 -1.7647
   81CHL1   C13 8426   3.139   0.170   7.545 -0.1784 -0.0711 -1.0708
   81CHL1   C18 8427   3.279   0.118   7.599 -0.5085 -0.3233 -0.5698
   81CHL1  H18A 8428   3.325   0.201   7.657  0.2759  0.6575 -2.5194
   81CHL1  H18B 8429   3.260   0.030   7.663 -4.2446  0.6964 -0.0345
   81CHL1  H18C 8430   3.352   0.100   7.517 -0.6332 -1.3616 -0.4593
   81CHL1   C12 8431   3.075   0.068   7.449 -0.2023 -0.4508  0.4144
   81CHL1  H12A 8432   3.049  -0.033   7.487 -0.3504  0.2418  2.2609
   81CHL1  H12B 8433   2.990   0.127   7.408  1.0261  1.2337  0.1945
   81CHL1   C11 8434   3.179   0.046   7.328 -0.0486 -1.0439 -0.2652
   81CHL1  H11A 8435   3.264  -0.014   7.368 -1.4635 -2.1701  1.1630
   81CHL1  H11B 8436   3.127  -0.019   7.254 -0.8712 -1.5518  0.7339
   81CHL1    C9 8437   3.224   0.181   7.264 -0.0858  0.7492 -0.0840
   81CHL1    H9 8438   3.131   0.223   7.223 -1.7412 -3.9803 -1.8677
   81CHL1   C10 8439   3.317   0.162   7.136  0.8711  0.1811  0.7032
   81CHL1   C19 8440   3.441   0.083   7.182  0.1218  0.5432  0.3995
   81CHL1  H19A 8441   3.423  -0.009   7.241 -0.6878 -0.1731 -0.9256
   81CHL1  H19B 8442   3.507   0.060   7.095 -1.1472 -1.0392 -0.1836
   81CHL1  H19C 8443   3.506   0.148   7.245  1.5808  1.3601 -1.8277
   81CHL1    C1 8444   3.251   0.074   7.014  0.0992 -0.6024 -0.1803
   81CHL1   H1A 8445   3.246  -0.029   7.056 -1.1814  0.6589  3.1433
   81CHL1   H1B 8446   3.144   0.105   7.011  0.3007  0.1301 -0.1350
   81CHL1    C2 8447   3.302   0.077   6.872  0.1466 -0.1411  0.1675
   81CHL1   H2A 8448   3.224   0.031   6.808  0.1616 -1.3565  0.9929
   81CHL1   H2B 8449   3.396   0.017   6.869  1.0604  1.1779  1.1601
   81CHL1   C20 8450   3.016   0.135   7.782 -0.2258  0.1476 -0.5328
   81CHL1   H20 8451   3.106   0.105   7.839 -0.5061  1.4219  0.6209
   81CHL1   C21 8452   2.925   0.020   7.737 -0.3942 -0.1466  0.0196
   81CHL1  H21A 8453   2.974  -0.053   7.669  1.8180  0.7696  0.5479
   81CHL1  H21B 8454   2.842   0.058   7.674 -1.9255 -0.6121  1.7029
   81CHL1  H21C 8455   2.879  -0.038   7.819 -0.3006  1.7052  1.4536
   81CHL1   C22 8456   2.934   0.218   7.895 -0.0093  0.5375 -0.4166
   81CHL1  H22A 8457   2.973   0.320   7.915 -0.5026  0.2287  2.6060
   81CHL1  H22B 8458   2.835   0.236   7.848 -0.0182  1.1924 -0.1543
   81CHL1   C23 8459   2.926   0.135   8.025 -0.3211  0.7469 -0.2167
   81CHL1  H23A 8460   2.890   0.031   8.009  3.9870 -0.7837 -1.5383
   81CHL1  H23B 8461   3.034   0.129   8.053 -0.1294 -0.3320 -1.1060
   81CHL1   C24 8462   2.852   0.202   8.137 -0.1793 -0.0798  0.3652
   81CHL1  H24A 8463   2.894   0.301   8.164  0.5683 -0.3678  0.2776
   81CHL1  H24B 8464   2.748   0.213   8.099  0.3943 -0.8002 -1.4912
   81CHL1   C25 8465   2.856   0.130   8.274  0.8191 -0.3521 -0.1578
   81CHL1   H25 8466   2.960   0.123   8.314  0.4268 -0.7050  0.8300
   81CHL1   C26 8467   2.770   0.218   8.369 -0.1408  0.8642 -0.5406
   81CHL1  H26A 8468   2.662   0.201   8.351 -0.1880  1.2336 -0.6000
   81CHL1  H26B 8469   2.791   0.169   8.467 -0.0770  0.2905 -0.8400
   81CHL1  H26C 8470   2.812   0.321   8.373 -1.1977  1.3309 -1.0784
   81CHL1   C27 8471   2.793  -0.015   8.259  0.0825  0.4496  0.2317
   81CHL1  H27A 8472   2.693   0.001   8.214 -0.4769  0.2558  1.3627
   81CHL1  H27B 8473   2.854  -0.075   8.187  0.8611  1.2885  0.1786
   81CHL1  H27C 8474   2.770  -0.063   8.357 -0.4980 -2.5024 -1.2243
   82CHL1    C3 8475   3.352   1.028   7.024 -0.1320  0.6944  0.0757
   82CHL1    H3 8476   3.247   1.061   7.005 -0.7970 -0.9431  0.7413
   82CHL1    O3 8477   3.413   1.031   6.900 -0.3940  0.4698 -0.2798
   82CHL1   H3' 8478   3.498   0.987   6.908 -1.8780 -2.8279 -0.9734
   82CHL1    C4 8479   3.418   1.117   7.124 -0.0342  0.2678  0.1565
   82CHL1   H4A 8480   3.523   1.080   7.122 -0.5149 -1.1402 -0.0175
   82CHL1   H4B 8481   3.432   1.222   7.090  2.2997  0.1480  0.5730
   82CHL1    C5 8482   3.371   1.108   7.267 -0.1462  0.3747  0.2985
   82CHL1    C6 8483   3.342   1.213   7.341  0.3360  0.5686 -0.2379
   82CHL1    H6 8484   3.360   1.313   7.298 -2.6636 -0.3386 -4.2906
   82CHL1    C7 8485   3.330   1.208   7.492  0.6059  0.1431 -0.0575
   82CHL1   H7A 8486   3.413   1.267   7.537  0.5448  0.6454 -0.5883
   82CHL1   H7B 8487   3.233   1.259   7.510  1.2339  0.8773  1.4740
   82CHL1    C8 8488   3.329   1.067   7.549  0.1574 -0.3719  0.1759
   82CHL1    H8 8489   3.434   1.047   7.577  0.2569  0.4178  0.3838
   82CHL1   C14 8490   3.251   1.065   7.679 -0.2786  1.2094 -0.1201
   82CHL1   H14 8491   3.144   1.092   7.665  0.0223  2.2686 -0.4314
   82CHL1   C15 8492   3.310   1.175   7.778  0.5366  0.3767  0.2062
   82CHL1  H15A 8493   3.421   1.184   7.769  0.4871 -0.6495 -2.5990
   82CHL1  H15B 8494   3.259   1.271   7.755 -1.1513 -0.7559 -1.0064
   82CHL1   C16 8495   3.262   1.115   7.920  0.7992 -0.3331 -0.2409
   82CHL1  H16A 8496   3.356   1.099   7.977  1.3031  1.5647 -0.4759
   82CHL1  H16B 8497   3.194   1.187   7.969  0.1653 -0.1887 -1.2881
   82CHL1   C17 8498   3.186   0.982   7.894  0.2078 -0.6892  0.1825
   82CHL1   H17 8499   3.081   1.015   7.876  1.0478  1.3800 -1.2797
   82CHL1   C13 8500   3.250   0.934   7.756 -0.7659 -0.4387  0.4128
   82CHL1   C18 8501   3.397   0.886   7.783 -0.0362  0.3389  0.0657
   82CHL1  H18A 8502   3.456   0.956   7.846 -1.3583  2.0654 -0.5400
   82CHL1  H18B 8503   3.408   0.783   7.823  3.6167  0.8980  0.9557
   82CHL1  H18C 8504   3.444   0.866   7.684  0.4628  0.2580  0.3133
   82CHL1   C12 8505   3.184   0.833   7.661  0.2180  0.2389  0.8742
   82CHL1  H12A 8506   3.191   0.729   7.700  0.6409  0.5739  1.7313
   82CHL1  H12B 8507   3.076   0.850   7.644  0.2394  0.8256  1.2903
   82CHL1   C11 8508   3.255   0.827   7.523  0.3632  0.1228  0.2923
   82CHL1  H11A 8509   3.353   0.776   7.538 -0.2759 -0.6700  1.9500
   82CHL1  H11B 8510   3.188   0.764   7.459  1.3183 -0.0388 -0.5863
   82CHL1    C9 8511   3.276   0.964   7.451 -0.8828 -0.0749 -0.3461
   82CHL1    H9 8512   3.171   0.990   7.423 -0.4381  1.0298 -1.0814
   82CHL1   C10 8513   3.358   0.961   7.317 -0.7292  0.4359 -0.9288
   82CHL1   C19 8514   3.500   0.904   7.347  0.6786 -0.5332 -0.5008
   82CHL1  H19A 8515   3.555   0.886   7.252  1.5354 -2.2302  0.2732
   82CHL1  H19B 8516   3.548   0.974   7.419 -2.8948  1.5100  0.1075
   82CHL1  H19C 8517   3.496   0.808   7.403 -1.5587 -1.1895 -1.6738
   82CHL1    C1 8518   3.284   0.877   7.204 -0.1020  0.3360 -0.1548
   82CHL1   H1A 8519   3.275   0.775   7.245 -0.1797  1.2814  2.3269
   82CHL1   H1B 8520   3.179   0.914   7.199  0.6621  2.4884 -2.8597
   82CHL1    C2 8521   3.345   0.880   7.060  0.1155 -0.0113  0.1615
   82CHL1   H2A 8522   3.285   0.824   6.986 -0.5754 -0.5620  1.1202
   82CHL1   H2B 8523   3.443   0.829   7.071 -0.0885 -0.5169 -0.3186
   82CHL1   C20 8524   3.192   0.885   8.011 -0.1236 -0.6242  0.0120
   82CHL1   H20 8525   3.291   0.836   8.008 -0.1002 -0.5542 -0.6120
   82CHL1   C21 8526   3.081   0.770   7.987  0.8576 -0.2944 -0.1845
   82CHL1  H21A 8527   3.092   0.732   7.883  1.2431  2.8002 -1.3585
   82CHL1  H21B 8528   2.979   0.812   7.997  1.1182  0.0702  1.0666
   82CHL1  H21C 8529   3.100   0.687   8.059  3.0607 -0.7125 -1.1480
   82CHL1   C22 8530   3.180   0.948   8.153  0.1540  0.0857  0.2230
   82CHL1  H22A 8531   3.262   1.021   8.169  0.2397  0.9139 -3.2335
   82CHL1  H22B 8532   3.074   0.980   8.159 -0.2335 -0.8102 -1.2211
   82CHL1   C23 8533   3.198   0.851   8.271  0.2728  0.0473  0.2005
   82CHL1  H23A 8534   3.145   0.754   8.258  3.7448 -2.1714  1.1415
   82CHL1  H23B 8535   3.302   0.813   8.273 -0.2976 -1.6250  0.0415
   82CHL1   C24 8536   3.164   0.904   8.411  0.3006  0.4304  0.4890
   82CHL1  H24A 8537   3.223   0.998   8.421  2.0439 -0.7198  1.6152
   82CHL1  H24B 8538   3.054   0.918   8.410  0.4932  2.1633 -0.8253
   82CHL1   C25 8539   3.197   0.800   8.519  0.6073  0.0919  0.1717
   82CHL1   H25 8540   3.161   0.705   8.475  2.3320 -1.0008  0.9565
   82CHL1   C26 8541   3.343   0.778   8.533  0.3009 -0.3458 -0.4226
   82CHL1  H26A 8542   3.388   0.739   8.440 -0.1376  0.0298 -0.7959
   82CHL1  H26B 8543   3.386   0.876   8.564 -1.4857  0.3226  0.0128
   82CHL1  H26C 8544   3.358   0.702   8.612 -2.3852 -0.2981  0.2258
   82CHL1   C27 8545   3.123   0.836   8.651 -0.6879  0.0930 -0.2418
   82CHL1  H27A 8546   3.013   0.840   8.636 -0.6465  1.0985 -0.3212
   82CHL1  H27B 8547   3.149   0.778   8.742 -2.1405  2.8513  2.0717
   82CHL1  H27C 8548   3.154   0.940   8.675 -0.9557 -0.4078  2.6023
   83CHL1    C3 8549   6.145   3.194   7.021  0.2315  0.2474  0.6801
   83CHL1    H3 8550   6.079   3.111   7.055  1.3042 -0.1073  1.9592
   83CHL1    O3 8551   6.115   3.242   6.890  0.4041  0.2745  0.3450
   83CHL1   H3' 8552   6.147   3.170   6.835 -0.8646 -0.2884  0.3203
   83CHL1    C4 8553   6.146   3.314   7.121  0.4214  0.3652  0.3739
   83CHL1   H4A 8554   6.204   3.394   7.070  0.3505  0.2936  0.1795
   83CHL1   H4B 8555   6.038   3.342   7.122  0.3938  0.3685 -0.8568
   83CHL1    C5 8556   6.214   3.269   7.255  0.1699 -0.3787 -0.0856
   83CHL1    C6 8557   6.152   3.286   7.373 -0.2031 -0.4752  0.1003
   83CHL1    H6 8558   6.050   3.325   7.360  0.3972  0.6365 -1.6603
   83CHL1    C7 8559   6.212   3.264   7.507  0.6662  0.3985  0.4579
   83CHL1   H7A 8560   6.186   3.352   7.569 -2.6430 -1.8342  2.5988
   83CHL1   H7B 8561   6.156   3.175   7.545  2.5681 -1.1891 -0.2532
   83CHL1    C8 8562   6.360   3.242   7.502  0.3451  0.5865  0.3968
   83CHL1    H8 8563   6.415   3.338   7.484  1.6591  0.1785  1.9947
   83CHL1   C14 8564   6.403   3.173   7.626  0.8688  0.5216  0.2954
   83CHL1   H14 8565   6.347   3.077   7.623  1.6839  0.0204  0.7200
   83CHL1   C15 8566   6.372   3.241   7.758 -0.0582  0.5315 -0.6305
   83CHL1  H15A 8567   6.403   3.347   7.744  0.3123  0.7162  1.2680
   83CHL1  H15B 8568   6.263   3.241   7.778 -0.2047  0.5759 -1.3941
   83CHL1   C16 8569   6.455   3.162   7.858 -0.2849 -0.2641 -0.7700
   83CHL1  H16A 8570   6.506   3.237   7.922  2.0964 -0.7118 -2.0165
   83CHL1  H16B 8571   6.389   3.092   7.912 -1.2884  0.8918 -0.4505
   83CHL1   C17 8572   6.555   3.077   7.779  0.3950 -0.2569 -0.2392
   83CHL1   H17 8573   6.502   2.979   7.780 -0.8390  0.3516 -1.7724
   83CHL1   C13 8574   6.552   3.134   7.632 -0.7057  0.4566  0.0796
   83CHL1   C18 8575   6.643   3.259   7.641  0.4637 -0.2825 -0.3029
   83CHL1  H18A 8576   6.604   3.333   7.568  3.8923 -1.0798 -3.2173
   83CHL1  H18B 8577   6.630   3.304   7.742 -2.0213 -2.3519  0.4368
   83CHL1  H18C 8578   6.749   3.233   7.620  0.8204  0.2028  0.8256
   83CHL1   C12 8579   6.600   3.041   7.519  0.2828 -0.5626 -0.2391
   83CHL1  H12A 8580   6.710   3.029   7.511  0.2304 -0.3534 -1.5282
   83CHL1  H12B 8581   6.566   2.937   7.535 -0.0144 -0.2893  0.9764
   83CHL1   C11 8582   6.546   3.100   7.387  0.4231  0.0073  0.3136
   83CHL1  H11A 8583   6.598   3.191   7.351  0.3009 -0.2254 -0.4727
   83CHL1  H11B 8584   6.564   3.027   7.306 -3.3599 -0.5619 -0.2071
   83CHL1    C9 8585   6.399   3.146   7.384  0.0949  0.2918 -0.4020
   83CHL1    H9 8586   6.340   3.053   7.398 -1.1015  1.1059  0.1734
   83CHL1   C10 8587   6.358   3.218   7.246 -0.4015  0.4776 -0.1542
   83CHL1   C19 8588   6.448   3.334   7.206 -0.0841 -0.4718 -0.3720
   83CHL1  H19A 8589   6.553   3.298   7.195 -0.0925 -0.4690 -0.4642
   83CHL1  H19B 8590   6.419   3.371   7.106  0.3399 -2.1662 -1.1713
   83CHL1  H19C 8591   6.444   3.417   7.280  0.3645  0.0707 -0.9457
   83CHL1    C1 8592   6.357   3.104   7.141  0.0480 -0.5935 -0.1225
   83CHL1   H1A 8593   6.461   3.085   7.107  0.2373 -1.6549  0.9507
   83CHL1   H1B 8594   6.320   3.003   7.171 -0.2679 -1.0017 -1.8097
   83CHL1    C2 8595   6.285   3.141   7.008 -1.0628  0.2664  0.7058
   83CHL1   H2A 8596   6.294   3.049   6.946  1.7979 -0.0971  1.5038
   83CHL1   H2B 8597   6.344   3.227   6.968 -1.4466 -0.6378 -2.0509
   83CHL1   C20 8598   6.686   3.049   7.857 -0.3036 -0.3666 -0.7303
   83CHL1   H20 8599   6.737   3.148   7.859 -0.5005 -0.2746 -0.2142
   83CHL1   C21 8600   6.766   2.938   7.790 -0.0724 -0.0773  0.2305
   83CHL1  H21A 8601   6.860   2.919   7.847  1.4070 -1.6471 -2.5073
   83CHL1  H21B 8602   6.799   2.956   7.685  0.1137 -1.5880  0.0140
   83CHL1  H21C 8603   6.721   2.837   7.793  1.3824 -0.7453  0.3302
   83CHL1   C22 8604   6.660   3.010   8.005  0.1360 -0.0051 -0.3854
   83CHL1  H22A 8605   6.602   3.090   8.056 -0.5321  0.4172 -1.7509
   83CHL1  H22B 8606   6.594   2.920   8.006 -0.0773  0.1545  0.0920
   83CHL1   C23 8607   6.779   2.974   8.095  0.2233  0.2566 -0.5786
   83CHL1  H23A 8608   6.737   2.968   8.198 -0.0156 -1.5885 -0.7403
   83CHL1  H23B 8609   6.818   2.877   8.058 -0.3484 -0.0356 -0.4275
   83CHL1   C24 8610   6.894   3.070   8.102  0.3329  0.0832 -0.2760
   83CHL1  H24A 8611   6.938   3.107   8.007  0.6254 -0.4774 -0.3659
   83CHL1  H24B 8612   6.850   3.163   8.143  0.4979 -0.3838  0.9992
   83CHL1   C25 8613   7.008   3.034   8.199 -0.4889  0.5421 -0.3387
   83CHL1   H25 8614   7.058   2.937   8.173  0.2244 -0.1865  3.1977
   83CHL1   C26 8615   7.125   3.135   8.189 -1.2876  0.3607  0.5992
   83CHL1  H26A 8616   7.154   3.139   8.081  0.3060 -1.5200  0.8968
   83CHL1  H26B 8617   7.088   3.232   8.228  2.2843  1.8358  0.6987
   83CHL1  H26C 8618   7.224   3.109   8.231  0.0681  1.4577 -1.6882
   83CHL1   C27 8619   6.958   3.022   8.340  0.4353  0.2428 -0.9480
   83CHL1  H27A 8620   7.034   2.996   8.416 -1.1720 -1.4893  0.1406
   83CHL1  H27B 8621   6.905   3.113   8.372  1.1744 -0.1993  1.7419
   83CHL1  H27C 8622   6.886   2.937   8.342  1.7207 -0.8918  1.2791
   84CHL1    C3 8623   0.164   5.235   7.087 -0.0196 -0.5980  1.1807
   84CHL1    H3 8624   0.176   5.344   7.106  1.2452 -0.1952 -1.5276
   84CHL1    O3 8625   0.084   5.216   6.966 -0.2824 -0.2055  0.4393
   84CHL1   H3' 8626   0.087   5.121   6.956  0.6782 -0.2834  1.2710
   84CHL1    C4 8627   0.318   5.187   7.071  0.2245  0.1708 -0.5309
   84CHL1   H4A 8628   0.319   5.081   7.038 -1.1995 -0.1510  0.3408
   84CHL1   H4B 8629   0.351   5.235   6.977 -4.3779 -0.4823 -2.7747
   84CHL1    C5 8630   0.405   5.218   7.196  0.6174 -0.3488  0.5204
   84CHL1    C6 8631   0.516   5.286   7.185 -0.0965 -0.1228 -0.7198
   84CHL1    H6 8632   0.553   5.327   7.090  0.1618  2.9597  0.5686
   84CHL1    C7 8633   0.595   5.325   7.312 -0.3095 -0.3478  0.4326
   84CHL1   H7A 8634   0.703   5.302   7.296 -0.3581  0.5116 -1.3237
   84CHL1   H7B 8635   0.582   5.435   7.323 -0.5227 -0.3794  0.4999
   84CHL1    C8 8636   0.550   5.249   7.437 -0.0271  0.0944  0.6441
   84CHL1    H8 8637   0.580   5.142   7.430 -1.6957 -0.4113  0.8570
   84CHL1   C14 8638   0.623   5.312   7.554  0.0251 -0.4101  0.4023
   84CHL1   H14 8639   0.592   5.418   7.557  1.4540  0.0681 -0.7715
   84CHL1   C15 8640   0.776   5.313   7.544 -0.2452 -0.3050  0.1106
   84CHL1  H15A 8641   0.806   5.213   7.506  1.9232  0.3737 -0.0909
   84CHL1  H15B 8642   0.820   5.395   7.483  0.1726  0.0108  0.8219
   84CHL1   C16 8643   0.817   5.332   7.687  0.8809 -0.1392 -0.9186
   84CHL1  H16A 8644   0.894   5.254   7.707 -1.5558 -2.4295  0.2142
   84CHL1  H16B 8645   0.866   5.432   7.692 -1.3850  0.9561  1.4812
   84CHL1   C17 8646   0.689   5.330   7.779  0.6206  0.0323 -0.0478
   84CHL1   H17 8647   0.651   5.434   7.787 -0.0841 -0.2152 -0.0938
   84CHL1   C13 8648   0.587   5.259   7.691 -0.3037  0.0670  0.8336
   84CHL1   C18 8649   0.629   5.108   7.691 -0.5040  0.1553  0.6629
   84CHL1  H18A 8650   0.562   5.045   7.629 -1.1297  0.8291  0.6433
   84CHL1  H18B 8651   0.729   5.074   7.657 -1.2607 -1.1967 -0.3165
   84CHL1  H18C 8652   0.629   5.069   7.795  1.5549  0.3840  0.8017
   84CHL1   C12 8653   0.440   5.271   7.715  0.1087  1.1772  0.8920
   84CHL1  H12A 8654   0.405   5.227   7.811  2.0683 -1.1904  0.6137
   84CHL1  H12B 8655   0.415   5.379   7.718  0.0369  1.1856  0.1354
   84CHL1   C11 8656   0.356   5.206   7.598 -0.8117 -0.0970 -0.3473
   84CHL1  H11A 8657   0.367   5.095   7.596 -3.0587 -0.3641 -1.0206
   84CHL1  H11B 8658   0.247   5.225   7.610 -0.4797  1.6482  0.1668
   84CHL1    C9 8659   0.394   5.249   7.452 -0.3355 -0.2017  0.2886
   84CHL1    H9 8660   0.356   5.353   7.446  0.3694  0.1671  1.7504
   84CHL1   C10 8661   0.327   5.177   7.335  0.7454  0.3730  0.2565
   84CHL1   C19 8662   0.336   5.024   7.350  0.5520  0.1454  0.3375
   84CHL1  H19A 8663   0.438   4.984   7.371 -0.6198 -3.0753  0.4403
   84CHL1  H19B 8664   0.277   4.988   7.437 -0.4150  1.0549  0.0740
   84CHL1  H19C 8665   0.305   4.972   7.257  0.7084  0.9940 -0.2045
   84CHL1    C1 8666   0.177   5.221   7.335  0.0517 -0.1429  0.0234
   84CHL1   H1A 8667   0.134   5.189   7.433  1.6116  0.8212  1.0728
   84CHL1   H1B 8668   0.175   5.332   7.341 -0.3213 -0.1163 -0.5232
   84CHL1    C2 8669   0.100   5.180   7.212 -0.2685 -0.0490  0.3208
   84CHL1   H2A 8670  -0.005   5.215   7.204  0.2712  1.3520 -1.3894
   84CHL1   H2B 8671   0.105   5.070   7.198 -2.4199 -0.3741  1.6036
   84CHL1   C20 8672   0.720   5.295   7.927  0.3407 -0.6545 -0.1671
   84CHL1   H20 8673   0.717   5.184   7.935 -1.1073 -0.6798 -0.7866
   84CHL1   C21 8674   0.622   5.358   8.020 -0.2624  0.3165 -0.2675
   84CHL1  H21A 8675   0.640   5.467   8.026  1.7669 -0.0462  2.1380
   84CHL1  H21B 8676   0.621   5.323   8.126 -2.0622  0.3090 -0.2452
   84CHL1  H21C 8677   0.517   5.352   7.985  0.1022  2.1392 -1.7647
   84CHL1   C22 8678   0.856   5.348   7.976 -0.1741  0.4633 -0.9291
   84CHL1  H22A 8679   0.932   5.312   7.903 -1.5487  0.0898 -2.2281
   84CHL1  H22B 8680   0.867   5.458   7.989  0.7561  0.4294 -1.3457
   84CHL1   C23 8681   0.890   5.296   8.123  0.2497  0.1448 -0.2312
   84CHL1  H23A 8682   0.815   5.338   8.193 -0.8348 -0.1894 -1.1636
   84CHL1  H23B 8683   0.866   5.187   8.124 -1.7248  0.5373  0.9588
   84CHL1   C24 8684   1.037   5.312   8.169  0.5991  0.0208  0.0475
   84CHL1  H24A 8685   1.041   5.281   8.275 -0.4524 -1.4607 -0.3154
   84CHL1  H24B 8686   1.118   5.266   8.108  0.9411  1.5876 -0.7401
   84CHL1   C25 8687   1.072   5.463   8.181 -0.4192 -0.2787 -0.5062
   84CHL1   H25 8688   1.067   5.510   8.080  3.2873  2.6069  0.4363
   84CHL1   C26 8689   0.967   5.546   8.261 -0.1047 -0.1362  0.6462
   84CHL1  H26A 8690   0.956   5.504   8.363 -1.5448  0.5865  0.8090
   84CHL1  H26B 8691   1.010   5.648   8.272 -0.3460  0.3071 -1.8518
   84CHL1  H26C 8692   0.868   5.552   8.210  0.2621  1.5134  0.0586
   84CHL1   C27 8693   1.212   5.480   8.234 -0.1009  0.5096 -0.0436
   84CHL1  H27A 8694   1.283   5.428   8.167  0.2443 -0.9532  1.4219
   84CHL1  H27B 8695   1.232   5.589   8.247 -1.1697  0.4338  2.8402
   84CHL1  H27C 8696   1.217   5.433   8.334  2.7280 -0.4531 -0.5620
   85CHL1    C3 8697   1.300   3.125   6.704 -0.3859  0.7259 -0.2938
   85CHL1    H3 8698   1.256   3.224   6.731  2.4033  1.7738  0.6903
   85CHL1    O3 8699   1.333   3.133   6.564 -0.0531 -0.4662 -0.8544
   85CHL1   H3' 8700   1.261   3.094   6.513 -0.4645  1.4638 -1.8498
   85CHL1    C4 8701   1.437   3.115   6.773  0.3357  0.5038 -0.2973
   85CHL1   H4A 8702   1.491   3.023   6.742 -2.2979 -1.6998  1.1882
   85CHL1   H4B 8703   1.502   3.202   6.750  2.6513 -1.0493  0.0560
   85CHL1    C5 8704   1.412   3.117   6.924 -0.4108 -0.5326  0.4043
   85CHL1    C6 8705   1.458   3.217   6.998  0.4921  0.1075  0.7305
   85CHL1    H6 8706   1.524   3.293   6.953  1.2879 -0.0068  1.6771
   85CHL1    C7 8707   1.448   3.227   7.142  0.1153  0.8293 -0.1536
   85CHL1   H7A 8708   1.549   3.254   7.182 -0.3555  0.4591  1.3372
   85CHL1   H7B 8709   1.373   3.305   7.169 -0.0486  0.2894  1.0054
   85CHL1    C8 8710   1.395   3.092   7.196  0.0836  0.7492 -0.2861
   85CHL1    H8 8711   1.486   3.031   7.213  1.4775  2.5736 -0.9038
   85CHL1   C14 8712   1.328   3.111   7.327 -0.3436 -0.1718 -0.2384
   85CHL1   H14 8713   1.234   3.169   7.313 -0.5329 -0.6839 -1.1446
   85CHL1   C15 8714   1.408   3.192   7.430  0.4512 -0.1978 -0.2254
   85CHL1  H15A 8715   1.518   3.174   7.427  0.5901  0.5999 -0.1616
   85CHL1  H15B 8716   1.405   3.301   7.410 -1.1517 -0.0405  0.7017
   85CHL1   C16 8717   1.352   3.168   7.567 -0.3049  0.3799  0.0332
   85CHL1  H16A 8718   1.432   3.135   7.636  0.4857 -3.1830 -2.2626
   85CHL1  H16B 8719   1.292   3.255   7.600 -0.3141  1.2599 -2.1302
   85CHL1   C17 8720   1.256   3.040   7.548 -0.7430 -0.1556  0.3071
   85CHL1   H17 8721   1.149   3.069   7.532 -1.5093 -0.9668  3.3342
   85CHL1   C13 8722   1.295   2.984   7.402 -0.1188  0.2460  0.2413
   85CHL1   C18 8723   1.405   2.880   7.426  0.2550  0.6072 -0.1682
   85CHL1  H18A 8724   1.359   2.783   7.457  0.8851  0.0116 -1.0663
   85CHL1  H18B 8725   1.470   2.863   7.338 -0.2863  3.1454 -1.1231
   85CHL1  H18C 8726   1.473   2.917   7.506 -0.2028  0.6736  0.1916
   85CHL1   C12 8727   1.185   2.913   7.323  0.0004 -0.2644 -0.2194
   85CHL1  H12A 8728   1.145   2.824   7.375  0.2154  0.1522  0.6832
   85CHL1  H12B 8729   1.101   2.985   7.306 -0.3178  0.0122  2.1987
   85CHL1   C11 8730   1.225   2.890   7.180 -0.0919  0.2924  0.5511
   85CHL1  H11A 8731   1.297   2.806   7.187 -0.0911  0.2633  0.2146
   85CHL1  H11B 8732   1.139   2.854   7.120  1.7042 -2.0094 -0.8375
   85CHL1    C9 8733   1.283   3.017   7.107 -0.1491 -0.7693  0.5437
   85CHL1    H9 8734   1.203   3.094   7.099 -0.0397 -0.7855 -1.0579
   85CHL1   C10 8735   1.323   2.992   6.961 -0.0772 -0.7944 -0.9241
   85CHL1   C19 8736   1.418   2.866   6.962 -0.4336  0.3416  0.1388
   85CHL1  H19A 8737   1.358   2.774   6.975  0.5344 -0.3372 -0.1132
   85CHL1  H19B 8738   1.456   2.854   6.858 -1.1535  2.8208 -0.4789
   85CHL1  H19C 8739   1.504   2.868   7.031 -0.0819 -0.3687 -0.2650
   85CHL1    C1 8740   1.200   2.972   6.875 -0.9240  0.6346 -0.4116
   85CHL1   H1A 8741   1.166   2.867   6.886 -1.7076  0.8081 -1.0638
   85CHL1   H1B 8742   1.116   3.036   6.910 -0.5408 -0.0036  1.8265
   85CHL1    C2 8743   1.214   3.001   6.726 -0.0229 -0.4337 -0.1198
   85CHL1   H2A 8744   1.114   3.003   6.679 -0.4589 -1.6757  0.6771
   85CHL1   H2B 8745   1.274   2.918   6.681  0.1335 -0.3917  0.0079
   85CHL1   C20 8746   1.258   2.949   7.669  0.4374 -0.0444 -0.8091
   85CHL1   H20 8747   1.360   2.912   7.695  0.8124  1.0970 -0.6176
   85CHL1   C21 8748   1.156   2.832   7.653  0.2824  0.0650  0.6333
   85CHL1  H21A 8749   1.073   2.884   7.600  0.0075 -1.2957 -0.3092
   85CHL1  H21B 8750   1.127   2.780   7.747  0.7313 -0.6115  0.4025
   85CHL1  H21C 8751   1.188   2.753   7.582 -1.3165  1.7924 -2.1841
   85CHL1   C22 8752   1.221   3.025   7.805 -0.0912 -0.3596  0.4781
   85CHL1  H22A 8753   1.259   3.129   7.814 -1.5704  0.1183  1.7031
   85CHL1  H22B 8754   1.110   3.037   7.807 -0.0377  0.1004  1.8553
   85CHL1   C23 8755   1.258   2.952   7.929 -0.2459  0.3867  0.3460
   85CHL1  H23A 8756   1.214   2.850   7.927  2.0070 -0.7341  2.1306
   85CHL1  H23B 8757   1.369   2.943   7.929  0.2325  4.3263 -1.2302
   85CHL1   C24 8758   1.224   3.018   8.061 -0.3113 -0.7178  0.4074
   85CHL1  H24A 8759   1.255   3.124   8.053 -2.6254  0.0666  0.9693
   85CHL1  H24B 8760   1.114   3.032   8.070 -0.0412  1.3761  1.0392
   85CHL1   C25 8761   1.281   2.934   8.182  0.6024 -0.3669  0.1513
   85CHL1   H25 8762   1.390   2.915   8.174  0.8607  0.9740  0.2823
   85CHL1   C26 8763   1.253   3.029   8.307  0.3133 -0.1375  0.0253
   85CHL1  H26A 8764   1.284   3.133   8.281 -0.4382 -0.1050 -0.8005
   85CHL1  H26B 8765   1.147   3.038   8.341  0.1804  0.9372 -0.6238
   85CHL1  H26C 8766   1.316   3.000   8.393  1.3932  0.7004 -0.4541
   85CHL1   C27 8767   1.212   2.794   8.196  0.1859 -0.3891 -0.7494
   85CHL1  H27A 8768   1.218   2.748   8.095  3.0155  0.8135 -1.2264
   85CHL1  H27B 8769   1.265   2.731   8.271 -1.2275 -2.8011 -1.6530
   85CHL1  H27C 8770   1.108   2.791   8.233 -0.2837 -0.3907 -2.0203
   86CHL1    C3 8771   4.043   5.587   6.977  0.3311  0.0712  0.1569
   86CHL1    H3 8772   4.078   5.680   7.026 -1.0738  0.7793 -0.1537
   86CHL1    O3 8773   4.120   5.576   6.858  0.1962  0.2491 -0.6144
   86CHL1   H3' 8774   4.060   5.531   6.798  0.7470 -0.3277 -0.7416
   86CHL1    C4 8775   4.052   5.468   7.066  0.0919  0.3339  0.5042
   86CHL1   H4A 8776   4.019   5.382   7.004  0.7427  0.6380 -0.2750
   86CHL1   H4B 8777   4.162   5.454   7.077  0.0670 -0.0244  0.3076
   86CHL1    C5 8778   3.982   5.493   7.198  0.0564  0.1432 -0.7682
   86CHL1    C6 8779   4.046   5.495   7.314 -0.3552  0.4951  0.1161
   86CHL1    H6 8780   4.154   5.471   7.321 -0.8814 -2.7292 -1.0515
   86CHL1    C7 8781   3.989   5.511   7.448  0.6295 -0.2320 -0.2243
   86CHL1   H7A 8782   4.036   5.433   7.512  1.3434 -1.0491 -1.6880
   86CHL1   H7B 8783   4.020   5.613   7.478  2.8399 -0.5112 -1.3017
   86CHL1    C8 8784   3.839   5.496   7.449  0.0950 -0.0843 -0.3740
   86CHL1    H8 8785   3.816   5.389   7.432 -1.2230  0.3914 -1.7759
   86CHL1   C14 8786   3.785   5.541   7.586  0.3722 -0.5496  0.7263
   86CHL1   H14 8787   3.801   5.651   7.575 -1.4603 -0.3103  0.1692
   86CHL1   C15 8788   3.848   5.505   7.720  0.2432  0.2982 -0.4233
   86CHL1  H15A 8789   3.865   5.395   7.723  0.7607  0.3906  1.6110
   86CHL1  H15B 8790   3.947   5.551   7.740  0.7962 -1.2130  0.5068
   86CHL1   C16 8791   3.741   5.541   7.828 -0.0981 -0.2673  0.5048
   86CHL1  H16A 8792   3.694   5.450   7.870 -1.3147 -1.7861 -3.6915
   86CHL1  H16B 8793   3.785   5.594   7.916 -0.9286 -0.1145  0.8419
   86CHL1   C17 8794   3.619   5.606   7.740  0.1138  0.2074  0.0750
   86CHL1   H17 8795   3.635   5.716   7.729 -0.2883  0.6269  2.9175
   86CHL1   C13 8796   3.631   5.533   7.607 -0.1714  0.4992  1.1098
   86CHL1   C18 8797   3.598   5.377   7.621 -0.3526 -0.3236 -0.8861
   86CHL1  H18A 8798   3.490   5.353   7.633 -0.1778  0.1837  3.8894
   86CHL1  H18B 8799   3.640   5.322   7.534 -0.6058 -0.4124 -0.9529
   86CHL1  H18C 8800   3.640   5.329   7.713 -0.5822 -0.2356 -0.7333
   86CHL1   C12 8801   3.564   5.595   7.490 -0.2239  0.0691  0.4599
   86CHL1  H12A 8802   3.456   5.567   7.483 -0.3237 -0.5048  3.2152
   86CHL1  H12B 8803   3.567   5.706   7.498 -0.3991  0.0096  1.4826
   86CHL1   C11 8804   3.621   5.559   7.348 -0.1595  0.7839 -0.0904
   86CHL1  H11A 8805   3.594   5.451   7.350  0.1241  0.7282  1.4265
   86CHL1  H11B 8806   3.574   5.607   7.259  0.3130  2.2844  0.4312
   86CHL1    C9 8807   3.776   5.576   7.330  0.1462  0.2862  0.5406
   86CHL1    H9 8808   3.803   5.682   7.350  1.2333 -0.1832  1.7015
   86CHL1   C10 8809   3.831   5.524   7.191  0.1406 -0.2313 -0.2518
   86CHL1   C19 8810   3.749   5.395   7.151  0.3553 -0.5504 -0.4294
   86CHL1  H19A 8811   3.653   5.433   7.109  1.5197  3.4048  0.0969
   86CHL1  H19B 8812   3.801   5.339   7.071  0.6113 -0.8313 -0.0716
   86CHL1  H19C 8813   3.719   5.330   7.236 -0.4082 -0.0434 -0.3004
   86CHL1    C1 8814   3.815   5.632   7.087  0.0492 -0.0458  0.7669
   86CHL1   H1A 8815   3.707   5.644   7.066  0.0440 -1.2486 -0.0015
   86CHL1   H1B 8816   3.872   5.723   7.113  0.9567 -0.7299  1.2300
   86CHL1    C2 8817   3.892   5.604   6.949  1.0706  0.1894 -0.4115
   86CHL1   H2A 8818   3.870   5.687   6.878 -0.7407 -1.4968 -1.9492
   86CHL1   H2B 8819   3.857   5.508   6.906  1.0167 -0.3246  0.7588
   86CHL1   C20 8820   3.487   5.605   7.815 -0.7612 -0.8107  0.4953
   86CHL1   H20 8821   3.437   5.505   7.819 -1.8389 -0.3927 -1.4482
   86CHL1   C21 8822   3.392   5.704   7.744 -0.0405  0.9170 -0.3962
   86CHL1  H21A 8823   3.366   5.678   7.639 -0.3493 -1.9425  0.2993
   86CHL1  H21B 8824   3.435   5.806   7.735  2.5811  0.1137  1.7148
   86CHL1  H21C 8825   3.296   5.705   7.800  1.1425 -0.2159  1.8087
   86CHL1   C22 8826   3.495   5.651   7.969  0.4921 -0.0647  0.1427
   86CHL1  H22A 8827   3.571   5.589   8.021  0.6948 -0.6511 -0.8188
   86CHL1  H22B 8828   3.525   5.758   7.969  1.0016 -0.1640  2.5128
   86CHL1   C23 8829   3.362   5.631   8.051 -0.0722 -0.0535 -0.1886
   86CHL1  H23A 8830   3.285   5.707   8.026  1.1488  1.4453  0.4753
   86CHL1  H23B 8831   3.329   5.527   8.031  0.5584 -0.5521  1.2427
   86CHL1   C24 8832   3.392   5.665   8.194  0.3597 -0.7727 -0.5302
   86CHL1  H24A 8833   3.480   5.607   8.229  0.8064  2.0178  3.7661
   86CHL1  H24B 8834   3.410   5.774   8.194  1.3384 -0.9283 -0.1499
   86CHL1   C25 8835   3.274   5.642   8.300 -0.6173  0.6358 -1.0696
   86CHL1   H25 8836   3.186   5.707   8.278 -2.0747 -0.3764  1.3434
   86CHL1   C26 8837   3.222   5.500   8.302 -0.5573  0.1508 -0.0222
   86CHL1  H26A 8838   3.299   5.424   8.330 -2.3930 -1.1046  1.9960
   86CHL1  H26B 8839   3.139   5.506   8.376 -0.2814 -0.0453  0.3100
   86CHL1  H26C 8840   3.173   5.475   8.206 -1.0720  1.0471 -0.0061
   86CHL1   C27 8841   3.330   5.683   8.444 -0.0056  0.4402 -0.3277
   86CHL1  H27A 8842   3.358   5.791   8.437  2.3853 -0.0850  0.3045
   86CHL1  H27B 8843   3.254   5.659   8.521  0.5154 -2.5854 -0.6559
   86CHL1  H27C 8844   3.427   5.635   8.470  0.1004  0.1565 -1.2293
   87CHL1    C3 8845   4.919   4.916   7.062  0.5606 -0.2574  0.1739
   87CHL1    H3 8846   4.919   4.813   7.103 -3.1008  0.5274  2.6407
   87CHL1    O3 8847   4.902   4.912   6.917 -0.7613 -0.9641  0.2070
   87CHL1   H3' 8848   4.813   4.881   6.900 -1.6806  2.0691 -1.0646
   87CHL1    C4 8849   4.799   4.995   7.118  0.7673 -0.1549 -0.4032
   87CHL1   H4A 8850   4.812   5.097   7.077 -0.2197  1.4223  2.8481
   87CHL1   H4B 8851   4.703   4.955   7.077  0.4081  0.6118 -0.3289
   87CHL1    C5 8852   4.793   5.003   7.268 -0.2894  0.4939 -0.0462
   87CHL1    C6 8853   4.688   4.965   7.338  0.2366 -0.0993  0.6130
   87CHL1    H6 8854   4.599   4.931   7.283  1.6502 -0.9495 -1.2538
   87CHL1    C7 8855   4.683   4.982   7.484 -0.5378  0.5915 -0.4378
   87CHL1   H7A 8856   4.580   5.013   7.511 -0.4362  1.8855 -1.4283
   87CHL1   H7B 8857   4.704   4.882   7.527  1.4536  1.2250  0.2111
   87CHL1    C8 8858   4.785   5.087   7.535 -0.1891  0.2698 -0.6775
   87CHL1    H8 8859   4.750   5.189   7.507 -0.8824  0.6781  1.5087
   87CHL1   C14 8860   4.791   5.082   7.690 -0.5444 -0.6438  0.6299
   87CHL1   H14 8861   4.829   4.978   7.699 -0.0920 -0.5878 -0.5181
   87CHL1   C15 8862   4.662   5.095   7.771  0.4173  0.0355 -0.3065
   87CHL1  H15A 8863   4.622   5.197   7.749 -0.4104  0.6277  3.2977
   87CHL1  H15B 8864   4.588   5.013   7.760 -0.7372  0.5106  2.8204
   87CHL1   C16 8865   4.719   5.109   7.916  0.3831  0.6180  0.7641
   87CHL1  H16A 8866   4.666   5.197   7.959  1.4264  1.6596  0.0138
   87CHL1  H16B 8867   4.684   5.016   7.965 -0.5388  2.0867  3.0624
   87CHL1   C17 8868   4.874   5.139   7.906  0.2267 -0.0431 -0.1908
   87CHL1   H17 8869   4.925   5.042   7.927  0.7081  0.0911 -0.7148
   87CHL1   C13 8870   4.895   5.175   7.756 -0.7260  0.2611 -0.0405
   87CHL1   C18 8871   4.861   5.326   7.733  0.0412 -0.6929  0.6462
   87CHL1  H18A 8872   4.767   5.364   7.778  0.4267  0.6479  0.3658
   87CHL1  H18B 8873   4.947   5.386   7.770  0.0483 -0.8147  0.8258
   87CHL1  H18C 8874   4.845   5.349   7.626  0.6907 -0.6364  0.5582
   87CHL1   C12 8875   5.033   5.133   7.704 -0.8365 -0.3367  0.3759
   87CHL1  H12A 8876   5.118   5.195   7.740 -0.6272  0.1465 -0.8872
   87CHL1  H12B 8877   5.052   5.027   7.730  1.6019  0.6264  3.0595
   87CHL1   C11 8878   5.034   5.147   7.547 -0.0323  0.0305 -0.1252
   87CHL1  H11A 8879   5.024   5.257   7.533 -2.2265 -0.0968 -0.0337
   87CHL1  H11B 8880   5.133   5.119   7.506 -0.2504 -2.4349  0.8623
   87CHL1    C9 8881   4.923   5.063   7.479 -0.2646 -0.4365 -0.3665
   87CHL1    H9 8882   4.957   4.962   7.511 -0.3110  0.0262  1.1999
   87CHL1   C10 8883   4.920   5.056   7.317  0.1228 -0.2162 -0.1429
   87CHL1   C19 8884   4.938   5.212   7.277  0.3314 -0.2537 -0.5111
   87CHL1  H19A 8885   4.932   5.225   7.167  1.0083  0.0534 -0.5145
   87CHL1  H19B 8886   4.858   5.281   7.313  2.1905  1.3508  0.7243
   87CHL1  H19C 8887   5.034   5.243   7.322  0.7697 -1.7987 -0.2971
   87CHL1    C1 8888   5.044   4.987   7.265 -0.8188  0.2695  1.1011
   87CHL1   H1A 8889   5.139   5.038   7.291  1.5264 -1.8366 -2.4883
   87CHL1   H1B 8890   5.058   4.882   7.298  0.4215  0.8538  2.5494
   87CHL1    C2 8891   5.048   4.980   7.107 -0.0937  0.0882  0.0082
   87CHL1   H2A 8892   5.143   4.934   7.073  1.9271  4.5230 -1.0962
   87CHL1   H2B 8893   5.059   5.081   7.062 -0.0092 -0.5016 -1.3452
   87CHL1   C20 8894   4.930   5.231   8.014 -0.1103 -1.4719 -0.6135
   87CHL1   H20 8895   4.889   5.334   8.001  2.0918 -0.5861 -1.0345
   87CHL1   C21 8896   5.079   5.243   7.995 -0.5467  0.1736  0.1053
   87CHL1  H21A 8897   5.088   5.322   7.916  0.2095  0.0409  0.0559
   87CHL1  H21B 8898   5.135   5.151   7.971  0.0401  0.2015  1.3223
   87CHL1  H21C 8899   5.115   5.298   8.084  0.9580  1.3209 -1.1564
   87CHL1   C22 8900   4.902   5.187   8.155 -0.3131  0.4162 -0.4529
   87CHL1  H22A 8901   4.792   5.172   8.159 -0.0433 -2.3304 -1.0287
   87CHL1  H22B 8902   4.948   5.092   8.189  0.6897  1.9502  2.9710
   87CHL1   C23 8903   4.935   5.295   8.267  0.0725 -0.1627  0.4161
   87CHL1  H23A 8904   5.045   5.300   8.280  0.4091 -0.9020 -1.6143
   87CHL1  H23B 8905   4.893   5.392   8.234  0.6712 -0.1298 -0.2769
   87CHL1   C24 8906   4.894   5.265   8.414 -0.0228  0.0561 -0.0897
   87CHL1  H24A 8907   4.915   5.349   8.483 -2.5441 -1.1436  2.3378
   87CHL1  H24B 8908   4.783   5.256   8.422  0.0708  0.4452  2.6800
   87CHL1   C25 8909   4.953   5.134   8.477 -0.5944  0.5544  0.6863
   87CHL1   H25 8910   4.944   5.046   8.409 -0.0194  0.8434  0.2256
   87CHL1   C26 8911   5.106   5.145   8.499  0.1888  0.4202 -0.7002
   87CHL1  H26A 8912   5.127   5.230   8.568 -0.4253  0.6432 -0.7854
   87CHL1  H26B 8913   5.163   5.062   8.546  2.2928  2.2273  0.1504
   87CHL1  H26C 8914   5.159   5.153   8.401  0.3606 -1.7764 -0.8335
   87CHL1   C27 8915   4.887   5.101   8.616 -0.4035  0.0794 -0.4923
   87CHL1  H27A 8916   4.947   5.025   8.671  1.0035  0.5119 -1.3792
   87CHL1  H27B 8917   4.881   5.193   8.678 -1.2783 -1.5310  1.9599
   87CHL1  H27C 8918   4.783   5.064   8.615 -0.2914 -0.2434 -0.4541
   88CHL1    C3 8919   2.015   3.363   7.029 -0.2881  0.3532  0.1585
   88CHL1    H3 8920   2.026   3.252   7.027  0.7854  0.4450 -1.8915
   88CHL1    O3 8921   1.972   3.398   6.898  0.4968  0.7202 -0.2836
   88CHL1   H3' 8922   2.038   3.346   6.851 -1.1559 -0.8061 -1.0307
   88CHL1    C4 8923   1.915   3.389   7.138  0.0643 -0.1008  0.0547
   88CHL1   H4A 8924   1.898   3.499   7.135 -0.5929 -0.1041  2.0691
   88CHL1   H4B 8925   1.817   3.346   7.106  0.1133  1.2335 -2.0600
   88CHL1    C5 8926   1.959   3.343   7.273 -0.8126 -0.0435 -0.0244
   88CHL1    C6 8927   1.896   3.258   7.350 -0.0834  1.1912 -0.1176
   88CHL1    H6 8928   1.800   3.219   7.316  0.8738 -0.9518 -0.4994
   88CHL1    C7 8929   1.943   3.218   7.484 -0.9053 -0.6381 -0.1146
   88CHL1   H7A 8930   1.858   3.200   7.554 -0.4791 -1.0008  0.3124
   88CHL1   H7B 8931   1.985   3.115   7.480 -2.8251 -1.4940  0.5760
   88CHL1    C8 8932   2.047   3.318   7.542  0.5496 -0.6402  0.5748
   88CHL1    H8 8933   1.994   3.412   7.568 -1.5065 -1.5904  0.0208
   88CHL1   C14 8934   2.112   3.272   7.672  0.2748  1.3080  0.5370
   88CHL1   H14 8935   2.162   3.178   7.639 -1.9775  0.4917 -0.8471
   88CHL1   C15 8936   2.021   3.233   7.787  0.2530  0.0753  0.2835
   88CHL1  H15A 8937   1.954   3.321   7.802  2.6076  2.1599 -0.6694
   88CHL1  H15B 8938   1.958   3.144   7.768  0.3986  0.4749 -2.4601
   88CHL1   C16 8939   2.120   3.218   7.913  0.3555 -0.3511 -0.2863
   88CHL1  H16A 8940   2.069   3.282   7.988 -0.8471  1.9759 -2.8948
   88CHL1  H16B 8941   2.133   3.119   7.961 -2.1507 -0.8660 -0.5238
   88CHL1   C17 8942   2.250   3.290   7.864 -0.2400  0.5446 -0.3513
   88CHL1   H17 8943   2.323   3.210   7.838  0.9326  0.8685  1.7523
   88CHL1   C13 8944   2.216   3.361   7.731  0.1349  1.4564  0.5759
   88CHL1   C18 8945   2.160   3.500   7.764  0.3144 -0.5010  0.3628
   88CHL1  H18A 8946   2.234   3.566   7.815  0.2258 -1.5821  1.9762
   88CHL1  H18B 8947   2.119   3.541   7.670  0.7565 -1.6126 -0.3448
   88CHL1  H18C 8948   2.076   3.488   7.836  2.4793 -1.8581  2.8359
   88CHL1   C12 8949   2.333   3.363   7.627  0.8209 -0.0054  0.0170
   88CHL1  H12A 8950   2.405   3.439   7.664  0.5535  0.2883 -0.0648
   88CHL1  H12B 8951   2.370   3.259   7.612  0.1136 -0.0499 -1.6342
   88CHL1   C11 8952   2.277   3.420   7.495  0.1529 -0.0278  0.2292
   88CHL1  H11A 8953   2.261   3.526   7.523  0.0224  0.5007 -1.6606
   88CHL1  H11B 8954   2.364   3.402   7.428  0.0490 -0.6139  0.2423
   88CHL1    C9 8955   2.148   3.347   7.439 -0.2152  0.3524  0.0901
   88CHL1    H9 8956   2.179   3.243   7.417 -1.9771  0.1915 -1.9614
   88CHL1   C10 8957   2.100   3.401   7.306  0.0310  0.3157  0.7998
   88CHL1   C19 8958   2.078   3.553   7.335 -0.0429  0.5299 -0.4226
   88CHL1  H19A 8959   1.998   3.576   7.409 -1.2223 -0.9769 -1.1724
   88CHL1  H19B 8960   2.176   3.598   7.362 -0.1986  0.9928 -0.6327
   88CHL1  H19C 8961   2.044   3.623   7.256 -1.0578 -1.0576 -1.4630
   88CHL1    C1 8962   2.206   3.373   7.193 -0.8214 -0.0706 -0.7238
   88CHL1   H1A 8963   2.306   3.418   7.211 -0.8280  0.7341 -2.4972
   88CHL1   H1B 8964   2.232   3.265   7.189  2.2607  0.6189 -1.4256
   88CHL1    C2 8965   2.157   3.416   7.055  0.0370 -0.6073 -0.1615
   88CHL1   H2A 8966   2.231   3.389   6.977  1.0344 -0.1054  0.5970
   88CHL1   H2B 8967   2.159   3.527   7.060  1.4694 -0.6032 -0.4142
   88CHL1   C20 8968   2.318   3.364   7.983  0.4969 -0.3052  0.3142
   88CHL1   H20 8969   2.254   3.453   8.001 -0.2569 -0.9137  0.7207
   88CHL1   C21 8970   2.457   3.423   7.936  0.4767  0.0064  0.1285
   88CHL1  H21A 8971   2.494   3.495   8.012 -0.6915  0.5007  0.2444
   88CHL1  H21B 8972   2.460   3.474   7.837  1.9764 -0.2578  0.0074
   88CHL1  H21C 8973   2.524   3.336   7.923 -0.0789 -0.2498 -1.2236
   88CHL1   C22 8974   2.342   3.282   8.114  0.2505 -0.2350  0.0940
   88CHL1  H22A 8975   2.244   3.259   8.163  1.0180 -0.1581  1.7500
   88CHL1  H22B 8976   2.379   3.182   8.083 -0.8763 -0.5533 -0.2853
   88CHL1   C23 8977   2.428   3.348   8.220  0.7659 -0.8890  0.2465
   88CHL1  H23A 8978   2.527   3.367   8.175  0.5932 -2.7867 -1.0378
   88CHL1  H23B 8979   2.384   3.446   8.250 -0.6488 -1.5269  0.3556
   88CHL1   C24 8980   2.427   3.269   8.348 -0.0414  0.3505 -0.2938
   88CHL1  H24A 8981   2.324   3.238   8.375  0.1538 -0.2250 -0.1920
   88CHL1  H24B 8982   2.494   3.181   8.338 -0.0369  0.4396 -1.0450
   88CHL1   C25 8983   2.480   3.349   8.463  0.3529  1.2406  0.6943
   88CHL1   H25 8984   2.427   3.446   8.463 -2.0219  0.0305 -0.5559
   88CHL1   C26 8985   2.434   3.263   8.585 -0.2838  0.1951  0.5380
   88CHL1  H26A 8986   2.326   3.285   8.595 -0.4092  0.2881 -0.8210
   88CHL1  H26B 8987   2.447   3.156   8.560 -0.0399  0.5569 -0.9737
   88CHL1  H26C 8988   2.487   3.291   8.679  0.8960  0.6619 -0.2338
   88CHL1   C27 8989   2.632   3.368   8.465 -0.6794 -0.3759 -0.8178
   88CHL1  H27A 8990   2.673   3.267   8.488 -1.0415 -0.5094 -0.7600
   88CHL1  H27B 8991   2.676   3.399   8.367  1.7201 -1.0847 -0.0363
   88CHL1  H27C 8992   2.668   3.435   8.546  0.3968 -0.2115 -1.4032
   89CHL1    C3 8993   5.075   0.411   6.980 -0.2277  0.7565  0.1594
   89CHL1    H3 8994   4.969   0.444   6.973 -0.3669  0.5830  1.3265
   89CHL1    O3 8995   5.119   0.411   6.845 -0.1832 -0.1376 -0.5060
   89CHL1   H3' 8996   5.057   0.351   6.802 -1.1141  1.1233 -0.9765
   89CHL1    C4 8997   5.157   0.513   7.058  0.3072  0.0137  0.5077
   89CHL1   H4A 8998   5.267   0.498   7.063  0.0005 -2.1153  2.4917
   89CHL1   H4B 8999   5.166   0.614   7.011  3.1746 -0.6371 -0.5676
   89CHL1    C5 9000   5.108   0.512   7.198 -0.3346 -0.0313 -0.7671
   89CHL1    C6 9001   5.059   0.624   7.262 -0.5784  0.4886  0.4791
   89CHL1    H6 9002   5.043   0.714   7.201 -0.2033 -1.3715 -2.5618
   89CHL1    C7 9003   5.025   0.620   7.407 -0.6355 -0.8838  0.2900
   89CHL1   H7A 9004   5.061   0.712   7.458 -0.9181  0.4362 -1.7625
   89CHL1   H7B 9005   4.915   0.621   7.425 -0.4533 -1.6135  1.5786
   89CHL1    C8 9006   5.077   0.502   7.487 -0.8446  0.0444  0.3485
   89CHL1    H8 9007   5.184   0.520   7.506 -0.6653  0.6182 -1.0877
   89CHL1   C14 9008   4.989   0.486   7.616  1.0849 -0.6249 -0.4026
   89CHL1   H14 9009   4.883   0.477   7.584  0.6452  0.4586  0.6578
   89CHL1   C15 9010   4.994   0.606   7.716 -0.3240 -0.6281 -0.3198
   89CHL1  H15A 9011   5.101   0.638   7.719  0.1270 -2.1344  0.7955
   89CHL1  H15B 9012   4.919   0.685   7.694 -1.7314 -0.9748  2.7830
   89CHL1   C16 9013   4.948   0.538   7.847 -0.2593 -0.1423 -0.9083
   89CHL1  H16A 9014   5.020   0.566   7.927 -1.0162 -2.2812  0.6194
   89CHL1  H16B 9015   4.853   0.587   7.876  1.0104  1.8674  0.0182
   89CHL1   C17 9016   4.943   0.384   7.825  0.5299 -0.6339 -0.3298
   89CHL1   H17 9017   4.840   0.385   7.784  1.1754  0.6587 -2.0526
   89CHL1   C13 9018   5.031   0.367   7.703  0.1668 -0.6394  0.4328
   89CHL1   C18 9019   5.179   0.368   7.733 -0.0522  0.1663  0.0106
   89CHL1  H18A 9020   5.209   0.457   7.793 -2.4647 -0.1662  1.8565
   89CHL1  H18B 9021   5.214   0.279   7.790 -1.0260  0.4157  1.0356
   89CHL1  H18C 9022   5.243   0.362   7.643 -0.2161 -0.8215 -0.0473
   89CHL1   C12 9023   4.990   0.241   7.612 -0.2350 -0.2480 -0.5131
   89CHL1  H12A 9024   5.008   0.152   7.676  0.2940  1.2370  1.5257
   89CHL1  H12B 9025   4.882   0.249   7.590 -0.5414 -0.5668  0.7454
   89CHL1   C11 9026   5.058   0.237   7.481  0.0911 -0.4760 -0.0561
   89CHL1  H11A 9027   5.166   0.212   7.494  0.7047  1.8172 -0.3532
   89CHL1  H11B 9028   5.016   0.157   7.416  0.6894 -1.3660  0.6199
   89CHL1    C9 9029   5.048   0.376   7.406  0.5009 -0.1057  0.3058
   89CHL1    H9 9030   4.939   0.384   7.384 -0.0398 -0.7536  2.5076
   89CHL1   C10 9031   5.123   0.378   7.270  0.0283 -0.1070 -0.3159
   89CHL1   C19 9032   5.270   0.343   7.295 -0.3501 -0.5902 -0.6546
   89CHL1  H19A 9033   5.280   0.249   7.354 -0.1679  0.0229  0.3106
   89CHL1  H19B 9034   5.326   0.338   7.199  1.8306  1.7527  0.3960
   89CHL1  H19C 9035   5.327   0.417   7.355  1.6599 -0.9942 -1.9641
   89CHL1    C1 9036   5.060   0.266   7.176  0.9515 -0.3401 -0.1435
   89CHL1   H1A 9037   5.094   0.169   7.217 -2.1477 -1.2479  0.4686
   89CHL1   H1B 9038   4.950   0.271   7.164  1.0195  0.9265 -0.4507
   89CHL1    C2 9039   5.110   0.276   7.032 -0.1851 -0.2163  0.6109
   89CHL1   H2A 9040   5.059   0.198   6.971 -1.5042 -0.0709  1.4949
   89CHL1   H2B 9041   5.219   0.257   7.030 -0.2463 -0.5657  0.5181
   89CHL1   C20 9042   4.937   0.295   7.942 -0.3365 -0.4000 -0.8271
   89CHL1   H20 9043   4.934   0.194   7.898  0.8534 -0.2673 -1.2568
   89CHL1   C21 9044   4.809   0.324   8.021  0.8186  0.0272  0.4793
   89CHL1  H21A 9045   4.812   0.292   8.127  0.3582  1.7869  1.0647
   89CHL1  H21B 9046   4.727   0.261   7.981  0.1832  1.5105 -0.6627
   89CHL1  H21C 9047   4.778   0.431   8.015  1.7730  0.3059  0.1913
   89CHL1   C22 9048   5.060   0.293   8.042 -0.0835 -0.8107 -0.0075
   89CHL1  H22A 9049   5.156   0.273   7.990  1.2352 -0.5192  2.1939
   89CHL1  H22B 9050   5.056   0.393   8.089  0.0332 -0.5106 -0.6257
   89CHL1   C23 9051   5.067   0.191   8.156  0.3441  0.2551 -0.0680
   89CHL1  H23A 9052   5.002   0.235   8.234 -1.9006 -0.1216 -1.6387
   89CHL1  H23B 9053   5.013   0.101   8.122 -0.7496  0.4506  1.0761
   89CHL1   C24 9054   5.210   0.176   8.211  0.5966 -0.1620 -0.3621
   89CHL1  H24A 9055   5.270   0.118   8.138  0.0889  0.6631 -1.4607
   89CHL1  H24B 9056   5.265   0.272   8.227  1.9738 -1.0282  0.2390
   89CHL1   C25 9057   5.215   0.092   8.334 -0.0920  0.2202 -0.9345
   89CHL1   H25 9058   5.161  -0.005   8.328  0.1564  0.1535 -2.9492
   89CHL1   C26 9059   5.359   0.040   8.353  0.0683 -0.0735  0.2570
   89CHL1  H26A 9060   5.390  -0.026   8.269 -2.8229 -1.0711 -0.1285
   89CHL1  H26B 9061   5.427   0.127   8.348  1.4909 -1.1644 -0.1468
   89CHL1  H26C 9062   5.368  -0.017   8.448 -2.2575 -3.3207 -1.2825
   89CHL1   C27 9063   5.184   0.169   8.465  0.3881 -0.0597 -0.3811
   89CHL1  H27A 9064   5.257   0.250   8.488  0.7970 -1.0730  2.3583
   89CHL1  H27B 9065   5.080   0.206   8.457  0.0328 -1.1288 -0.9493
   89CHL1  H27C 9066   5.173   0.100   8.552  0.3956 -0.8472 -0.9956
   90CHL1    C3 9067   2.942   1.576   6.909  0.0217 -0.0195  0.1827
   90CHL1    H3 9068   2.868   1.493   6.912  0.0223 -0.0954 -1.1306
   90CHL1    O3 9069   2.960   1.633   6.777  0.0755  0.1323  0.5046
   90CHL1   H3' 9070   3.052   1.659   6.775  0.2856 -0.5223  1.3306
   90CHL1    C4 9071   2.891   1.684   6.998  0.6161 -0.3208  0.5665
   90CHL1   H4A 9072   2.955   1.774   6.987 -1.3677  1.2657  1.3359
   90CHL1   H4B 9073   2.800   1.733   6.957  1.8719  1.3957 -0.2812
   90CHL1    C5 9074   2.875   1.649   7.141  0.7925  0.0174  0.3969
   90CHL1    C6 9075   2.752   1.653   7.200  0.4141  0.5258 -0.2187
   90CHL1    H6 9076   2.665   1.682   7.139 -0.9992 -0.8388  1.0445
   90CHL1    C7 9077   2.731   1.613   7.342  0.1288 -0.1383 -0.6600
   90CHL1   H7A 9078   2.654   1.678   7.389 -0.4377 -0.4430 -1.1443
   90CHL1   H7B 9079   2.693   1.509   7.351  1.0704 -0.3719  1.0741
   90CHL1    C8 9080   2.860   1.621   7.418 -0.9120 -0.6639 -0.0448
   90CHL1    H8 9081   2.883   1.730   7.424  0.5005 -0.8932 -0.7904
   90CHL1   C14 9082   2.848   1.572   7.560  0.3803 -0.1363 -0.1681
   90CHL1   H14 9083   2.823   1.464   7.552  0.5446 -0.0305 -3.4332
   90CHL1   C15 9084   2.718   1.608   7.641 -0.0512 -0.7217 -0.0223
   90CHL1  H15A 9085   2.707   1.718   7.644  1.7495 -0.5392  0.4176
   90CHL1  H15B 9086   2.619   1.566   7.611  0.2211  0.0887 -2.2998
   90CHL1   C16 9087   2.750   1.571   7.789  0.0861  0.1604  1.3278
   90CHL1  H16A 9088   2.727   1.656   7.857 -1.2003  1.8512 -1.0803
   90CHL1  H16B 9089   2.689   1.481   7.808 -0.5945  0.3676  0.2121
   90CHL1   C17 9090   2.898   1.530   7.795 -0.2311  0.6345 -0.5653
   90CHL1   H17 9091   2.888   1.419   7.797  0.5803  0.5639  0.0625
   90CHL1   C13 9092   2.962   1.579   7.656 -0.2326 -0.2313 -0.0793
   90CHL1   C18 9093   3.005   1.721   7.672  0.5051 -0.5253 -1.1978
   90CHL1  H18A 9094   2.925   1.790   7.706 -0.0154 -2.7019  2.5073
   90CHL1  H18B 9095   3.084   1.738   7.749 -0.7219 -2.2501  0.5275
   90CHL1  H18C 9096   3.039   1.777   7.582  2.4608  0.1900 -0.0746
   90CHL1   C12 9097   3.071   1.487   7.587  0.3570  0.0043  0.1803
   90CHL1  H12A 9098   3.171   1.484   7.637  1.2817 -2.1754 -1.6221
   90CHL1  H12B 9099   3.035   1.383   7.577 -0.1557  0.3090 -1.4136
   90CHL1   C11 9100   3.102   1.538   7.440  0.3020  0.7864 -0.9267
   90CHL1  H11A 9101   3.156   1.632   7.464 -1.2688  1.8742 -1.4386
   90CHL1  H11B 9102   3.174   1.476   7.383  0.6123  0.6541 -0.3988
   90CHL1    C9 9103   2.973   1.550   7.343 -0.1242  0.5624 -0.6817
   90CHL1    H9 9104   2.950   1.442   7.333  0.9407  0.3655 -1.2189
   90CHL1   C10 9105   3.006   1.597   7.204  0.1385 -0.7116 -0.2690
   90CHL1   C19 9106   3.106   1.712   7.229  0.5901 -0.5650  0.9465
   90CHL1  H19A 9107   3.134   1.764   7.135  3.2460  0.5101  2.2213
   90CHL1  H19B 9108   3.071   1.799   7.290  0.6671  0.5125 -0.4823
   90CHL1  H19C 9109   3.209   1.688   7.263  0.2202  0.4953  2.9683
   90CHL1    C1 9110   3.064   1.481   7.117  0.3592  0.0381  0.3668
   90CHL1   H1A 9111   3.166   1.460   7.154  0.9436  1.8289 -0.1279
   90CHL1   H1B 9112   3.008   1.385   7.123  0.9759 -0.2375  2.6114
   90CHL1    C2 9113   3.074   1.524   6.966  0.0675 -0.4414 -0.1175
   90CHL1   H2A 9114   3.120   1.441   6.908  0.3276  0.4524 -1.2194
   90CHL1   H2B 9115   3.149   1.606   6.970 -0.6435  0.2471 -0.5591
   90CHL1   C20 9116   2.974   1.569   7.927 -0.0855 -0.0548  0.4125
   90CHL1   H20 9117   2.973   1.680   7.937  1.7540  0.3107 -2.4049
   90CHL1   C21 9118   3.126   1.519   7.909  0.2185 -0.5186  0.3182
   90CHL1  H21A 9119   3.117   1.410   7.891  1.5374 -0.7292  0.8464
   90CHL1  H21B 9120   3.186   1.527   8.002  0.8886  0.7433 -0.1975
   90CHL1  H21C 9121   3.190   1.568   7.832  0.0554 -1.4273 -0.4228
   90CHL1   C22 9122   2.916   1.496   8.042 -0.0242 -0.2099  0.3858
   90CHL1  H22A 9123   2.805   1.499   8.037 -0.0152 -1.4130 -2.1532
   90CHL1  H22B 9124   2.948   1.390   8.048 -0.7446 -0.5821 -1.6549
   90CHL1   C23 9125   2.947   1.577   8.172  0.5945 -0.2907 -0.1941
   90CHL1  H23A 9126   3.052   1.553   8.200  0.8933 -0.3065 -1.2965
   90CHL1  H23B 9127   2.933   1.684   8.148 -1.6121  0.0071  1.9848
   90CHL1   C24 9128   2.860   1.537   8.294 -0.3562 -0.1889  0.2627
   90CHL1  H24A 9129   2.755   1.539   8.259 -0.0704  0.5970 -0.5968
   90CHL1  H24B 9130   2.886   1.431   8.316 -1.0340  0.1328  3.1353
   90CHL1   C25 9131   2.879   1.613   8.424  0.3769 -0.2363 -0.3307
   90CHL1   H25 9132   2.878   1.720   8.392  0.1480 -0.2855 -0.4916
   90CHL1   C26 9133   2.775   1.581   8.528  0.8515 -0.6859 -0.7629
   90CHL1  H26A 9134   2.813   1.499   8.592  0.4102  2.1749  3.6521
   90CHL1  H26B 9135   2.762   1.662   8.603  2.0415 -2.4024  1.4266
   90CHL1  H26C 9136   2.678   1.545   8.488 -0.6877  0.2120  1.8538
   90CHL1   C27 9137   3.017   1.597   8.485 -0.7484  0.0883 -0.8348
   90CHL1  H27A 9138   3.106   1.629   8.426  0.3077 -0.9520  0.1268
   90CHL1  H27B 9139   3.029   1.629   8.591 -1.4995  1.6185 -1.1781
   90CHL1  H27C 9140   3.030   1.487   8.484 -1.1301  0.0385 -0.4942
   91CHL1    C3 9141   4.920   2.094   7.096  0.5769  0.8884 -0.0183
   91CHL1    H3 9142   4.965   1.993   7.095  0.3686  0.7919 -0.7498
   91CHL1    O3 9143   4.907   2.125   6.961 -0.0755 -0.0656  0.3161
   91CHL1   H3' 9144   4.829   2.178   6.942 -1.1188 -1.9683 -0.9567
   91CHL1    C4 9145   4.781   2.098   7.161  0.2651 -0.0908  0.7144
   91CHL1   H4A 9146   4.746   2.203   7.151 -1.5111 -0.7819 -0.9863
   91CHL1   H4B 9147   4.705   2.035   7.112  0.2831 -0.8693  1.6442
   91CHL1    C5 9148   4.793   2.056   7.309  0.4395  0.0246  0.3349
   91CHL1    C6 9149   4.718   1.954   7.360 -0.4392 -0.4759  0.3352
   91CHL1    H6 9150   4.651   1.891   7.299 -0.2376  0.4121 -0.8454
   91CHL1    C7 9151   4.725   1.922   7.510  0.4349  0.0336 -0.1929
   91CHL1   H7A 9152   4.622   1.906   7.548  0.6102  1.3825  0.9193
   91CHL1   H7B 9153   4.782   1.827   7.514  0.9362  0.3482  0.2993
   91CHL1    C8 9154   4.795   2.029   7.604  0.5716 -0.1785  0.3446
   91CHL1    H8 9155   4.723   2.113   7.616  0.0769 -0.2955 -1.4212
   91CHL1   C14 9156   4.825   1.973   7.734 -0.0649  0.5395 -0.5535
   91CHL1   H14 9157   4.888   1.883   7.721  2.0131  1.6668  1.0100
   91CHL1   C15 9158   4.695   1.926   7.810  0.5701 -0.3361 -0.4247
   91CHL1  H15A 9159   4.611   1.998   7.805 -0.6073 -1.5202  1.3622
   91CHL1  H15B 9160   4.643   1.844   7.756 -1.6476  0.5424  0.2786
   91CHL1   C16 9161   4.741   1.904   7.954  0.1530 -0.0716 -0.1743
   91CHL1  H16A 9162   4.656   1.942   8.015 -0.4513  0.8879 -1.5683
   91CHL1  H16B 9163   4.743   1.795   7.974 -2.0804  0.0974  1.3596
   91CHL1   C17 9164   4.889   1.967   7.966  0.6925  0.3746  0.9489
   91CHL1   H17 9165   4.950   1.877   7.946 -0.2696 -1.1120  4.0536
   91CHL1   C13 9166   4.907   2.059   7.837 -0.4720  0.8576  0.0641
   91CHL1   C18 9167   4.840   2.192   7.855  0.1393  0.1395  0.2358
   91CHL1  H18A 9168   4.889   2.269   7.918  1.4692 -1.1597  0.8243
   91CHL1  H18B 9169   4.825   2.239   7.755  2.6304  0.5990  0.0208
   91CHL1  H18C 9170   4.733   2.180   7.882 -0.9947  1.8609 -2.9955
   91CHL1   C12 9171   5.049   2.067   7.767 -0.2982  0.5477  0.0175
   91CHL1  H12A 9172   5.134   2.115   7.819 -1.1578  1.4573  0.6227
   91CHL1  H12B 9173   5.094   1.969   7.738 -0.5067  0.7345 -0.9775
   91CHL1   C11 9174   5.036   2.137   7.630 -0.1016  1.1724  0.4124
   91CHL1  H11A 9175   4.995   2.237   7.658  0.3703  0.8184  2.5018
   91CHL1  H11B 9176   5.133   2.136   7.574 -0.3526  1.2258 -0.0294
   91CHL1    C9 9177   4.929   2.072   7.530  1.0111  0.0189  0.3909
   91CHL1    H9 9178   4.974   1.975   7.499 -0.9336 -0.0815 -2.5475
   91CHL1   C10 9179   4.903   2.138   7.394 -0.0349 -0.4016  0.3414
   91CHL1   C19 9180   4.859   2.280   7.434 -0.1171  0.0258  0.5939
   91CHL1  H19A 9181   4.770   2.282   7.500  0.3937  0.7898  1.2744
   91CHL1  H19B 9182   4.936   2.334   7.493  0.0818 -0.5506  0.8686
   91CHL1  H19C 9183   4.838   2.329   7.336 -1.6426 -2.6892 -0.5488
   91CHL1    C1 9184   5.032   2.141   7.307 -0.0434  0.1402 -0.1836
   91CHL1   H1A 9185   5.105   2.217   7.344 -0.2794  0.3297 -0.1017
   91CHL1   H1B 9186   5.088   2.045   7.314 -0.8971 -0.3214  0.4053
   91CHL1    C2 9187   5.007   2.192   7.168  0.3708  0.0535  0.5884
   91CHL1   H2A 9188   5.105   2.206   7.117  0.9587 -1.1706  1.3549
   91CHL1   H2B 9189   4.953   2.289   7.176  2.2096  1.1470  0.2457
   91CHL1   C20 9190   4.926   2.014   8.101  0.0162  0.2999 -0.5605
   91CHL1   H20 9191   4.864   2.102   8.131  0.6267  1.1929 -1.8261
   91CHL1   C21 9192   5.070   2.069   8.094  0.8178 -1.1270 -0.0387
   91CHL1  H21A 9193   5.060   2.163   8.035 -0.6800 -2.2137 -1.6084
   91CHL1  H21B 9194   5.138   1.999   8.040 -0.3570 -2.1064 -0.2898
   91CHL1  H21C 9195   5.113   2.102   8.191 -0.0193  1.1605 -0.3828
   91CHL1   C22 9196   4.923   1.897   8.212 -0.1097 -0.1335 -0.3652
   91CHL1  H22A 9197   4.960   1.930   8.311 -1.5051  0.4977 -0.0225
   91CHL1  H22B 9198   4.815   1.872   8.216 -0.5722  1.7513 -0.2554
   91CHL1   C23 9199   5.011   1.773   8.172  0.1711  0.0194 -0.7266
   91CHL1  H23A 9200   4.948   1.711   8.105  0.5688 -0.7536 -0.3981
   91CHL1  H23B 9201   5.106   1.798   8.121  0.1968 -0.6045 -0.9888
   91CHL1   C24 9202   5.044   1.693   8.296  0.2813  0.0475  0.0407
   91CHL1  H24A 9203   5.111   1.744   8.369 -1.3470  1.3765  0.6606
   91CHL1  H24B 9204   4.949   1.660   8.342  0.0022 -0.0579 -0.5949
   91CHL1   C25 9205   5.130   1.561   8.261  0.0236  0.3271  0.9388
   91CHL1   H25 9206   5.216   1.602   8.204  0.7580 -2.4311 -0.0974
   91CHL1   C26 9207   5.182   1.477   8.379  0.4791  0.5588  0.1796
   91CHL1  H26A 9208   5.221   1.540   8.462 -0.4972  1.0469  0.2819
   91CHL1  H26B 9209   5.100   1.413   8.417  0.9348 -0.7530 -0.9546
   91CHL1  H26C 9210   5.257   1.410   8.332  0.3081 -0.7302  1.6916
   91CHL1   C27 9211   5.055   1.481   8.157  0.0789  0.2032 -0.0089
   91CHL1  H27A 9212   5.099   1.381   8.138 -0.4857  0.2322 -1.7009
   91CHL1  H27B 9213   4.953   1.457   8.196 -0.1761 -0.7247 -1.2086
   91CHL1  H27C 9214   5.040   1.542   8.065 -1.4706  1.6636  1.1336
   92CHL1    C3 9215   2.276   4.928   6.745  0.7370 -0.5933  0.9703
   92CHL1    H3 9216   2.243   5.031   6.770 -1.5377 -1.2291  0.8790
   92CHL1    O3 9217   2.282   4.929   6.604 -0.1825 -0.6822  0.0908
   92CHL1   H3' 9218   2.223   5.001   6.579 -0.3408 -1.3280 -1.4954
   92CHL1    C4 9219   2.409   4.883   6.803 -0.2242  0.0265  0.6520
   92CHL1   H4A 9220   2.409   4.778   6.767 -0.0201  0.8090 -1.8232
   92CHL1   H4B 9221   2.499   4.937   6.766  0.1289 -0.6775  0.4542
   92CHL1    C5 9222   2.411   4.877   6.954  0.4410 -0.3263  0.2097
   92CHL1    C6 9223   2.493   4.956   7.020 -0.0206 -0.9121 -0.9279
   92CHL1    H6 9224   2.566   5.018   6.965  1.7599 -2.8547 -0.9150
   92CHL1    C7 9225   2.520   4.948   7.169  0.7955 -0.1535  0.3062
   92CHL1   H7A 9226   2.627   4.928   7.192  0.8407  0.3662  0.5630
   92CHL1   H7B 9227   2.487   5.043   7.217 -2.6247 -1.1641  0.2246
   92CHL1    C8 9228   2.435   4.838   7.245  0.2872  0.1111  0.0438
   92CHL1    H8 9229   2.481   4.737   7.240 -0.0087  0.0132 -1.4249
   92CHL1   C14 9230   2.409   4.879   7.396 -0.7644  0.3358  0.3640
   92CHL1   H14 9231   2.355   4.976   7.392 -1.4675 -0.0775 -0.6013
   92CHL1   C15 9232   2.541   4.912   7.472 -0.0165  0.4580 -0.6692
   92CHL1  H15A 9233   2.621   4.837   7.456 -0.2078 -0.0965  0.8692
   92CHL1  H15B 9234   2.586   5.012   7.451  0.8967  0.2898  0.4283
   92CHL1   C16 9235   2.487   4.892   7.618  0.9834 -0.1611 -0.6597
   92CHL1  H16A 9236   2.551   4.815   7.666 -0.1661 -0.5408  0.3102
   92CHL1  H16B 9237   2.484   4.983   7.682 -0.5095 -1.2927  0.9628
   92CHL1   C17 9238   2.341   4.840   7.612 -0.1757  0.9235 -0.4381
   92CHL1   H17 9239   2.277   4.930   7.595 -1.4888 -0.4106 -3.2690
   92CHL1   C13 9240   2.327   4.769   7.474  0.3068 -0.4998  1.3765
   92CHL1   C18 9241   2.411   4.642   7.482 -0.2933  0.2552  0.4393
   92CHL1  H18A 9242   2.425   4.580   7.390  0.5770  1.6153 -0.3833
   92CHL1  H18B 9243   2.518   4.650   7.511  0.2457 -0.6344 -1.1433
   92CHL1  H18C 9244   2.363   4.565   7.546  0.3239  0.5470  1.2635
   92CHL1   C12 9245   2.193   4.750   7.396  0.3053 -0.1532 -0.0798
   92CHL1  H12A 9246   2.121   4.676   7.438  0.6143 -0.4859 -0.1350
   92CHL1  H12B 9247   2.135   4.845   7.405 -1.0271 -1.0219  0.8122
   92CHL1   C11 9248   2.210   4.717   7.254 -0.3248 -0.6418  0.6089
   92CHL1  H11A 9249   2.257   4.616   7.243 -1.6196 -1.0950 -1.4647
   92CHL1  H11B 9250   2.109   4.709   7.207  0.4603  1.8928 -1.7650
   92CHL1    C9 9251   2.298   4.815   7.172  0.3041  0.5446  0.6079
   92CHL1    H9 9252   2.248   4.914   7.177 -0.3226  0.7159 -4.3083
   92CHL1   C10 9253   2.310   4.790   7.023 -0.3934 -0.1986  0.5209
   92CHL1   C19 9254   2.336   4.638   7.009  0.1001  0.3602  0.8601
   92CHL1  H19A 9255   2.425   4.605   7.066 -0.4389  1.9876  2.7846
   92CHL1  H19B 9256   2.251   4.580   7.052  0.6198  0.3004  1.8238
   92CHL1  H19C 9257   2.353   4.611   6.903 -1.4745  0.3859  0.5791
   92CHL1    C1 9258   2.174   4.827   6.953  0.7467  0.8103  0.1903
   92CHL1   H1A 9259   2.094   4.765   7.000 -0.2287  1.1537 -0.9613
   92CHL1   H1B 9260   2.151   4.932   6.983 -2.8936 -0.1053  1.0655
   92CHL1    C2 9261   2.166   4.830   6.799 -0.9011 -0.0613 -0.0568
   92CHL1   H2A 9262   2.064   4.857   6.764 -0.6373  0.0472 -0.7644
   92CHL1   H2B 9263   2.195   4.730   6.760  0.1188  0.2869 -0.2344
   92CHL1   C20 9264   2.298   4.766   7.738 -0.2081 -0.3365  0.5715
   92CHL1   H20 9265   2.367   4.680   7.748  0.7222  0.5805  2.4990
   92CHL1   C21 9266   2.153   4.714   7.717  0.2519 -0.6582  0.8291
   92CHL1  H21A 9267   2.078   4.791   7.688 -0.4558 -1.3733  0.7126
   92CHL1  H21B 9268   2.112   4.658   7.804  2.2872 -2.8690  0.4772
   92CHL1  H21C 9269   2.164   4.646   7.630  1.1189  1.9175 -1.1863
   92CHL1   C22 9270   2.307   4.842   7.867  0.2742  0.6126 -0.4994
   92CHL1  H22A 9271   2.413   4.871   7.882  0.3442 -0.0460  0.3336
   92CHL1  H22B 9272   2.239   4.930   7.871 -2.0543 -0.9873 -2.1101
   92CHL1   C23 9273   2.281   4.762   8.002  0.4215 -0.2840  0.2007
   92CHL1  H23A 9274   2.179   4.718   8.001 -0.9554  2.3020  3.8896
   92CHL1  H23B 9275   2.357   4.681   8.006  1.0464  0.2527 -0.6963
   92CHL1   C24 9276   2.303   4.856   8.125 -0.7152  0.4462 -0.3525
   92CHL1  H24A 9277   2.405   4.899   8.117 -0.2439 -0.0233  2.1539
   92CHL1  H24B 9278   2.218   4.927   8.127 -0.2198  1.2576 -3.2587
   92CHL1   C25 9279   2.306   4.774   8.252  0.3742 -0.3762  0.0345
   92CHL1   H25 9280   2.367   4.681   8.246  0.9339  0.0432 -1.3682
   92CHL1   C26 9281   2.358   4.860   8.359 -0.5307 -0.3868  0.2439
   92CHL1  H26A 9282   2.468   4.875   8.367 -0.5621 -0.9175  1.8543
   92CHL1  H26B 9283   2.301   4.955   8.350  2.0273  1.3153  0.7853
   92CHL1  H26C 9284   2.327   4.809   8.453  0.2047 -0.7254  0.3092
   92CHL1   C27 9285   2.163   4.728   8.293 -0.3772 -0.0101 -0.1195
   92CHL1  H27A 9286   2.105   4.818   8.325 -0.4421  1.2714 -3.4928
   92CHL1  H27B 9287   2.119   4.685   8.201  1.5756 -0.8076 -0.7190
   92CHL1  H27C 9288   2.159   4.655   8.377 -2.2920  1.3052  1.0347
   93CHL1    C3 9289   6.785   2.991   7.006 -0.0781  0.4608  0.1458
   93CHL1    H3 9290   6.704   3.011   7.079 -0.3454  1.4292 -0.3878
   93CHL1    O3 9291   6.739   3.012   6.873 -0.3602  0.2937 -0.6166
   93CHL1   H3' 9292   6.791   2.953   6.818  1.8319  2.6960 -1.3225
   93CHL1    C4 9293   6.901   3.091   7.025  0.4825 -0.1189  0.0112
   93CHL1   H4A 9294   6.991   3.070   6.962  1.6287  0.6610  1.3164
   93CHL1   H4B 9295   6.872   3.195   7.000  1.0999  0.5835  2.0634
   93CHL1    C5 9296   6.939   3.076   7.168  0.9452  0.1115  0.5210
   93CHL1    C6 9297   6.929   3.177   7.255  1.1034 -0.2653 -0.3747
   93CHL1    H6 9298   6.895   3.272   7.211  0.8968 -0.2741 -0.2322
   93CHL1    C7 9299   6.979   3.177   7.396 -0.9632  0.9972  0.2432
   93CHL1   H7A 9300   7.025   3.274   7.427 -1.2877  2.2590 -2.8959
   93CHL1   H7B 9301   6.902   3.159   7.475 -0.4566  1.6293  0.8960
   93CHL1    C8 9302   7.079   3.056   7.413  0.2312 -0.0913  0.0033
   93CHL1    H8 9303   7.171   3.078   7.355  0.0725  0.8129  0.0937
   93CHL1   C14 9304   7.111   3.035   7.564  0.3806 -0.2756 -0.3149
   93CHL1   H14 9305   7.019   2.990   7.607 -0.8149 -0.2331 -2.6581
   93CHL1   C15 9306   7.156   3.158   7.644 -0.2120  0.2720  0.1385
   93CHL1  H15A 9307   7.223   3.205   7.568 -1.9366 -0.5533 -2.0131
   93CHL1  H15B 9308   7.072   3.227   7.667  1.5362  2.9085 -0.7464
   93CHL1   C16 9309   7.237   3.100   7.760  0.7154 -0.5253  0.0702
   93CHL1  H16A 9310   7.346   3.121   7.760  0.3295  1.7619 -0.5667
   93CHL1  H16B 9311   7.187   3.146   7.848  0.0834 -0.2205 -0.4407
   93CHL1   C17 9312   7.225   2.944   7.758  0.9846  0.2082  0.0708
   93CHL1   H17 9313   7.122   2.930   7.798  0.0635  2.9308 -1.0820
   93CHL1   C13 9314   7.203   2.921   7.603 -0.2671 -0.5109 -0.9488
   93CHL1   C18 9315   7.341   2.923   7.537  0.4672  0.4540  0.2394
   93CHL1  H18A 9316   7.373   2.820   7.561  0.2567  0.1496 -0.7515
   93CHL1  H18B 9317   7.342   2.914   7.426  2.3586  1.1636  0.1548
   93CHL1  H18C 9318   7.412   3.000   7.574  1.1868 -0.2015  0.2463
   93CHL1   C12 9319   7.126   2.790   7.549 -0.4431 -0.1224 -0.3069
   93CHL1  H12A 9320   7.194   2.702   7.554 -3.2580 -2.5575 -1.3856
   93CHL1  H12B 9321   7.042   2.753   7.612  0.9344 -1.3341  0.9091
   93CHL1   C11 9322   7.104   2.803   7.399 -0.1517  0.7288 -0.2596
   93CHL1  H11A 9323   7.199   2.793   7.342 -1.4725 -0.0553 -2.4946
   93CHL1  H11B 9324   7.043   2.714   7.370  0.4596  0.5338 -1.0136
   93CHL1    C9 9325   7.019   2.924   7.358 -1.0731 -1.0574  0.0087
   93CHL1    H9 9326   6.918   2.910   7.402 -0.7670 -0.4576  0.9248
   93CHL1   C10 9327   6.997   2.931   7.202  0.2504 -0.0648  0.2604
   93CHL1   C19 9328   7.125   2.912   7.128 -0.6697 -0.1272  0.2625
   93CHL1  H19A 9329   7.166   2.808   7.129 -0.3086  0.0132  0.1739
   93CHL1  H19B 9330   7.125   2.922   7.018  1.1192  1.4003  0.3527
   93CHL1  H19C 9331   7.212   2.970   7.166 -0.1479 -1.6250  1.4626
   93CHL1    C1 9332   6.893   2.819   7.156 -0.5404 -0.4832  0.5257
   93CHL1   H1A 9333   6.948   2.722   7.167  1.0338  0.0471 -1.7643
   93CHL1   H1B 9334   6.801   2.819   7.218 -1.6587 -3.6745 -0.8824
   93CHL1    C2 9335   6.842   2.844   7.018  0.9498 -0.3040  0.2600
   93CHL1   H2A 9336   6.752   2.779   7.011  0.0477  0.6976  1.7528
   93CHL1   H2B 9337   6.916   2.824   6.938 -1.2484 -0.3141 -1.8749
   93CHL1   C20 9338   7.329   2.856   7.836  0.3814  0.2185  0.8067
   93CHL1   H20 9339   7.423   2.856   7.777  0.5687  0.2670  1.1007
   93CHL1   C21 9340   7.277   2.712   7.847 -0.2542 -0.9872  0.4236
   93CHL1  H21A 9341   7.355   2.653   7.899  1.3832  0.8736  0.1959
   93CHL1  H21B 9342   7.272   2.671   7.743  1.7458  0.3056 -0.2414
   93CHL1  H21C 9343   7.183   2.707   7.906 -0.2799 -1.8478  0.3344
   93CHL1   C22 9344   7.370   2.913   7.973  0.5453  0.2931 -0.0162
   93CHL1  H22A 9345   7.441   2.996   7.955  0.8510 -0.3130 -1.7516
   93CHL1  H22B 9346   7.286   2.959   8.029  1.2319  2.5044 -0.7295
   93CHL1   C23 9347   7.452   2.819   8.069 -0.2200 -0.1080 -0.3792
   93CHL1  H23A 9348   7.478   2.879   8.159 -0.4286 -0.0917 -0.3303
   93CHL1  H23B 9349   7.384   2.738   8.102  0.4236 -0.7622 -0.6376
   93CHL1   C24 9350   7.578   2.770   8.010 -0.7505  0.5357 -0.0476
   93CHL1  H24A 9351   7.553   2.736   7.907 -1.0230  0.6496 -0.0204
   93CHL1  H24B 9352   7.656   2.848   7.995  0.9868 -1.0755  0.2771
   93CHL1   C25 9353   7.646   2.653   8.090 -0.0886  0.5683 -0.0212
   93CHL1   H25 9354   7.674   2.691   8.191  0.3277 -0.7276  0.3781
   93CHL1   C26 9355   7.555   2.524   8.091 -0.2108 -0.6727 -0.2795
   93CHL1  H26A 9356   7.516   2.513   7.987 -1.7799 -0.4514  0.2636
   93CHL1  H26B 9357   7.613   2.433   8.117  0.5061 -0.2698 -0.4389
   93CHL1  H26C 9358   7.467   2.533   8.158  1.7484 -1.8310  2.6786
   93CHL1   C27 9359   7.781   2.625   8.011  0.1847  0.0234  0.2768
   93CHL1  H27A 9360   7.765   2.544   7.936 -0.2177  0.9692 -0.6912
   93CHL1  H27B 9361   7.836   2.712   7.968 -1.3750  0.3395 -1.1765
   93CHL1  H27C 9362   7.848   2.584   8.089 -1.3260  0.3837  1.8277
   94CHL1    C3 9363   3.052   5.972   6.965 -0.1152 -0.1046  0.4416
   94CHL1    H3 9364   2.950   6.002   6.934  0.1264 -0.2162 -0.5036
   94CHL1    O3 9365   3.152   5.996   6.869 -0.1647  0.2990  0.0859
   94CHL1   H3' 9366   3.154   5.918   6.814  1.9726 -0.0913  0.6112
   94CHL1    C4 9367   3.085   6.061   7.085  0.2606  0.0429 -0.7072
   94CHL1   H4A 9368   3.192   6.043   7.108  0.6610  0.3758 -2.2133
   94CHL1   H4B 9369   3.089   6.166   7.047 -0.2546 -0.4212 -2.1182
   94CHL1    C5 9370   2.994   6.046   7.207  0.2829 -0.3595  0.4186
   94CHL1    C6 9371   2.919   6.151   7.245  0.0572 -0.0439  0.5060
   94CHL1    H6 9372   2.919   6.249   7.196 -3.9686 -0.7063 -1.1697
   94CHL1    C7 9373   2.818   6.133   7.354 -0.2576  0.1032  0.0461
   94CHL1   H7A 9374   2.815   6.222   7.421 -1.6062 -1.4358  2.1490
   94CHL1   H7B 9375   2.716   6.112   7.316 -0.1948 -0.3236  0.1066
   94CHL1    C8 9376   2.860   6.016   7.447  1.0312  0.8701 -0.3952
   94CHL1    H8 9377   2.952   6.043   7.503 -0.9478  2.7922  2.2025
   94CHL1   C14 9378   2.751   5.997   7.557  0.0237  1.0326  0.0112
   94CHL1   H14 9379   2.650   5.995   7.511  0.1477 -2.0610 -0.3162
   94CHL1   C15 9380   2.729   6.106   7.667 -0.3180 -0.0016  0.7100
   94CHL1  H15A 9381   2.830   6.139   7.699  0.5572  1.2709 -2.8655
   94CHL1  H15B 9382   2.683   6.198   7.625  3.5501  0.5438 -2.9983
   94CHL1   C16 9383   2.657   6.030   7.783  0.7122  0.2922 -0.3588
   94CHL1  H16A 9384   2.704   6.057   7.880 -0.5199  0.7574  0.1348
   94CHL1  H16B 9385   2.555   6.072   7.795 -0.0850 -1.5644 -0.2565
   94CHL1   C17 9386   2.658   5.877   7.742  0.2203  0.1550 -0.3843
   94CHL1   H17 9387   2.564   5.869   7.683 -1.0623  1.1978  1.4491
   94CHL1   C13 9388   2.769   5.863   7.635  0.3846  0.3708 -0.5394
   94CHL1   C18 9389   2.916   5.865   7.695  0.8270  0.3667  0.2744
   94CHL1  H18A 9390   2.916   5.778   7.763  1.1696  0.4712  0.4069
   94CHL1  H18B 9391   2.993   5.859   7.615 -1.4044 -0.5850 -1.9652
   94CHL1  H18C 9392   2.928   5.957   7.755 -0.2757  0.1254  0.8960
   94CHL1   C12 9393   2.746   5.741   7.538 -0.4356 -0.6547 -0.1201
   94CHL1  H12A 9394   2.742   5.638   7.581  3.3236 -1.0922 -0.5077
   94CHL1  H12B 9395   2.651   5.755   7.482  0.8189  1.9421 -1.7673
   94CHL1   C11 9396   2.853   5.744   7.435 -0.3344 -0.4211 -0.5057
   94CHL1  H11A 9397   2.952   5.710   7.475  0.7246  2.4296 -0.5079
   94CHL1  H11B 9398   2.825   5.670   7.357  2.4123 -0.4750 -1.5610
   94CHL1    C9 9399   2.873   5.888   7.360  0.3808 -0.1436 -0.2752
   94CHL1    H9 9400   2.781   5.891   7.298 -0.3367  1.1264  0.8146
   94CHL1   C10 9401   2.988   5.897   7.262  0.4199 -0.4604  0.0721
   94CHL1   C19 9402   3.126   5.871   7.329  0.4739  0.6779  0.2919
   94CHL1  H19A 9403   3.146   5.767   7.360  1.9599  0.8028 -0.1798
   94CHL1  H19B 9404   3.211   5.899   7.263  2.2683 -2.0048  1.2901
   94CHL1  H19C 9405   3.124   5.947   7.410 -0.7416 -2.2112  3.1913
   94CHL1    C1 9406   2.960   5.806   7.144  0.3676  0.5741  0.6393
   94CHL1   H1A 9407   2.960   5.704   7.188 -2.4533  0.8830  1.5264
   94CHL1   H1B 9408   2.857   5.828   7.109  1.0956  1.0099 -1.3642
   94CHL1    C2 9409   3.049   5.824   7.017  0.0018 -0.4045  0.3566
   94CHL1   H2A 9410   3.009   5.753   6.941  1.2632 -1.8131  0.9681
   94CHL1   H2B 9411   3.152   5.795   7.048 -0.2380  0.8476  2.4907
   94CHL1   C20 9412   2.651   5.780   7.859  0.4458 -0.1461 -0.4315
   94CHL1   H20 9413   2.700   5.690   7.815  3.3539  0.5778  1.0908
   94CHL1   C21 9414   2.503   5.739   7.896  0.9098 -0.0866  0.2122
   94CHL1  H21A 9415   2.459   5.818   7.961  1.2590  1.1197 -0.9841
   94CHL1  H21B 9416   2.508   5.637   7.941  0.6507 -0.0143  0.4084
   94CHL1  H21C 9417   2.434   5.720   7.810 -1.6480 -1.2150  2.3522
   94CHL1   C22 9418   2.746   5.811   7.981  0.1160 -0.2030  0.5302
   94CHL1  H22A 9419   2.852   5.821   7.947 -0.3916 -0.3751 -1.1817
   94CHL1  H22B 9420   2.715   5.909   8.020 -0.2069  0.8313 -2.1095
   94CHL1   C23 9421   2.747   5.707   8.089 -0.3527  0.1731 -0.2846
   94CHL1  H23A 9422   2.649   5.709   8.142  0.2655 -0.2019  0.9270
   94CHL1  H23B 9423   2.769   5.606   8.050  3.2264 -0.3826  2.6505
   94CHL1   C24 9424   2.855   5.734   8.204 -0.2585 -0.4992 -0.5608
   94CHL1  H24A 9425   2.863   5.644   8.269  1.9932 -0.2063 -0.3303
   94CHL1  H24B 9426   2.958   5.743   8.163  0.6427 -3.2004  0.8492
   94CHL1   C25 9427   2.819   5.862   8.283 -0.2592 -0.8209  0.5308
   94CHL1   H25 9428   2.794   5.943   8.211  0.7491 -0.2952  0.7581
   94CHL1   C26 9429   2.693   5.844   8.374  0.7135 -0.1141  0.0335
   94CHL1  H26A 9430   2.687   5.930   8.444  2.0511  0.6033 -0.6856
   94CHL1  H26B 9431   2.600   5.847   8.313 -0.9023  1.7281  2.3902
   94CHL1  H26C 9432   2.711   5.756   8.438  2.5739  0.5521  0.4744
   94CHL1   C27 9433   2.934   5.907   8.369 -0.4611  0.0296  0.0991
   94CHL1  H27A 9434   3.018   5.925   8.299 -1.2111  0.4068 -0.7171
   94CHL1  H27B 9435   2.908   5.997   8.429  0.0015  0.2940 -0.0879
   94CHL1  H27C 9436   2.968   5.832   8.444  0.4897  0.0405 -0.3105
   95CHL1    C3 9437   3.118   4.901   6.613 -0.3488 -0.4428 -0.7475
   95CHL1    H3 9438   3.028   4.836   6.618 -1.5819  1.2955  1.0068
   95CHL1    O3 9439   3.160   4.941   6.478  0.0364  0.4250 -0.0886
   95CHL1   H3' 9440   3.104   5.014   6.451 -0.5302 -0.0970 -0.3540
   95CHL1    C4 9441   3.079   5.034   6.687 -0.1777 -0.7081 -0.3437
   95CHL1   H4A 9442   3.161   5.105   6.667 -0.6029 -0.4228 -1.1019
   95CHL1   H4B 9443   2.986   5.083   6.649  0.6589 -0.2954 -1.9181
   95CHL1    C5 9444   3.057   5.012   6.834  0.3511  0.0353 -0.2885
   95CHL1    C6 9445   2.951   5.071   6.897  0.0239  0.3916  0.4346
   95CHL1    H6 9446   2.887   5.143   6.844 -0.6581  0.0504  0.7756
   95CHL1    C7 9447   2.929   5.071   7.045 -0.0207 -0.3327 -0.1903
   95CHL1   H7A 9448   2.940   5.172   7.089  1.7161  0.2745 -1.8520
   95CHL1   H7B 9449   2.831   5.025   7.071 -0.5954  0.8769 -0.1514
   95CHL1    C8 9450   3.042   4.993   7.120  0.5929  0.4147  0.0305
   95CHL1    H8 9451   3.122   5.069   7.135  0.5604  0.6447 -0.9191
   95CHL1   C14 9452   2.985   4.949   7.253  0.3005  0.3078 -0.1156
   95CHL1   H14 9453   2.918   4.862   7.234  0.5168 -0.0832  0.8703
   95CHL1   C15 9454   2.901   5.046   7.341 -0.3692 -0.5631  0.2544
   95CHL1  H15A 9455   2.947   5.146   7.328 -1.7758 -0.2477 -3.6293
   95CHL1  H15B 9456   2.799   5.068   7.302 -0.2081 -0.5638 -0.1670
   95CHL1   C16 9457   2.925   4.994   7.483 -0.0800  0.3362  0.9308
   95CHL1  H16A 9458   2.974   5.076   7.541 -0.3538  1.1166  0.0900
   95CHL1  H16B 9459   2.828   4.967   7.531 -0.9087 -0.3268 -1.0250
   95CHL1   C17 9460   3.010   4.863   7.474 -0.0167  0.6967 -0.4031
   95CHL1   H17 9461   2.935   4.783   7.454 -0.5176  1.1380 -0.3049
   95CHL1   C13 9462   3.093   4.885   7.343 -0.2404 -0.4957 -0.4167
   95CHL1   C18 9463   3.205   4.981   7.375 -0.6194  0.1330 -0.6119
   95CHL1  H18A 9464   3.276   4.934   7.446 -0.9149  0.2109 -0.2612
   95CHL1  H18B 9465   3.250   5.010   7.277  0.1665 -0.1558 -0.3442
   95CHL1  H18C 9466   3.162   5.067   7.431 -2.6107 -2.5152  2.2734
   95CHL1   C12 9467   3.147   4.762   7.276 -0.2054 -0.1255  0.2104
   95CHL1  H12A 9468   3.235   4.714   7.325  0.2778 -1.4201 -1.7654
   95CHL1  H12B 9469   3.079   4.675   7.266 -0.4692  0.0910  0.1388
   95CHL1   C11 9470   3.211   4.799   7.135  0.3374 -0.3916 -0.0457
   95CHL1  H11A 9471   3.301   4.865   7.145 -0.2144  0.4725 -0.6390
   95CHL1  H11B 9472   3.235   4.706   7.080 -1.2346 -0.6595 -0.3108
   95CHL1    C9 9473   3.102   4.877   7.045 -0.2047 -0.2735  0.7396
   95CHL1    H9 9474   3.021   4.804   7.023  1.0743 -1.7844  0.8302
   95CHL1   C10 9475   3.154   4.922   6.903  0.2961  0.1851  0.3484
   95CHL1   C19 9476   3.282   5.003   6.913 -0.4006  0.2521 -0.3155
   95CHL1  H19A 9477   3.271   5.075   6.997 -0.6626  1.3571 -1.2667
   95CHL1  H19B 9478   3.370   4.938   6.930 -0.0865  0.1130 -2.2837
   95CHL1  H19C 9479   3.297   5.062   6.820 -0.7900  1.0312  0.1089
   95CHL1    C1 9480   3.187   4.794   6.826 -0.5664  0.9743 -0.6409
   95CHL1   H1A 9481   3.273   4.737   6.868 -1.4299 -0.5539 -0.8703
   95CHL1   H1B 9482   3.104   4.723   6.844 -0.2328  0.8779  0.5925
   95CHL1    C2 9483   3.225   4.821   6.679 -0.0990 -0.0241 -0.2116
   95CHL1   H2A 9484   3.227   4.725   6.624 -1.9799 -0.3300  0.1974
   95CHL1   H2B 9485   3.331   4.855   6.674 -0.1598  0.7466  2.3671
   95CHL1   C20 9486   3.082   4.828   7.607  0.0907 -0.7348 -0.5369
   95CHL1   H20 9487   3.147   4.917   7.622 -0.1160 -0.3280 -1.8898
   95CHL1   C21 9488   3.177   4.710   7.600  0.5722 -0.4177 -0.3384
   95CHL1  H21A 9489   3.209   4.690   7.704 -1.1812  2.1239  0.8068
   95CHL1  H21B 9490   3.263   4.730   7.532 -0.8363  3.3457 -1.2466
   95CHL1  H21C 9491   3.126   4.622   7.555  0.7181 -0.2871 -0.7656
   95CHL1   C22 9492   3.000   4.827   7.737 -0.3432  0.1441 -0.1743
   95CHL1  H22A 9493   3.073   4.815   7.821  0.3972 -0.4247 -0.8792
   95CHL1  H22B 9494   2.953   4.928   7.736 -1.5170 -0.3920 -1.3786
   95CHL1   C23 9495   2.889   4.726   7.751 -0.3636 -0.1395  0.3584
   95CHL1  H23A 9496   2.837   4.724   7.653 -0.6699  0.9249  0.4947
   95CHL1  H23B 9497   2.930   4.625   7.774 -2.3564 -1.5926 -1.9210
   95CHL1   C24 9498   2.774   4.763   7.848  0.4393  0.3000  0.5972
   95CHL1  H24A 9499   2.709   4.833   7.791  0.5716  0.4357  0.6153
   95CHL1  H24B 9500   2.714   4.673   7.876  0.0074  0.5388  0.4432
   95CHL1   C25 9501   2.809   4.814   7.985  0.4447 -0.4435  0.3149
   95CHL1   H25 9502   2.872   4.903   7.963  0.2651 -0.3950 -0.0001
   95CHL1   C26 9503   2.685   4.868   8.053 -0.2559  0.7659  0.0277
   95CHL1  H26A 9504   2.636   4.940   7.984 -1.3596 -1.1989 -1.3277
   95CHL1  H26B 9505   2.612   4.786   8.061 -0.6685  0.7822 -2.5276
   95CHL1  H26C 9506   2.700   4.907   8.156 -0.2939 -0.3684  0.4726
   95CHL1   C27 9507   2.886   4.717   8.076  0.1667 -0.0243  0.2881
   95CHL1  H27A 9508   2.974   4.665   8.032  0.3172  0.3948  0.0904
   95CHL1  H27B 9509   2.919   4.766   8.170 -2.3658  1.7488  0.3458
   95CHL1  H27C 9510   2.799   4.652   8.102 -3.0372  3.4632 -0.8104
   96CHL1    C3 9511   2.701   4.652   6.683 -0.0360  0.0706 -0.1739
   96CHL1    H3 9512   2.593   4.650   6.708  0.0504 -1.0153  0.1675
   96CHL1    O3 9513   2.714   4.722   6.558  0.6514 -0.2241 -0.1749
   96CHL1   H3' 9514   2.658   4.684   6.490  1.4038  1.4846 -1.8262
   96CHL1    C4 9515   2.788   4.721   6.787  0.0479 -0.1479 -0.1366
   96CHL1   H4A 9516   2.896   4.728   6.760 -0.1053  1.2447 -0.4587
   96CHL1   H4B 9517   2.758   4.826   6.806 -1.9062 -0.8447  0.8633
   96CHL1    C5 9518   2.777   4.642   6.913 -0.3632 -0.4780 -0.1538
   96CHL1    C6 9519   2.741   4.700   7.030  0.2870 -0.1579  0.5997
   96CHL1    H6 9520   2.717   4.807   7.037 -0.2757 -0.2991  0.8388
   96CHL1    C7 9521   2.755   4.622   7.157  0.5134  0.5341  0.1621
   96CHL1   H7A 9522   2.791   4.690   7.236 -1.2038 -0.6476  2.0589
   96CHL1   H7B 9523   2.654   4.596   7.197  0.4265  0.2697 -0.2223
   96CHL1    C8 9524   2.841   4.491   7.150 -0.0335 -0.4340 -0.6554
   96CHL1    H8 9525   2.945   4.528   7.137 -0.6473  2.1022  1.0877
   96CHL1   C14 9526   2.822   4.401   7.277  0.3234 -0.8211 -0.0878
   96CHL1   H14 9527   2.716   4.370   7.287  0.7637 -1.6933  2.8417
   96CHL1   C15 9528   2.855   4.471   7.409 -0.5317  1.1308  0.6228
   96CHL1  H15A 9529   2.949   4.530   7.407 -0.7913  1.5485  0.5198
   96CHL1  H15B 9530   2.774   4.541   7.439 -3.7706 -2.7500  1.8693
   96CHL1   C16 9531   2.867   4.347   7.510 -0.1395 -0.6661 -0.2526
   96CHL1  H16A 9532   2.957   4.372   7.569 -0.0124 -1.1512 -0.2387
   96CHL1  H16B 9533   2.778   4.343   7.577  1.2341 -1.2302  1.6244
   96CHL1   C17 9534   2.869   4.218   7.426 -0.6527 -0.1113 -0.3719
   96CHL1   H17 9535   2.764   4.182   7.424 -1.0383  0.8371  1.3333
   96CHL1   C13 9536   2.897   4.266   7.278  0.5937 -0.2924 -0.0206
   96CHL1   C18 9537   3.049   4.288   7.254 -0.9470  0.1358 -0.1402
   96CHL1  H18A 9538   3.089   4.351   7.336 -1.5989  1.2602 -0.6666
   96CHL1  H18B 9539   3.112   4.197   7.265  2.1340  2.2638  1.1082
   96CHL1  H18C 9540   3.076   4.345   7.162  0.1370  0.6292  0.4670
   96CHL1   C12 9541   2.832   4.184   7.164 -0.3108  0.6060  0.3084
   96CHL1  H12A 9542   2.882   4.087   7.147  0.5200  1.2105 -0.8580
   96CHL1  H12B 9543   2.721   4.179   7.167 -0.5795  3.9155  0.2357
   96CHL1   C11 9544   2.850   4.262   7.031  0.4441 -0.2458  0.1448
   96CHL1  H11A 9545   2.953   4.252   6.992  0.4168  1.4172 -0.4116
   96CHL1  H11B 9546   2.786   4.211   6.957  0.8763  1.2618 -1.3353
   96CHL1    C9 9547   2.793   4.408   7.028 -0.8351 -0.1166  0.7856
   96CHL1    H9 9548   2.683   4.388   7.029 -0.9718  0.2818 -1.2569
   96CHL1   C10 9549   2.826   4.494   6.897 -0.1480  0.2780 -0.3589
   96CHL1   C19 9550   2.975   4.484   6.874 -0.6775  0.3596  0.5223
   96CHL1  H19A 9551   3.014   4.381   6.860  0.5911  0.6915  1.4629
   96CHL1  H19B 9552   2.989   4.534   6.775 -0.1580  1.1223  0.9660
   96CHL1  H19C 9553   3.036   4.543   6.946  1.9223 -1.6409  0.1115
   96CHL1    C1 9554   2.752   4.423   6.788 -0.8861 -0.2441 -0.1515
   96CHL1   H1A 9555   2.802   4.328   6.760  0.4821 -0.0378  1.4796
   96CHL1   H1B 9556   2.647   4.411   6.823 -1.4554  0.6106 -1.4698
   96CHL1    C2 9557   2.736   4.504   6.660 -0.2079 -0.1728  0.4032
   96CHL1   H2A 9558   2.666   4.448   6.593  0.8808 -1.9094  0.6501
   96CHL1   H2B 9559   2.829   4.493   6.601 -0.5202 -3.8193  0.3152
   96CHL1   C20 9560   2.953   4.106   7.486 -0.9115 -0.0557 -0.2051
   96CHL1   H20 9561   3.057   4.144   7.497 -1.4992  1.0847  2.2864
   96CHL1   C21 9562   2.950   3.979   7.400  0.0868 -0.2866 -0.0360
   96CHL1  H21A 9563   2.968   4.008   7.295 -0.0732 -1.2093 -0.3183
   96CHL1  H21B 9564   2.853   3.927   7.410 -1.2690  2.0003 -0.6000
   96CHL1  H21C 9565   3.038   3.916   7.425  0.0834 -0.5619 -0.7076
   96CHL1   C22 9566   2.916   4.063   7.628  0.2831  0.5786  0.5500
   96CHL1  H22A 9567   2.865   4.143   7.687  2.0636  1.0800  1.4828
   96CHL1  H22B 9568   2.835   3.987   7.628  2.6412 -2.0896 -0.0490
   96CHL1   C23 9569   3.035   4.019   7.707 -0.4617 -0.0044 -0.7058
   96CHL1  H23A 9570   3.117   3.988   7.639  0.0056  3.5258 -1.9275
   96CHL1  H23B 9571   3.076   4.111   7.752  1.4779 -0.8269 -0.7014
   96CHL1   C24 9572   3.017   3.926   7.822  0.4559 -0.5023 -0.0199
   96CHL1  H24A 9573   3.113   3.935   7.878  1.2621 -0.3257 -1.4083
   96CHL1  H24B 9574   2.946   3.970   7.897 -0.7118 -1.9276 -0.2339
   96CHL1   C25 9575   2.970   3.782   7.793 -0.0706  0.8952  0.0883
   96CHL1   H25 9576   2.904   3.789   7.704  1.9098 -1.9844 -1.7695
   96CHL1   C26 9577   3.088   3.696   7.744 -0.3331 -0.8967 -0.5901
   96CHL1  H26A 9578   3.150   3.666   7.831  0.1824  2.2221  0.2506
   96CHL1  H26B 9579   3.042   3.613   7.687 -0.4728 -1.4274  0.2837
   96CHL1  H26C 9580   3.149   3.764   7.681  0.9519 -0.6096  0.8891
   96CHL1   C27 9581   2.905   3.717   7.912 -0.2906 -0.7743 -0.5448
   96CHL1  H27A 9582   2.879   3.610   7.900  0.5140 -1.1018  0.4432
   96CHL1  H27B 9583   2.975   3.725   7.998  0.2654  0.5223 -1.0901
   96CHL1  H27C 9584   2.814   3.770   7.947  0.2225 -0.7017  0.7635
   97OSM      N 9585   5.827   4.339  10.995 -0.5946 -0.2895 -0.3925
   97OSM    C15 9586   5.867   4.480  10.993  0.1692 -0.3976 -0.1611
   97OSM   H15A 9587   5.878   4.519  11.093 -1.6597  1.2193 -0.5172
   97OSM   H15B 9588   5.797   4.546  10.944 -1.4236 -0.7974  1.4537
   97OSM   H15C 9589   5.965   4.494  10.951  0.5441 -1.3131  0.3819
   97OSM    C14 9590   5.943   4.258  11.044 -0.6997  0.0638  0.3247
   97OSM   H14A 9591   6.029   4.251  10.978  0.0682  0.3958  1.2762
   97OSM   H14B 9592   5.913   4.154  11.044  1.0718 -0.4844  1.2655
   97OSM   H14C 9593   5.979   4.288  11.141 -0.4537  1.3552 -0.1427
   97OSM    C13 9594   5.714   4.322  11.093  0.8019 -0.0819 -0.5809
   97OSM   H13A 9595   5.757   4.346  11.189  1.0024 -0.5839 -0.5403
   97OSM   H13B 9596   5.678   4.221  11.080 -2.2086  1.2367 -4.1971
   97OSM   H13C 9597   5.627   4.383  11.072  1.7803  1.9339  0.9199
   97OSM    C12 9598   5.782   4.304  10.853  0.0570  0.3394 -0.7272
   97OSM   H12A 9599   5.855   4.351  10.788  1.0058 -0.8904 -0.5824
   97OSM   H12B 9600   5.689   4.359  10.846 -0.6032 -0.3757  1.6454
   97OSM    C11 9601   5.745   4.162  10.812 -0.0419  0.2695  0.2316
   97OSM   H11A 9602   5.835   4.101  10.835 -0.2404 -0.4737 -0.9004
   97OSM   H11B 9603   5.721   4.158  10.704 -0.1156  0.9032  0.2201
   97OSM      P 9604   5.564   3.983  10.870 -0.3183  0.4357  0.0173
   97OSM    O13 9605   5.588   3.902  10.989  0.1959 -0.3496 -0.6177
   97OSM    O14 9606   5.422   3.995  10.843  0.2504 -0.0452  0.1672
   97OSM    O11 9607   5.643   3.925  10.750 -0.0380 -0.0361  0.3102
   97OSM    O12 9608   5.633   4.118  10.890  0.2420  0.2204  0.4743
   97OSM    C1S 9609   5.626   3.798  10.689  0.5707 -0.0641  0.0901
   97OSM    H1S 9610   5.527   3.755  10.712  0.2437 -1.5064 -3.3829
   97OSM    H1T 9611   5.702   3.728  10.729 -0.8198 -2.5680 -1.3992
   97OSM     NF 9612   5.575   3.683  10.473 -0.6793  0.3859 -0.8853
   97OSM    HNF 9613   5.630   3.620  10.419  0.1771 -0.2364  0.6770
   97OSM    C2S 9614   5.635   3.799  10.539  0.0271 -0.2461 -0.2053
   97OSM    H2S 9615   5.576   3.889  10.511  2.1095  0.9146 -1.1182
   97OSM    C3S 9616   5.785   3.827  10.499  0.6413  0.1465 -0.4456
   97OSM    H3S 9617   5.833   3.729  10.519 -3.5312 -1.8224  0.9192
   97OSM     O3 9618   5.863   3.921  10.579 -0.1693 -0.0956  0.5026
   97OSM    HO3 9619   5.818   3.939  10.662 -1.7005 -2.6058  0.3102
   97OSM    C4S 9620   5.787   3.852  10.355  0.5609 -0.4259 -0.3982
   97OSM    H4S 9621   5.801   3.762  10.294  0.9964 -1.7323  1.5144
   97OSM    C5S 9622   5.794   3.973  10.284 -0.4154 -0.6869 -0.1557
   97OSM    H5S 9623   5.809   4.067  10.339  0.9760 -0.7887 -0.3363
   97OSM    C6S 9624   5.795   3.993  10.131  0.1183 -0.3782 -0.0311
   97OSM    H6S 9625   5.888   4.045  10.102 -1.5714  2.3130 -1.0572
   97OSM    H6T 9626   5.718   4.066  10.098 -0.3990 -0.9392 -0.0921
   97OSM    C7S 9627   5.771   3.866  10.056 -0.2000 -0.1333 -0.3559
   97OSM    H7S 9628   5.687   3.818  10.110  1.4607 -0.2836  2.3332
   97OSM    H7T 9629   5.842   3.785  10.085 -3.0013 -2.5371  0.2373
   97OSM    C8S 9630   5.741   3.882   9.911  0.4718  0.1851  0.3596
   97OSM    H8S 9631   5.828   3.930   9.861 -1.0533  0.0912 -2.6051
   97OSM    H8T 9632   5.651   3.946   9.897 -0.1823 -0.8049 -0.0451
   97OSM    C9S 9633   5.695   3.753   9.846  0.3244 -0.8489 -0.4877
   97OSM    H9S 9634   5.601   3.717   9.892  1.0178 -1.0890  0.7727
   97OSM    H9T 9635   5.771   3.673   9.844  0.5974 -0.5859 -0.8154
   97OSM   C10S 9636   5.645   3.772   9.701 -0.0205 -0.6733  0.8781
   97OSM   H10S 9637   5.720   3.812   9.629 -0.3192  1.4886  1.6842
   97OSM   H10T 9638   5.559   3.843   9.705  0.2101 -0.4153  1.2987
   97OSM   C11S 9639   5.583   3.645   9.645 -0.2194  0.4784  0.3024
   97OSM   H11S 9640   5.494   3.613   9.704 -0.3431 -0.0133 -0.1430
   97OSM   H11T 9641   5.655   3.560   9.643 -0.5421 -0.1223  4.4930
   97OSM   C12S 9642   5.533   3.664   9.507  0.5919  0.3924 -0.1125
   97OSM   H12S 9643   5.618   3.694   9.441 -1.1037 -0.6216 -2.9604
   97OSM   H12T 9644   5.467   3.752   9.515 -0.3370 -0.3307  0.3426
   97OSM   C13S 9645   5.459   3.538   9.452 -0.5237  0.4313  0.4772
   97OSM   H13S 9646   5.394   3.514   9.538 -0.6438 -0.9436  0.0316
   97OSM   H13T 9647   5.535   3.459   9.432  1.3581  1.7994  1.8509
   97OSM   C14S 9648   5.389   3.585   9.323 -0.4779 -0.0224  0.3122
   97OSM   H14S 9649   5.338   3.679   9.351  0.5677 -0.5544  4.7556
   97OSM   H14T 9650   5.316   3.506   9.294 -2.7646  2.2509 -0.4645
   97OSM   C15S 9651   5.482   3.613   9.209  0.4934  0.1159  0.3007
   97OSM   H15S 9652   5.537   3.523   9.173  0.6324  0.3977 -0.2104
   97OSM   H15T 9653   5.556   3.685   9.247  2.1425 -1.7841  0.8623
   97OSM   C16S 9654   5.409   3.662   9.083  0.1123 -0.0806  0.7764
   97OSM   H16S 9655   5.482   3.713   9.017 -0.9243  1.5371  0.8503
   97OSM   H16T 9656   5.337   3.743   9.106  1.6743  1.3685  0.7824
   97OSM   C17S 9657   5.350   3.550   8.998 -0.1305  0.8522  0.4445
   97OSM   H17S 9658   5.302   3.473   9.064  1.1390  1.2183  1.8435
   97OSM   H17T 9659   5.429   3.489   8.949 -0.7665  1.4051 -1.3603
   97OSM   C18S 9660   5.253   3.597   8.894 -0.1485  0.3767  0.3268
   97OSM   H18S 9661   5.312   3.649   8.816 -0.0131  0.0480  0.2064
   97OSM   H18T 9662   5.167   3.661   8.923  0.1750  0.3706  1.3307
   97OSM   H18U 9663   5.213   3.504   8.847  0.0931  0.4145  0.0447
   97OSM    C1F 9664   5.445   3.647  10.488 -0.2561 -0.5954  0.5859
   97OSM     OF 9665   5.367   3.714  10.560 -0.2526  0.9076 -0.3934
   97OSM    C2F 9666   5.412   3.511  10.427  0.2068  0.2936  0.2082
   97OSM    H2F 9667   5.396   3.438  10.509 -2.2592  2.3948  1.7506
   97OSM    H2G 9668   5.496   3.477  10.363 -1.7093 -1.8548 -1.3252
   97OSM    C3F 9669   5.287   3.509  10.332  0.2283  0.4305  0.3187
   97OSM    H3F 9670   5.314   3.570  10.243  1.7287  1.4201  1.4190
   97OSM    H3G 9671   5.204   3.555  10.391  0.1219  0.8303 -0.1334
   97OSM    C4F 9672   5.254   3.369  10.272  0.2014  0.1356 -0.0394
   97OSM    H4F 9673   5.194   3.313  10.346 -2.8319  1.8209 -1.0519
   97OSM    H4G 9674   5.354   3.325  10.250  1.8226  2.9281  1.1225
   97OSM    C5F 9675   5.159   3.356  10.154 -0.2116 -0.1018 -0.6651
   97OSM    H5F 9676   5.177   3.418  10.063 -1.9369  1.6274  0.0873
   97OSM    H5G 9677   5.066   3.403  10.191  0.3942  0.8701 -0.3481
   97OSM    C6F 9678   5.142   3.211  10.114 -0.3645  0.3013  0.0588
   97OSM    H6F 9679   5.047   3.200  10.057 -0.6818  3.2099 -0.1343
   97OSM    H6G 9680   5.137   3.154  10.210 -2.6094  0.2314 -0.0423
   97OSM    C7F 9681   5.252   3.142  10.036  0.5223  0.4288  0.1139
   97OSM    H7F 9682   5.220   3.035  10.030 -2.1651  1.2195 -1.3675
   97OSM    H7G 9683   5.345   3.149  10.097 -0.0669 -1.8188  1.3622
   97OSM    C8F 9684   5.265   3.181   9.889 -0.2308 -0.7887  0.1523
   97OSM    H8F 9685   5.273   3.292   9.889 -2.2150 -0.6136 -0.0049
   97OSM    H8G 9686   5.171   3.173   9.830 -0.1700  0.1755 -0.0947
   97OSM    C9F 9687   5.372   3.109   9.817 -0.9278 -0.5572 -0.3083
   97OSM    H9F 9688   5.449   3.061   9.879 -1.4334  0.2527  0.9669
   97OSM   C10F 9689   5.393   3.102   9.689 -0.6905  0.1383 -0.1512
   97OSM   H10F 9690   5.478   3.041   9.656 -1.4279 -1.7389  1.1632
   97OSM   C11F 9691   5.305   3.172   9.588 -0.1217  0.5337 -0.2253
   97OSM   H11F 9692   5.366   3.228   9.515 -0.1894  4.0507  2.1890
   97OSM   H11G 9693   5.236   3.248   9.630 -1.8548 -1.0378 -0.0694
   97OSM   C12F 9694   5.217   3.078   9.518  0.4590 -0.1887  0.0442
   97OSM   H12F 9695   5.141   3.131   9.458  2.2236  2.5200  0.0385
   97OSM   H12G 9696   5.159   3.023   9.596  0.5650 -0.3297  0.0259
   97OSM   C13F 9697   5.297   2.977   9.428  0.0189  0.4560  0.0727
   97OSM   H13F 9698   5.362   2.917   9.496 -1.3352 -1.7822 -0.5122
   97OSM   H13G 9699   5.366   3.035   9.363  1.0194 -2.6045 -1.7518
   97OSM   C14F 9700   5.208   2.885   9.338  0.5903  0.1635 -0.4188
   97OSM   H14F 9701   5.123   2.847   9.400  1.2233 -2.3635 -0.9916
   97OSM   H14G 9702   5.256   2.789   9.312 -0.4624 -0.4799 -0.0707
   97OSM   C15F 9703   5.154   2.961   9.211  0.1364 -0.2933 -1.0000
   97OSM   H15F 9704   5.070   3.032   9.230  0.4335  0.2163 -1.5392
   97OSM   H15G 9705   5.111   2.886   9.142  2.7425 -1.9589 -0.9484
   97OSM   C16F 9706   5.267   3.040   9.132 -0.2164 -0.1429  0.1878
   97OSM   H16F 9707   5.365   2.988   9.140  0.9241  1.4447 -2.3267
   97OSM   H16G 9708   5.291   3.136   9.182  2.5614 -1.1597  1.0017
   97OSM   C17F 9709   5.227   3.039   8.989 -0.0451 -0.3852 -0.0835
   97OSM   H17F 9710   5.127   3.084   8.967  0.7914  1.9649  0.6087
   97OSM   H17G 9711   5.230   2.936   8.948 -0.2882 -0.2010 -0.5741
   97OSM   C18F 9712   5.312   3.134   8.901 -0.7185 -0.3057 -0.0677
   97OSM   H18F 9713   5.264   3.158   8.804 -0.6210 -0.6485 -0.2007
   97OSM   H18G 9714   5.411   3.085   8.886 -0.2033  0.9183 -0.8707
   97OSM   H18H 9715   5.342   3.227   8.954 -0.8383 -1.1655  1.5673
   98OSM      N 9716   5.165   3.681  11.070 -0.2508  0.1416 -0.2055
   98OSM    C15 9717   5.211   3.541  11.066  0.1367 -0.2370  0.3531
   98OSM   H15A 9718   5.266   3.514  10.978  1.3002 -1.1013  1.3057
   98OSM   H15B 9719   5.130   3.471  11.077 -0.7684  0.8792  1.0782
   98OSM   H15C 9720   5.278   3.512  11.146 -0.1881  1.8974  1.4768
   98OSM    C14 9721   5.278   3.768  11.060  0.2691  0.7248 -0.6865
   98OSM   H14A 9722   5.343   3.751  11.144 -1.0020  1.3814  0.4768
   98OSM   H14B 9723   5.248   3.872  11.057 -2.2301  0.0942  0.3374
   98OSM   H14C 9724   5.341   3.745  10.975  1.1118 -2.1697  0.6167
   98OSM    C13 9725   5.079   3.690  10.949  0.4201 -0.0947  0.0802
   98OSM   H13A 9726   5.140   3.672  10.862  0.9362  0.5545  0.3019
   98OSM   H13B 9727   5.038   3.790  10.952  0.2817  0.0100 -2.7668
   98OSM   H13C 9728   4.993   3.626  10.966  0.4093  0.5006  2.5608
   98OSM    C12 9729   5.094   3.715  11.201 -0.6626  0.2696 -0.8387
   98OSM   H12A 9730   5.168   3.704  11.279 -2.7172 -0.3527  1.1608
   98OSM   H12B 9731   5.022   3.634  11.207  0.9806 -1.1654  2.9754
   98OSM    C11 9732   5.029   3.852  11.225  0.4104  0.3473  0.5737
   98OSM   H11A 9733   5.099   3.929  11.187 -2.7488  2.2091 -1.9509
   98OSM   H11B 9734   5.002   3.875  11.330 -0.0247  3.3651 -0.1213
   98OSM      P 9735   4.777   3.805  11.175  0.2242  0.0278  0.3101
   98OSM    O13 9736   4.795   3.701  11.278 -0.0591  0.1720  0.2596
   98OSM    O14 9737   4.682   3.914  11.204 -0.3069 -0.1058  0.5385
   98OSM    O11 9738   4.734   3.723  11.049 -0.0399 -0.1957  0.1487
   98OSM    O12 9739   4.917   3.866  11.136  0.7434  0.1926  0.2303
   98OSM    C1S 9740   4.748   3.769  10.917  0.2459 -1.0880  0.6900
   98OSM    H1S 9741   4.850   3.748  10.879 -0.3370 -0.8270 -1.1081
   98OSM    H1T 9742   4.719   3.876  10.909  1.7677 -0.6207  1.2217
   98OSM     NF 9743   4.685   3.746  10.682  0.7758  0.1481  0.4545
   98OSM    HNF 9744   4.644   3.831  10.650 -0.5810 -0.7622 -0.3283
   98OSM    C2S 9745   4.652   3.700  10.819  0.9056 -0.2548 -0.0415
   98OSM    H2S 9746   4.682   3.593  10.828  2.2473  0.1301  0.2274
   98OSM    C3S 9747   4.503   3.710  10.868 -0.0097 -0.2118 -0.1376
   98OSM    H3S 9748   4.476   3.817  10.884 -1.6913 -0.9376  2.5973
   98OSM     O3 9749   4.490   3.646  10.991  0.6806 -0.0156 -0.3925
   98OSM    HO3 9750   4.573   3.651  11.039 -0.3465  2.6037  1.3265
   98OSM    C4S 9751   4.409   3.644  10.772  0.1382 -0.2234  0.0033
   98OSM    H4S 9752   4.401   3.535  10.783 -0.7825  0.0421  2.6614
   98OSM    C5S 9753   4.326   3.707  10.686 -0.7734 -0.6381  0.4352
   98OSM    H5S 9754   4.340   3.814  10.670 -0.8054 -0.9212 -1.8652
   98OSM    C6S 9755   4.230   3.657  10.581 -0.0063 -0.2052 -0.1568
   98OSM    H6S 9756   4.195   3.743  10.519 -2.0959 -0.7772  0.1588
   98OSM    H6T 9757   4.140   3.617  10.631 -1.5067 -0.0254 -2.5837
   98OSM    C7S 9758   4.300   3.559  10.493 -0.3774 -0.1168  0.0668
   98OSM    H7S 9759   4.220   3.506  10.438 -1.1280  0.0966  0.9249
   98OSM    H7T 9760   4.350   3.483  10.557  1.2547  0.8908  0.0589
   98OSM    C8S 9761   4.406   3.623  10.393  0.1409  0.3042 -0.0882
   98OSM    H8S 9762   4.495   3.650  10.453 -2.1195  2.4525  2.5731
   98OSM    H8T 9763   4.364   3.717  10.352  0.5790  1.5566  2.1939
   98OSM    C9S 9764   4.430   3.531  10.273  0.5331  0.6204 -0.0327
   98OSM    H9S 9765   4.338   3.473  10.252  0.1900  1.0834  0.1768
   98OSM    H9T 9766   4.507   3.456  10.302  1.3652  0.8460 -1.5833
   98OSM   C10S 9767   4.471   3.604  10.149 -0.0548 -0.1347  0.2467
   98OSM   H10S 9768   4.567   3.653  10.178  0.1869 -0.2586 -0.3138
   98OSM   H10T 9769   4.405   3.684  10.108 -0.8673 -0.1807  1.4164
   98OSM   C11S 9770   4.499   3.512  10.034 -0.4270  0.7582 -0.1441
   98OSM   H11S 9771   4.423   3.432  10.023  1.2152 -0.8508 -0.3104
   98OSM   H11T 9772   4.593   3.455  10.053 -3.0104 -3.7404  0.6096
   98OSM   C12S 9773   4.518   3.596   9.905 -0.2742 -0.0724  0.1264
   98OSM   H12S 9774   4.623   3.632   9.897 -0.3200  0.4071  1.3635
   98OSM   H12T 9775   4.452   3.684   9.918 -2.1544 -1.0671 -2.0844
   98OSM   C13S 9776   4.490   3.524   9.776  0.3865 -0.6028 -0.5071
   98OSM   H13S 9777   4.384   3.492   9.781 -0.0277  0.6849 -0.6980
   98OSM   H13T 9778   4.552   3.432   9.767 -1.6019 -1.9191 -1.4592
   98OSM   C14S 9779   4.500   3.609   9.651 -0.7520  0.2576 -0.4460
   98OSM   H14S 9780   4.610   3.622   9.642 -1.0850  1.8339 -3.1456
   98OSM   H14T 9781   4.452   3.706   9.678  0.6964  0.4329  1.7962
   98OSM   C15S 9782   4.423   3.555   9.524  0.0695  0.1981  0.1143
   98OSM   H15S 9783   4.316   3.558   9.552  0.2966  1.3977  0.9111
   98OSM   H15T 9784   4.452   3.449   9.507 -1.4852  0.1265 -2.8697
   98OSM   C16S 9785   4.428   3.632   9.393 -0.0367 -0.1892 -0.4350
   98OSM   H16S 9786   4.532   3.611   9.359  0.8397  1.6379  0.9802
   98OSM   H16T 9787   4.409   3.739   9.414  0.3163 -0.2019 -0.0384
   98OSM   C17S 9788   4.328   3.567   9.300 -0.3365 -0.2383  0.3227
   98OSM   H17S 9789   4.232   3.612   9.333  0.0722 -0.4989  1.9343
   98OSM   H17T 9790   4.321   3.460   9.325 -2.1805 -0.0426  0.7854
   98OSM   C18S 9791   4.360   3.594   9.156  0.1303  0.1974 -0.5060
   98OSM   H18S 9792   4.465   3.564   9.136 -0.4679 -1.6875 -1.0287
   98OSM   H18T 9793   4.331   3.701   9.154 -2.5397 -0.2173  3.5853
   98OSM   H18U 9794   4.280   3.541   9.101 -0.5040  2.6432 -2.0760
   98OSM    C1F 9795   4.789   3.703  10.607 -0.5015 -0.6646  1.4258
   98OSM     OF 9796   4.874   3.628  10.650  0.0588 -0.0563  0.2063
   98OSM    C2F 9797   4.800   3.770  10.467 -0.4710  0.5100  0.0490
   98OSM    H2F 9798   4.886   3.837  10.489 -0.8243  1.3360 -1.0053
   98OSM    H2G 9799   4.704   3.825  10.463 -0.7380  0.0446 -0.0058
   98OSM    C3F 9800   4.822   3.666  10.361 -0.5422  0.4413 -0.4923
   98OSM    H3F 9801   4.729   3.613  10.330  0.8815 -0.8739 -2.8052
   98OSM    H3G 9802   4.889   3.583  10.392 -0.7057  1.6255  3.5747
   98OSM    C4F 9803   4.877   3.724  10.231  0.1169  0.4442 -0.0262
   98OSM    H4F 9804   4.984   3.747  10.251  0.3138 -0.7505  0.3521
   98OSM    H4G 9805   4.816   3.814  10.209  1.7931  2.2056  2.1191
   98OSM    C5F 9806   4.878   3.629  10.104 -0.1395  0.5773  0.3001
   98OSM    H5F 9807   4.785   3.614  10.045  0.4064 -0.0095 -0.4336
   98OSM    H5G 9808   4.912   3.529  10.140  0.1530  0.5097 -0.1494
   98OSM    C6F 9809   4.973   3.681   9.999  0.1091 -0.1693 -0.6466
   98OSM    H6F 9810   5.075   3.700  10.039 -0.5241  0.8007  0.5939
   98OSM    H6G 9811   4.939   3.785   9.979 -0.6281 -0.1639  0.5270
   98OSM    C7F 9812   4.987   3.588   9.878 -0.0235 -0.5147  0.4229
   98OSM    H7F 9813   4.893   3.562   9.824  1.0851 -2.5543 -0.6484
   98OSM    H7G 9814   5.008   3.488   9.921 -4.2713 -0.9655  1.9299
   98OSM    C8F 9815   5.095   3.650   9.782 -0.9839 -0.9258 -0.5669
   98OSM    H8F 9816   5.177   3.687   9.846  0.2652 -1.0239 -2.0408
   98OSM    H8G 9817   5.049   3.735   9.727  0.2584 -0.8237 -1.5024
   98OSM    C9F 9818   5.153   3.549   9.685  0.1198  0.5839 -0.2253
   98OSM    H9F 9819   5.259   3.524   9.702  0.1531  1.0165  0.2025
   98OSM   C10F 9820   5.094   3.503   9.580  0.0872 -0.1606 -0.1441
   98OSM   H10F 9821   5.155   3.450   9.506  0.8006 -2.5301  2.0102
   98OSM   C11F 9822   4.955   3.540   9.525 -0.0695 -1.0301 -0.5281
   98OSM   H11F 9823   4.912   3.614   9.596  1.2940  0.8315 -1.5264
   98OSM   H11G 9824   4.893   3.448   9.518 -2.9067  0.6565  0.4951
   98OSM   C12F 9825   4.942   3.599   9.387  0.5963  0.4591  0.1267
   98OSM   H12F 9826   5.017   3.680   9.374  0.0944  0.9126  0.0062
   98OSM   H12G 9827   4.845   3.645   9.359  0.3846  0.9566  1.5619
   98OSM   C13F 9828   4.956   3.489   9.284  0.1228 -0.5558  0.0444
   98OSM   H13F 9829   4.907   3.391   9.302 -0.7386 -0.5480 -1.9363
   98OSM   H13G 9830   5.066   3.483   9.273 -0.0034 -1.3239 -1.0131
   98OSM   C14F 9831   4.896   3.520   9.146 -0.4408 -0.5634  0.3261
   98OSM   H14F 9832   4.947   3.608   9.101  1.1541 -0.6915  1.7994
   98OSM   H14G 9833   4.791   3.551   9.166 -0.4863 -0.7306  0.3472
   98OSM   C15F 9834   4.890   3.404   9.044 -0.4435 -0.1040 -0.6602
   98OSM   H15F 9835   4.815   3.325   9.064 -1.1809  1.2678  2.7998
   98OSM   H15G 9836   4.989   3.354   9.055 -0.0502  0.3151 -2.1566
   98OSM   C16F 9837   4.871   3.447   8.900 -0.5932  0.3408 -0.4868
   98OSM   H16F 9838   4.919   3.546   8.884 -0.3925  0.4930  0.9540
   98OSM   H16G 9839   4.763   3.444   8.873  0.4138 -1.6745 -5.3590
   98OSM   C17F 9840   4.941   3.346   8.800  0.3751  0.1619  0.2350
   98OSM   H17F 9841   5.050   3.327   8.804  0.5073  0.1868 -1.9948
   98OSM   H17G 9842   4.923   3.402   8.705 -0.1114 -0.7930 -0.2423
   98OSM   C18F 9843   4.875   3.205   8.804  0.2413 -0.1766 -0.7189
   98OSM   H18F 9844   4.916   3.134   8.730 -1.1090 -0.6036 -1.0871
   98OSM   H18G 9845   4.766   3.215   8.783 -0.1321  0.4168  1.3056
   98OSM   H18H 9846   4.891   3.150   8.900 -1.9666 -0.0392 -0.2136
   99OSM      N 9847   0.697   5.511  10.912  0.4903  0.1906 -0.1040
   99OSM    C15 9848   0.604   5.569  10.807 -0.1961 -0.3203  0.8718
   99OSM   H15A 9849   0.569   5.664  10.846  0.6239 -0.3004  1.5949
   99OSM   H15B 9850   0.511   5.515  10.806 -1.2493  1.3860 -1.2314
   99OSM   H15C 9851   0.653   5.576  10.711  0.1137 -0.2432  1.0323
   99OSM    C14 9852   0.639   5.536  11.045 -0.3441  0.0938  0.0072
   99OSM   H14A 9853   0.660   5.640  11.066 -1.2995  0.1840  0.5552
   99OSM   H14B 9854   0.700   5.485  11.118 -0.7794 -0.8020 -0.2437
   99OSM   H14C 9855   0.536   5.508  11.056 -0.5046  0.0105 -1.4531
   99OSM    C13 9856   0.697   5.364  10.898 -0.5076  0.1255  0.6178
   99OSM   H13A 9857   0.757   5.332  10.814 -0.4701  0.6772  0.4248
   99OSM   H13B 9858   0.595   5.330  10.885  0.1708 -2.3716  1.2575
   99OSM   H13C 9859   0.740   5.320  10.987  1.3782  1.1511  0.2817
   99OSM    C12 9860   0.836   5.573  10.893  0.4530  0.6487  0.6460
   99OSM   H12A 9861   0.820   5.679  10.903  1.3351  0.8471  0.1006
   99OSM   H12B 9862   0.884   5.534  10.805  0.8231 -1.7147  1.8246
   99OSM    C11 9863   0.942   5.538  11.002  0.0438 -0.2001  0.3436
   99OSM   H11A 9864   0.900   5.562  11.102 -1.5582  0.6410 -0.5071
   99OSM   H11B 9865   1.028   5.609  10.998 -1.2472  1.4654  1.0934
   99OSM      P 9866   1.066   5.339  10.877 -0.2148 -0.6844  0.4686
   99OSM    O13 9867   1.203   5.382  10.895  0.3602 -0.1700 -0.5159
   99OSM    O14 9868   1.049   5.192  10.876 -0.8520 -0.4048 -0.6633
   99OSM    O11 9869   0.996   5.400  10.750  0.4739 -0.0433 -0.1055
   99OSM    O12 9870   0.985   5.401  10.996 -0.4928  0.2262 -0.0675
   99OSM    C1S 9871   1.058   5.504  10.663 -0.0569  0.5049 -0.6494
   99OSM    H1S 9872   1.156   5.532  10.706  0.4661 -0.9545 -0.8256
   99OSM    H1T 9873   0.986   5.587  10.648 -1.4973 -0.7941 -1.2286
   99OSM     NF 9874   1.151   5.533  10.435  0.5122  0.6982  0.2792
   99OSM    HNF 9875   1.091   5.572  10.366  1.1662  1.2753  0.0166
   99OSM    C2S 9876   1.093   5.436  10.525 -0.0722 -0.4250 -0.6072
   99OSM    H2S 9877   1.170   5.360  10.550 -0.8613 -0.2928  2.6566
   99OSM    C3S 9878   0.967   5.362  10.477 -0.3148  1.0297  0.9842
   99OSM    H3S 9879   0.887   5.437  10.461 -0.9977  0.0853 -0.1785
   99OSM     O3 9880   0.919   5.256  10.554 -0.3495 -0.1993 -0.2341
   99OSM    HO3 9881   0.958   5.269  10.641 -2.7126 -1.7949  1.1787
   99OSM    C4S 9882   1.010   5.292  10.351 -0.1456  0.6095 -0.3388
   99OSM    H4S 9883   1.069   5.200  10.364  2.0070  1.4784 -2.9363
   99OSM    C5S 9884   0.965   5.322  10.225  0.3763 -0.1367 -0.1097
   99OSM    H5S 9885   0.883   5.394  10.212  1.1727  0.7636 -0.2685
   99OSM    C6S 9886   1.014   5.271  10.096 -0.0242 -0.3495  0.1576
   99OSM    H6S 9887   0.936   5.310  10.027  0.5448 -1.1613 -0.9838
   99OSM    H6T 9888   1.008   5.160  10.090 -0.7299 -0.2681 -0.8667
   99OSM    C7S 9889   1.148   5.317  10.039  0.2356  0.0786 -0.0686
   99OSM    H7S 9890   1.221   5.320  10.122  0.9542 -0.0423 -0.6816
   99OSM    H7T 9891   1.132   5.422  10.005  0.6893  0.3338  0.5055
   99OSM    C8S 9892   1.185   5.248   9.903  0.7944 -0.5846 -0.1323
   99OSM    H8S 9893   1.175   5.138   9.907 -3.2074 -0.4045 -0.8574
   99OSM    H8T 9894   1.291   5.280   9.893  0.7431 -0.4526 -0.2678
   99OSM    C9S 9895   1.114   5.309   9.785 -0.3555 -0.1691  0.4472
   99OSM    H9S 9896   1.150   5.413   9.770 -0.8438 -0.0878 -0.1636
   99OSM    H9T 9897   1.004   5.316   9.798 -0.2324  0.0589  1.4338
   99OSM   C10S 9898   1.154   5.232   9.656 -0.2591  0.2197  0.8558
   99OSM   H10S 9899   1.128   5.124   9.667 -0.3790  0.1340 -0.1232
   99OSM   H10T 9900   1.262   5.249   9.634 -0.1128 -1.9155 -0.4425
   99OSM   C11S 9901   1.071   5.293   9.541 -0.4862  0.5495  0.3587
   99OSM   H11S 9902   1.075   5.404   9.542 -2.5369  0.6603  0.0335
   99OSM   H11T 9903   0.963   5.271   9.559 -0.5119 -2.1763 -2.2018
   99OSM   C12S 9904   1.129   5.256   9.406 -0.0553  0.6924 -0.5881
   99OSM   H12S 9905   1.235   5.288   9.407 -0.6602  3.1612  2.3680
   99OSM   H12T 9906   1.134   5.145   9.399 -2.0315  0.6121 -1.3938
   99OSM   C13S 9907   1.052   5.335   9.297  0.1907  0.2969 -0.8263
   99OSM   H13S 9908   1.054   5.443   9.320 -2.0510  0.4444 -1.1586
   99OSM   H13T 9909   0.946   5.304   9.291  0.2974 -0.0289 -1.1103
   99OSM   C14S 9910   1.105   5.294   9.162  0.0495  0.0803 -0.1965
   99OSM   H14S 9911   1.077   5.187   9.151  0.1487 -0.1279  1.3975
   99OSM   H14T 9912   1.216   5.295   9.163  0.0567  0.0638  1.6064
   99OSM   C15S 9913   1.039   5.372   9.046 -0.1246 -0.2868 -0.2013
   99OSM   H15S 9914   1.062   5.481   9.045  0.8555 -0.4710 -1.5177
   99OSM   H15T 9915   0.930   5.358   9.062  0.0958 -1.6040  0.2472
   99OSM   C16S 9916   1.076   5.316   8.909 -0.4490 -0.8452 -0.4342
   99OSM   H16S 9917   1.028   5.215   8.911 -0.9785 -0.6011  1.8934
   99OSM   H16T 9918   1.185   5.303   8.898 -0.4112  0.9897 -3.1132
   99OSM   C17S 9919   1.024   5.396   8.792 -0.5535  0.1599 -0.0426
   99OSM   H17S 9920   1.060   5.498   8.816  1.5228 -0.3744 -0.6803
   99OSM   H17T 9921   0.913   5.405   8.801 -0.7243 -2.1524  1.0193
   99OSM   C18S 9922   1.055   5.342   8.644  0.0959 -0.2048  0.1534
   99OSM   H18S 9923   1.163   5.320   8.646 -0.0317 -0.8389  1.3676
   99OSM   H18T 9924   1.031   5.418   8.567 -2.1792 -0.8840  0.1130
   99OSM   H18U 9925   1.001   5.249   8.616 -1.2483  0.4177  0.5784
   99OSM    C1F 9926   1.274   5.585  10.448  0.2570  0.2296  0.9141
   99OSM     OF 9927   1.346   5.553  10.539  0.4476 -0.1393  0.5737
   99OSM    C2F 9928   1.314   5.693  10.347 -0.0383 -0.6177  0.2811
   99OSM    H2F 9929   1.283   5.797  10.372  2.8801  0.6123 -0.7315
   99OSM    H2G 9930   1.259   5.676  10.252  0.9771 -0.7750 -0.2872
   99OSM    C3F 9931   1.461   5.673  10.292 -0.0047 -0.1654 -0.2295
   99OSM    H3F 9932   1.475   5.760  10.224 -2.1991 -0.0702 -0.6345
   99OSM    H3G 9933   1.527   5.659  10.380  0.5737 -2.9849 -1.0122
   99OSM    C4F 9934   1.475   5.553  10.199  0.6874  0.3881  0.6704
   99OSM    H4F 9935   1.416   5.569  10.106 -0.9257 -0.6957  1.4464
   99OSM    H4G 9936   1.440   5.455  10.238 -1.1324  1.1917  1.2044
   99OSM    C5F 9937   1.620   5.531  10.165 -0.0744 -0.2166  0.3973
   99OSM    H5F 9938   1.665   5.471  10.247  1.4803  0.6951  0.2583
   99OSM    H5G 9939   1.677   5.626  10.174 -1.5560  0.5811  2.1539
   99OSM    C6F 9940   1.644   5.471  10.023 -0.9834 -0.3925  0.1006
   99OSM    H6F 9941   1.591   5.375  10.003  1.6222 -2.2172  1.4256
   99OSM    H6G 9942   1.749   5.436  10.021 -0.0238  2.3033 -1.3630
   99OSM    C7F 9943   1.636   5.583   9.916  0.3440 -0.3237 -0.2636
   99OSM    H7F 9944   1.734   5.635   9.920  0.2779  0.0308 -2.0556
   99OSM    H7G 9945   1.560   5.662   9.936  1.6357  1.7310 -2.7677
   99OSM    C8F 9946   1.628   5.533   9.777 -0.1555  0.0853  0.4842
   99OSM    H8F 9947   1.706   5.456   9.763 -1.4464 -1.0280 -0.9062
   99OSM    H8G 9948   1.641   5.618   9.706 -1.1052  0.5586  0.8485
   99OSM    C9F 9949   1.493   5.480   9.744 -0.4812 -0.4199  0.5177
   99OSM    H9F 9950   1.455   5.400   9.809  1.5111 -0.3134  1.8987
   99OSM   C10F 9951   1.411   5.523   9.638 -0.5729 -0.1412 -0.2026
   99OSM   H10F 9952   1.316   5.467   9.639  0.4573 -2.0263  2.3567
   99OSM   C11F 9953   1.432   5.628   9.531  0.1267 -0.0298 -0.1211
   99OSM   H11F 9954   1.540   5.649   9.517  0.8417 -0.4280  3.6582
   99OSM   H11G 9955   1.398   5.729   9.563  2.1010 -0.4443  3.9629
   99OSM   C12F 9956   1.355   5.585   9.404 -1.1391 -0.5793 -0.4670
   99OSM   H12F 9957   1.248   5.596   9.430 -0.5861  0.4224  1.6058
   99OSM   H12G 9958   1.387   5.482   9.376  1.6103 -0.3409  1.4338
   99OSM   C13F 9959   1.376   5.668   9.284  0.8812 -0.0960 -0.2121
   99OSM   H13F 9960   1.475   5.655   9.235  0.6890  0.1321 -0.6691
   99OSM   H13G 9961   1.381   5.776   9.310 -3.9635  0.6265 -1.3513
   99OSM   C14F 9962   1.269   5.649   9.172  0.5390  0.5640 -0.6734
   99OSM   H14F 9963   1.162   5.645   9.201  0.1005 -1.5180 -2.2788
   99OSM   H14G 9964   1.290   5.546   9.134 -0.4586  0.3593 -0.6953
   99OSM   C15F 9965   1.287   5.750   9.058  0.6390  0.3833 -0.7109
   99OSM   H15F 9966   1.394   5.753   9.029  0.8462  1.8841  0.1256
   99OSM   H15G 9967   1.264   5.846   9.108  1.4359 -0.2340  0.9284
   99OSM   C16F 9968   1.185   5.711   8.943  1.1265  0.1693  0.4312
   99OSM   H16F 9969   1.080   5.734   8.971  0.3920 -0.1486 -1.8473
   99OSM   H16G 9970   1.184   5.603   8.921  1.9272  0.3025 -0.3450
   99OSM   C17F 9971   1.204   5.797   8.817  0.5682 -0.0995 -0.1172
   99OSM   H17F 9972   1.312   5.806   8.793  0.3437  1.0536 -0.7538
   99OSM   H17G 9973   1.161   5.897   8.841 -0.6180 -0.8442  1.0362
   99OSM   C18F 9974   1.123   5.754   8.696 -0.1398  0.5201 -0.4335
   99OSM   H18F 9975   1.020   5.724   8.725  0.3445 -1.3723 -0.5317
   99OSM   H18G 9976   1.169   5.668   8.643 -0.5460  0.4991 -0.7574
   99OSM   H18H 9977   1.127   5.839   8.625 -1.1672 -0.9863 -2.3844
  100OSM      N 9978   2.467   4.564  11.035  0.0995 -0.5475 -0.2690
  100OSM    C15 9979   2.389   4.474  11.128 -0.0376 -0.4420  0.0740
  100OSM   H15A 9980   2.414   4.373  11.099  0.1878 -0.6493  0.9559
  100OSM   H15B 9981   2.288   4.500  11.100  0.8546  1.3593 -1.7169
  100OSM   H15C 9982   2.406   4.499  11.232 -2.0150  0.5809  0.1969
  100OSM    C14 9983   2.432   4.703  11.087  0.1209  0.4990  0.2681
  100OSM   H14A 9984   2.467   4.725  11.187  2.3311  0.4665 -0.4294
  100OSM   H14B 9985   2.325   4.702  11.099  0.0675 -0.8564 -0.1832
  100OSM   H14C 9986   2.460   4.785  11.023 -2.3913  1.2413  0.0057
  100OSM    C13 9987   2.614   4.558  11.044  0.3247 -0.3256 -0.1052
  100OSM   H13A 9988   2.650   4.469  10.995  0.4075 -0.3844  0.0593
  100OSM   H13B 9989   2.641   4.562  11.149 -1.3226 -0.1706  0.3477
  100OSM   H13C 9990   2.666   4.638  10.993  0.0329 -0.7980 -1.1651
  100OSM    C12 9991   2.414   4.545  10.895  0.8082  0.3714 -0.7025
  100OSM   H12A 9992   2.311   4.577  10.896 -0.5164 -3.3357  1.1726
  100OSM   H12B 9993   2.393   4.443  10.868 -1.6742 -0.2792  2.9585
  100OSM    C11 9994   2.482   4.625  10.784 -0.1595  0.2053 -0.1207
  100OSM   H11A 9995   2.414   4.601  10.700  1.1964 -0.6370 -1.0216
  100OSM   H11B 9996   2.583   4.586  10.758  0.5103  1.7520  0.0705
  100OSM      P 9997   2.605   4.852  10.795  0.4022 -0.0461  0.0955
  100OSM    O13 9998   2.571   4.988  10.843 -0.2819  0.5360  0.2301
  100OSM    O14 9999   2.718   4.786  10.864 -0.4840  0.8233  0.1783
  100OSM    O1110000   2.638   4.868  10.637 -0.1786  0.0289  0.0927
  100OSM    O1210001   2.469   4.766  10.811 -0.0364  0.1489  0.8118
  100OSM    C1S10002   2.544   4.833  10.537 -0.1428 -0.5672  0.8215
  100OSM    H1S10003   2.473   4.919  10.529  0.6699  0.1224  0.9358
  100OSM    H1T10004   2.482   4.746  10.566 -2.2631  0.6225  0.1123
  100OSM     NF10005   2.496   4.806  10.286 -0.8005 -0.1769 -0.2215
  100OSM    HNF10006   2.464   4.714  10.266 -0.1119 -0.0953 -1.8571
  100OSM    C2S10007   2.600   4.824  10.390 -0.0501  0.5721 -0.5962
  100OSM    H2S10008   2.656   4.920  10.385 -0.0479  0.4999 -2.6849
  100OSM    C3S10009   2.700   4.711  10.394 -0.6677  0.0983 -0.2479
  100OSM    H3S10010   2.655   4.610  10.386  1.7906 -1.2911  1.9906
  100OSM     O310011   2.784   4.704  10.511 -0.8305  0.5572  0.3378
  100OSM    HO310012   2.743   4.778  10.556 -1.1817  0.6871 -0.1932
  100OSM    C4S10013   2.789   4.720  10.270  0.2645  0.0136  0.2951
  100OSM    H4S10014   2.862   4.802  10.266 -1.7000  1.7730 -2.1996
  100OSM    C5S10015   2.785   4.622  10.176 -0.7070  0.2003 -0.0544
  100OSM    H5S10016   2.721   4.533  10.175 -0.7405  0.2053 -1.9208
  100OSM    C6S10017   2.876   4.627  10.055 -0.4416 -0.0747 -0.3583
  100OSM    H6S10018   2.979   4.589  10.070 -0.3828 -0.2731 -1.1990
  100OSM    H6T10019   2.901   4.733  10.033  3.2704 -1.0529 -1.6232
  100OSM    C7S10020   2.802   4.560   9.943 -0.1273 -0.1993  0.4090
  100OSM    H7S10021   2.694   4.582   9.928 -1.1754 -2.8284  2.9439
  100OSM    H7T10022   2.797   4.452   9.971 -1.0533  0.0742  1.3537
  100OSM    C8S10023   2.867   4.571   9.801  0.0980  0.0268 -0.4434
  100OSM    H8S10024   2.970   4.530   9.799  0.8002  1.7402 -0.8863
  100OSM    H8T10025   2.880   4.673   9.761  0.8936 -0.8642 -2.6068
  100OSM    C9S10026   2.772   4.506   9.697  0.0254  0.2953  0.3926
  100OSM    H9S10027   2.672   4.555   9.690  0.1314  0.2546 -3.4738
  100OSM    H9T10028   2.765   4.398   9.721  1.3653  0.0336 -0.2830
  100OSM   C10S10029   2.835   4.498   9.553 -0.3127  0.0931 -0.5872
  100OSM   H10S10030   2.938   4.458   9.567 -0.1415  0.2063 -1.4285
  100OSM   H10T10031   2.848   4.604   9.520  2.3654 -0.3310 -1.1306
  100OSM   C11S10032   2.747   4.424   9.447  1.0307 -0.0403  0.2434
  100OSM   H11S10033   2.661   4.489   9.421 -1.4158 -3.1567  0.0256
  100OSM   H11T10034   2.714   4.325   9.484 -1.2927 -0.1439 -1.8452
  100OSM   C12S10035   2.825   4.408   9.313 -0.4766 -0.3584  0.0027
  100OSM   H12S10036   2.925   4.360   9.322 -0.5139 -0.1019  2.6678
  100OSM   H12T10037   2.861   4.510   9.286 -1.4334 -0.3715 -1.4088
  100OSM   C13S10038   2.738   4.366   9.198 -0.3409  0.2152  0.3294
  100OSM   H13S10039   2.656   4.439   9.183  1.0899  1.5364 -1.5645
  100OSM   H13T10040   2.696   4.264   9.206 -0.7652  0.3540 -0.1108
  100OSM   C14S10041   2.825   4.372   9.068  0.1427  0.3405 -0.0390
  100OSM   H14S10042   2.899   4.292   9.085 -0.8274 -0.4426  0.5933
  100OSM   H14T10043   2.894   4.459   9.075  0.0510  0.3145  1.4186
  100OSM   C15S10044   2.747   4.359   8.943  0.0429 -0.3668 -0.0089
  100OSM   H15S10045   2.709   4.457   8.906 -2.3144 -1.3792 -0.4319
  100OSM   H15T10046   2.659   4.291   8.946  0.7033 -1.2794 -0.8635
  100OSM   C16S10047   2.829   4.302   8.833  0.2078  0.1172 -0.2853
  100OSM   H16S10048   2.783   4.312   8.732 -1.1025  0.0624  0.2773
  100OSM   H16T10049   2.854   4.196   8.849 -1.9743 -0.2236  1.3737
  100OSM   C17S10050   2.968   4.369   8.824 -0.8037  1.0881  0.2714
  100OSM   H17S10051   3.027   4.349   8.916  1.0107  2.0742 -0.6046
  100OSM   H17T10052   2.948   4.478   8.811  1.9991  1.5915 -0.5552
  100OSM   C18S10053   3.062   4.327   8.703  0.7314 -0.3292 -0.6687
  100OSM   H18S10054   3.010   4.351   8.608  0.4533  1.6042 -0.0975
  100OSM   H18T10055   3.100   4.223   8.705  3.2079  0.5285 -0.1367
  100OSM   H18U10056   3.151   4.394   8.698  0.3858  0.4108  1.6159
  100OSM    C1F10057   2.419   4.909  10.254  0.4895  0.6079 -0.4674
  100OSM     OF10058   2.459   5.027  10.262  0.3926  0.6333  0.6746
  100OSM    C2F10059   2.276   4.879  10.220  0.2268  0.3100 -0.6773
  100OSM    H2F10060   2.215   4.896  10.311  0.4973 -3.2961  0.3462
  100OSM    H2G10061   2.263   4.770  10.200  0.7375 -0.5340  2.7993
  100OSM    C3F10062   2.223   4.959  10.100  0.3411  0.4021 -0.7563
  100OSM    H3F10063   2.287   4.935  10.012  0.6859  2.1310 -0.9971
  100OSM    H3G10064   2.229   5.069  10.111 -0.0903  0.5404 -1.7989
  100OSM    C4F10065   2.081   4.920  10.072  0.0718  0.7640 -0.3227
  100OSM    H4F10066   2.001   4.958  10.139 -2.5399 -0.9948 -2.2325
  100OSM    H4G10067   2.071   4.810  10.080 -0.3282  0.7852 -0.5145
  100OSM    C5F10068   2.033   4.952   9.933 -0.2982  0.0599  0.7383
  100OSM    H5F10069   2.079   5.052   9.918  3.5169 -1.4745  1.0649
  100OSM    H5G10070   1.923   4.939   9.941 -0.2253 -0.8815  0.3782
  100OSM    C6F10071   2.082   4.853   9.821 -0.2630  0.3378 -0.3808
  100OSM    H6F10072   2.009   4.770   9.826  0.0292  0.0904 -0.2107
  100OSM    H6G10073   2.184   4.814   9.842  0.1538  0.1784 -2.4891
  100OSM    C7F10074   2.071   4.905   9.680 -0.3415 -0.8763 -0.5018
  100OSM    H7F10075   2.142   4.989   9.662  0.7640 -1.3137  1.5110
  100OSM    H7G10076   1.971   4.951   9.667 -0.0423  0.2754  0.9689
  100OSM    C8F10077   2.096   4.800   9.574 -0.2600  0.2660  0.4785
  100OSM    H8F10078   2.017   4.726   9.597  0.2782  0.0140  1.6029
  100OSM    H8G10079   2.198   4.761   9.597 -0.1835  0.2602  0.1372
  100OSM    C9F10080   2.098   4.844   9.429 -0.1450 -0.2718  0.5315
  100OSM    H9F10081   2.180   4.911   9.402 -2.6909  2.0864 -1.9776
  100OSM   C10F10082   2.003   4.830   9.331 -0.2804 -0.0355  0.8720
  100OSM   H10F10083   2.031   4.873   9.234  2.8143  0.0944  1.7219
  100OSM   C11F10084   1.867   4.768   9.348  0.5953  0.4467  0.2092
  100OSM   H11F10085   1.788   4.846   9.337  0.2294  0.1245  0.5058
  100OSM   H11G10086   1.851   4.728   9.450  1.1587  1.3740  0.6767
  100OSM   C12F10087   1.838   4.658   9.241  0.5559  0.5109 -0.6686
  100OSM   H12F10088   1.737   4.616   9.264 -0.3079  2.8139  0.0520
  100OSM   H12G10089   1.916   4.581   9.258 -0.9282 -1.2283 -1.3839
  100OSM   C13F10090   1.854   4.697   9.097  0.0659 -0.1552  0.4678
  100OSM   H13F10091   1.960   4.675   9.075 -0.1950 -1.7158  0.6691
  100OSM   H13G10092   1.828   4.802   9.070  1.6951  0.1913  0.1690
  100OSM   C14F10093   1.765   4.613   8.996 -0.3949 -0.8111 -0.3616
  100OSM   H14F10094   1.661   4.652   9.002 -0.0889 -0.0438  0.1345
  100OSM   H14G10095   1.769   4.504   9.015 -0.3254 -0.7850 -0.2263
  100OSM   C15F10096   1.820   4.640   8.862 -0.0032  0.4629  0.4359
  100OSM   H15F10097   1.931   4.630   8.861 -0.1515 -1.8091 -1.0282
  100OSM   H15G10098   1.805   4.736   8.810  0.3831 -0.7022 -1.9703
  100OSM   C16F10099   1.780   4.540   8.749 -0.4022  0.5559 -0.2122
  100OSM   H16F10100   1.673   4.518   8.764  0.0702  0.5573  4.4482
  100OSM   H16G10101   1.830   4.441   8.752 -1.2615  0.0357 -1.8313
  100OSM   C17F10102   1.814   4.590   8.611  0.1087  0.3738  0.7038
  100OSM   H17F10103   1.923   4.607   8.604 -0.0789  1.2109 -0.6821
  100OSM   H17G10104   1.766   4.688   8.588 -1.1763  0.4501  3.3354
  100OSM   C18F10105   1.768   4.484   8.509  0.2946 -0.1515 -0.2435
  100OSM   H18F10106   1.691   4.532   8.444  2.7366  1.8898 -1.8042
  100OSM   H18G10107   1.740   4.388   8.556  0.5009  0.3083  0.8532
  100OSM   H18H10108   1.858   4.465   8.447 -0.2811  0.1153 -1.1949
  101OSM      N10109   5.195   5.667  11.287  0.5112 -0.0338 -0.1901
  101OSM    C1510110   5.094   5.711  11.387  0.1562  0.2215 -0.0982
  101OSM   H15A10111   5.058   5.810  11.361  0.4315  0.8100  1.5997
  101OSM   H15B10112   5.130   5.702  11.489  3.1888 -3.1789 -1.2568
  101OSM   H15C10113   5.011   5.643  11.395  1.2439 -0.9451  2.6261
  101OSM    C1410114   5.305   5.762  11.301  1.1864 -0.3933 -0.4491
  101OSM   H14A10115   5.349   5.754  11.399  1.0581  1.2877 -0.2280
  101OSM   H14B10116   5.276   5.864  11.282  1.7288 -0.4057 -1.3850
  101OSM   H14C10117   5.382   5.737  11.230  0.3822  0.4036 -1.6450
  101OSM    C1310118   5.240   5.535  11.321 -0.1479 -0.6480 -0.4320
  101OSM   H13A10119   5.174   5.450  11.309 -0.4128 -0.8978  2.1797
  101OSM   H13B10120   5.263   5.532  11.427 -1.4270 -0.8867 -0.1391
  101OSM   H13C10121   5.334   5.508  11.276  0.4832  0.3267  0.2727
  101OSM    C1210122   5.126   5.664  11.147 -1.3531  0.1992  0.6959
  101OSM   H12A10123   5.068   5.753  11.130  0.6659  1.2982 -1.0262
  101OSM   H12B10124   5.059   5.579  11.142 -0.3310 -0.5576 -1.0626
  101OSM    C1110125   5.217   5.652  11.019  0.3289  0.4824 -0.0249
  101OSM   H11A10126   5.156   5.618  10.932 -0.1286  0.9478  0.1087
  101OSM   H11B10127   5.287   5.567  11.037 -1.1766 -0.8205 -0.1240
  101OSM      P10128   5.400   5.800  10.894  0.0565  0.0104  0.1020
  101OSM    O1310129   5.382   5.935  10.839  0.5330 -1.0634  0.1776
  101OSM    O1410130   5.525   5.767  10.965  0.1826  1.1140  0.1781
  101OSM    O1110131   5.376   5.697  10.782 -0.1746  0.3752  0.1159
  101OSM    O1210132   5.289   5.773  11.003 -0.1394 -0.1373  0.9736
  101OSM    C1S10133   5.274   5.738  10.686 -0.3310  0.4675 -0.1836
  101OSM    H1S10134   5.306   5.833  10.638  1.3501  1.3694  2.5083
  101OSM    H1T10135   5.172   5.743  10.730 -0.8256  2.6016 -1.4731
  101OSM     NF10136   5.153   5.667  10.467  0.3383 -0.4312  0.1553
  101OSM    HNF10137   5.084   5.600  10.441  2.0597 -0.5823 -5.2750
  101OSM    C2S10138   5.252   5.631  10.569  0.0317 -1.3937  0.6284
  101OSM    H2S10139   5.347   5.622  10.511 -0.0306  0.2411  0.2340
  101OSM    C3S10140   5.236   5.485  10.624 -0.3714  0.6164 -0.3361
  101OSM    H3S10141   5.140   5.474  10.678 -1.0685 -1.2709 -1.8380
  101OSM     O310142   5.331   5.452  10.720 -0.9554  0.8463  0.4627
  101OSM    HO310143   5.370   5.538  10.738  0.3995  1.1197 -3.0091
  101OSM    C4S10144   5.229   5.397  10.511  0.0664  0.5426  0.4985
  101OSM    H4S10145   5.134   5.344  10.495  1.6242 -1.5259 -2.9502
  101OSM    C5S10146   5.334   5.372  10.434  0.2201  0.3961  0.0063
  101OSM    H5S10147   5.429   5.424  10.455  0.6731  0.3506 -1.7785
  101OSM    C6S10148   5.342   5.279  10.313 -0.4882 -0.0139 -0.1449
  101OSM    H6S10149   5.246   5.232  10.283 -0.5787  0.7262 -1.0567
  101OSM    H6T10150   5.410   5.194  10.335  1.7527  1.3145 -1.5578
  101OSM    C7S10151   5.400   5.345  10.177  0.2095  0.3719  1.1341
  101OSM    H7S10152   5.419   5.257  10.112 -1.5513  0.8520 -0.1338
  101OSM    H7T10153   5.496   5.397  10.195  1.0267  0.0326 -1.7651
  101OSM    C8S10154   5.308   5.454  10.111 -0.5190  0.5064 -0.2286
  101OSM    H8S10155   5.300   5.537  10.185 -3.5094  2.1952 -2.2468
  101OSM    H8T10156   5.211   5.404  10.093  1.2312 -3.2076 -0.1927
  101OSM    C9S10157   5.374   5.523   9.988  0.1722 -0.9627 -0.0628
  101OSM    H9S10158   5.468   5.578  10.010 -0.2245 -0.3627  0.1432
  101OSM    H9T10159   5.300   5.599   9.954 -0.4931 -1.3068  0.5810
  101OSM   C10S10160   5.413   5.429   9.879  0.6705  1.3910 -0.1601
  101OSM   H10S10161   5.322   5.372   9.850  0.3853  1.8137 -0.1042
  101OSM   H10T10162   5.487   5.354   9.913  2.7408  4.1293  1.8274
  101OSM   C11S10163   5.470   5.496   9.749  0.5649 -0.4960  0.0764
  101OSM   H11S10164   5.553   5.558   9.790 -1.6185  2.2793  0.6608
  101OSM   H11T10165   5.388   5.559   9.709 -0.4614 -1.8589 -0.0095
  101OSM   C12S10166   5.516   5.409   9.630  0.3133  1.2312  0.3615
  101OSM   H12S10167   5.439   5.340   9.591  0.8232  1.1665 -0.5360
  101OSM   H12T10168   5.602   5.354   9.674 -1.1700 -1.3820  0.1557
  101OSM   C13S10169   5.576   5.486   9.511 -0.4840 -0.5066  0.2558
  101OSM   H13S10170   5.668   5.534   9.551 -2.0417  1.8536  1.2556
  101OSM   H13T10171   5.503   5.567   9.488  0.8048  0.1889 -1.6423
  101OSM   C14S10172   5.609   5.421   9.383  0.1185  0.1702  0.1629
  101OSM   H14S10173   5.521   5.376   9.331 -0.5978  0.7117  0.8672
  101OSM   H14T10174   5.681   5.342   9.414 -0.1827  0.4552  1.7077
  101OSM   C15S10175   5.690   5.521   9.294 -0.7444  0.8795  0.1818
  101OSM   H15S10176   5.779   5.552   9.354  0.5224 -1.8009 -0.1508
  101OSM   H15T10177   5.638   5.617   9.274  1.7007  1.6117 -3.7191
  101OSM   C16S10178   5.737   5.457   9.168 -0.2245  0.0064 -0.7622
  101OSM   H16S10179   5.648   5.432   9.106 -1.2187  0.6294  0.3871
  101OSM   H16T10180   5.795   5.363   9.175  1.8622  1.2563 -0.5139
  101OSM   C17S10181   5.818   5.568   9.091 -0.1923 -0.5209  0.0589
  101OSM   H17S10182   5.870   5.521   9.004  2.3220  0.0271  1.1684
  101OSM   H17T10183   5.895   5.603   9.163 -0.3252 -3.0846  1.5734
  101OSM   C18S10184   5.732   5.677   9.032  0.2279 -0.4145 -1.0090
  101OSM   H18S10185   5.663   5.710   9.113 -0.4446 -3.9402  0.0204
  101OSM   H18T10186   5.665   5.640   8.951  0.1579 -1.9039 -0.3057
  101OSM   H18U10187   5.790   5.760   8.987  0.2684 -0.1142 -0.4200
  101OSM    C1F10188   5.177   5.772  10.391 -0.3557 -0.0078  0.2325
  101OSM     OF10189   5.262   5.858  10.424 -0.0404  0.0740  0.4403
  101OSM    C2F10190   5.097   5.791  10.274 -0.1706  0.4736  0.7376
  101OSM    H2F10191   5.024   5.869  10.305  1.6334  2.6123 -0.1742
  101OSM    H2G10192   5.055   5.694  10.238  1.2312  0.1477 -0.0846
  101OSM    C3F10193   5.181   5.842  10.153  0.0336 -0.5577  0.7530
  101OSM    H3F10194   5.273   5.779  10.148  2.7856  3.2183 -0.4522
  101OSM    H3G10195   5.222   5.941  10.183  0.3905 -0.3822 -0.2897
  101OSM    C4F10196   5.117   5.827  10.016  0.2239  0.7632  0.1073
  101OSM    H4F10197   5.029   5.893  10.002 -2.4752 -2.4262  0.9675
  101OSM    H4G10198   5.082   5.722  10.021 -2.7209  1.7308  2.5842
  101OSM    C5F10199   5.218   5.859   9.906  0.1720 -0.3263  0.3501
  101OSM    H5F10200   5.313   5.810   9.935 -0.4589 -1.7673  0.0683
  101OSM    H5G10201   5.237   5.968   9.906  1.0865 -0.4393  2.5434
  101OSM    C6F10202   5.164   5.817   9.767  0.8316 -0.3927 -0.2532
  101OSM    H6F10203   5.144   5.709   9.785  0.4210  0.2428  3.9460
  101OSM    H6G10204   5.075   5.878   9.740  1.1211  0.2678  0.2761
  101OSM    C7F10205   5.285   5.824   9.665 -0.2750 -0.2877  0.2811
  101OSM    H7F10206   5.378   5.777   9.704  2.1056  2.9729 -1.0128
  101OSM    H7G10207   5.320   5.928   9.647 -2.4966  0.2699 -1.2366
  101OSM    C8F10208   5.247   5.773   9.521 -0.2382  0.0106 -0.2377
  101OSM    H8F10209   5.192   5.680   9.547  1.6454 -0.6691  1.5742
  101OSM    H8G10210   5.346   5.744   9.479 -0.8168  0.5056 -2.0550
  101OSM    C9F10211   5.165   5.885   9.453 -0.3752 -0.3815  0.1117
  101OSM    H9F10212   5.063   5.902   9.489  0.5969 -1.4019  3.8787
  101OSM   C10F10213   5.222   5.962   9.361 -0.4025  0.1562  0.5161
  101OSM   H10F10214   5.168   6.046   9.314 -0.5910  0.0837  0.6034
  101OSM   C11F10215   5.364   5.945   9.305 -0.3878 -0.2070  0.6730
  101OSM   H11F10216   5.432   5.894   9.376 -0.5017  3.3256  3.6380
  101OSM   H11G10217   5.407   6.048   9.301 -0.5648 -0.1685 -0.9438
  101OSM   C12F10218   5.373   5.884   9.167 -0.0564 -0.6232  0.1492
  101OSM   H12F10219   5.480   5.889   9.136  0.3997 -0.2990  1.6895
  101OSM   H12G10220   5.309   5.931   9.089  0.7481  0.0568 -0.1204
  101OSM   C13F10221   5.330   5.742   9.171  0.1628 -0.5562  0.4084
  101OSM   H13F10222   5.224   5.746   9.204 -0.0577  0.0719 -0.3555
  101OSM   H13G10223   5.389   5.689   9.249 -1.2003 -0.6526  1.4215
  101OSM   C14F10224   5.320   5.668   9.034 -0.4399  0.3847  0.1607
  101OSM   H14F10225   5.407   5.693   8.970  1.0318  0.1453  1.9755
  101OSM   H14G10226   5.235   5.716   8.981  0.7001  0.3880 -1.7798
  101OSM   C15F10227   5.315   5.518   9.056 -0.6515  0.4141 -0.2398
  101OSM   H15F10228   5.245   5.493   9.139 -0.8658  1.5082 -0.0752
  101OSM   H15G10229   5.418   5.489   9.086 -0.7247 -0.9124 -1.1588
  101OSM   C16F10230   5.296   5.441   8.928 -0.3631  0.4004  0.7610
  101OSM   H16F10231   5.207   5.476   8.870  0.4629  0.3673 -0.5598
  101OSM   H16G10232   5.271   5.338   8.960 -0.8014  0.1245 -0.4268
  101OSM   C17F10233   5.416   5.437   8.837  0.0702 -0.8378 -0.2081
  101OSM   H17F10234   5.502   5.388   8.887 -0.2087 -2.1962 -1.0027
  101OSM   H17G10235   5.433   5.544   8.812 -2.7508  0.1134  1.4585
  101OSM   C18F10236   5.398   5.357   8.708 -0.6608  0.7505 -0.1812
  101OSM   H18F10237   5.490   5.330   8.650 -1.4246 -2.5252 -0.0293
  101OSM   H18G10238   5.329   5.412   8.641  2.4363  2.4241 -2.2888
  101OSM   H18H10239   5.345   5.260   8.718 -1.4076  1.0383 -1.1813
  102OSM      N10240   0.573   0.849  10.874 -0.3738 -0.0798 -0.1267
  102OSM    C1510241   0.458   0.855  10.774  0.5275  0.1350 -0.0715
  102OSM   H15A10242   0.369   0.816  10.820  0.7545  0.0408  0.2860
  102OSM   H15B10243   0.481   0.793  10.688 -2.4304 -0.0294 -0.8520
  102OSM   H15C10244   0.429   0.957  10.752  1.3788  0.4466  0.2188
  102OSM    C1410245   0.511   0.894  10.998  0.3242  1.0381 -1.3402
  102OSM   H14A10246   0.444   0.817  11.033  2.3101  0.4745  1.5699
  102OSM   H14B10247   0.451   0.983  10.984  0.0197  0.6759 -2.4147
  102OSM   H14C10248   0.587   0.896  11.074 -0.1370 -0.7792 -0.7936
  102OSM    C1310249   0.616   0.708  10.903  0.2816  0.2246  0.0854
  102OSM   H13A10250   0.535   0.637  10.914  1.7878 -1.5331  0.2202
  102OSM   H13B10251   0.680   0.718  10.989 -0.4974 -0.9359  0.8279
  102OSM   H13C10252   0.672   0.673  10.817  2.1010  1.8272  0.5322
  102OSM    C1210253   0.687   0.938  10.839  0.3036 -0.4574 -0.8712
  102OSM   H12A10254   0.772   0.940  10.905  1.5683 -1.9315 -2.3836
  102OSM   H12B10255   0.649   1.039  10.847  0.6873 -0.4161  0.7163
  102OSM    C1110256   0.738   0.921  10.700 -0.6237 -0.0737  0.9747
  102OSM   H11A10257   0.812   1.003  10.685 -2.2183  0.9318 -2.7203
  102OSM   H11B10258   0.664   0.960  10.626 -1.0052  1.8868  2.2979
  102OSM      P10259   0.923   0.730  10.690  0.0155  0.1106 -0.2891
  102OSM    O1310260   0.986   0.762  10.825  0.8458  0.7229  0.2818
  102OSM    O1410261   0.931   0.587  10.659  0.1623  0.0113 -0.4253
  102OSM    O1110262   1.010   0.798  10.580 -0.0448  0.4340  0.8108
  102OSM    O1210263   0.775   0.786  10.669 -0.0048 -0.2186  0.1719
  102OSM    C1S10264   1.041   0.742  10.448  0.1602 -0.0289  0.1523
  102OSM    H1S10265   0.959   0.678  10.411 -0.1206  0.8267 -0.7485
  102OSM    H1T10266   1.137   0.688  10.455  0.2437 -0.1403 -1.5644
  102OSM     NF10267   1.094   0.776  10.208 -0.4544  0.3538  0.1049
  102OSM    HNF10268   1.187   0.778  10.172 -0.2593 -3.8938 -0.1140
  102OSM    C2S10269   1.066   0.843  10.337  0.2688 -0.4915 -0.2179
  102OSM    H2S10270   0.973   0.903  10.329  0.7386  0.1427 -1.1465
  102OSM    C3S10271   1.179   0.943  10.387  0.5421  0.6562  0.6005
  102OSM    H3S10272   1.275   0.887  10.395 -1.2697 -2.7832  0.4672
  102OSM     O310273   1.161   0.998  10.519  0.1814 -0.3379 -0.0621
  102OSM    HO310274   1.080   0.953  10.546 -0.9913  2.2398  1.0825
  102OSM    C4S10275   1.198   1.046  10.282  0.0127 -0.6662  0.1730
  102OSM    H4S10276   1.115   1.118  10.290  0.0054 -0.8658  4.0007
  102OSM    C5S10277   1.303   1.052  10.204 -0.3489 -0.5232  0.7827
  102OSM    H5S10278   1.387   0.984  10.220  0.0754 -0.1013  0.3892
  102OSM    C6S10279   1.307   1.154  10.094 -0.6170 -0.1792 -0.4136
  102OSM    H6S10280   1.382   1.226  10.133  0.9589 -1.8425 -0.2809
  102OSM    H6T10281   1.210   1.207  10.082 -0.0660  0.8686 -0.3336
  102OSM    C7S10282   1.339   1.087   9.962 -0.1057  0.1810 -0.1136
  102OSM    H7S10283   1.304   0.982   9.948  0.5437  0.0960 -1.1534
  102OSM    H7T10284   1.449   1.078   9.963 -0.0385  0.7749  1.4895
  102OSM    C8S10285   1.288   1.167   9.839  0.2211 -0.3930 -0.4549
  102OSM    H8S10286   1.305   1.275   9.855  1.2205 -0.8913  2.4545
  102OSM    H8T10287   1.181   1.143   9.817  0.2046  0.1809 -1.0486
  102OSM    C9S10288   1.357   1.147   9.704  0.1280  0.2452 -0.0164
  102OSM    H9S10289   1.352   1.042   9.668  0.1862 -0.2088  1.2510
  102OSM    H9T10290   1.462   1.181   9.691 -0.7865  2.9086 -1.1471
  102OSM   C10S10291   1.284   1.210   9.580  0.1755 -0.4826  0.5299
  102OSM   H10S10292   1.263   1.318   9.590 -1.4707 -0.7740  0.5090
  102OSM   H10T10293   1.182   1.167   9.572 -0.3086  0.3576  2.0068
  102OSM   C11S10294   1.359   1.194   9.446  0.3686  0.3669 -0.1815
  102OSM   H11S10295   1.379   1.085   9.433 -1.1632  0.1294 -0.7225
  102OSM   H11T10296   1.463   1.233   9.441  0.0448  1.6491  1.7773
  102OSM   C12S10297   1.268   1.245   9.332 -0.4200  0.5130 -0.7620
  102OSM   H12S10298   1.266   1.356   9.338  1.8447  0.6638 -1.6622
  102OSM   H12T10299   1.167   1.201   9.345 -0.2887 -0.2627 -2.1476
  102OSM   C13S10300   1.306   1.201   9.192  0.8878  0.1779  1.1206
  102OSM   H13S10301   1.293   1.093   9.170  1.5023  0.4961 -0.9959
  102OSM   H13T10302   1.413   1.222   9.170  0.3639  3.4532  1.1380
  102OSM   C14S10303   1.214   1.275   9.089 -0.1869  0.3647  0.4963
  102OSM   H14S10304   1.230   1.385   9.096  0.8899  0.3582 -1.2938
  102OSM   H14T10305   1.111   1.244   9.116  0.2778 -2.6646 -0.8779
  102OSM   C15S10306   1.255   1.241   8.942 -0.5461  0.0731  0.0235
  102OSM   H15S10307   1.183   1.286   8.871  2.4197  4.6871 -0.4438
  102OSM   H15T10308   1.245   1.130   8.937 -0.2007 -0.0626  1.6934
  102OSM   C16S10309   1.389   1.271   8.871  0.3144 -0.1285  0.0610
  102OSM   H16S10310   1.374   1.252   8.762 -3.5076 -1.4741  0.6906
  102OSM   H16T10311   1.458   1.193   8.911 -2.4203 -1.7176  2.0565
  102OSM   C17S10312   1.437   1.410   8.890 -0.7638 -0.1730 -0.0104
  102OSM   H17S10313   1.469   1.406   8.996  0.2917  1.6691 -0.2155
  102OSM   H17T10314   1.349   1.477   8.876 -0.4770 -0.0735 -1.4606
  102OSM   C18S10315   1.554   1.469   8.805 -0.3053  0.7894 -0.3712
  102OSM   H18S10316   1.576   1.573   8.837  1.6406  0.0911  0.7961
  102OSM   H18T10317   1.536   1.458   8.696 -2.0586  1.3189 -0.1503
  102OSM   H18U10318   1.652   1.418   8.819 -1.3563 -1.0563  0.7020
  102OSM    C1F10319   0.995   0.716  10.137 -0.2322 -0.5048 -0.1846
  102OSM     OF10320   0.875   0.718  10.172 -0.3407  0.8167 -0.0952
  102OSM    C2F10321   1.030   0.658  10.004 -0.0278  0.0484  0.5106
  102OSM    H2F10322   1.041   0.548  10.015  1.2244  0.1404  0.3312
  102OSM    H2G10323   1.124   0.694   9.958 -1.1165  0.6627 -1.3113
  102OSM    C3F10324   0.921   0.700   9.899  0.1563  0.8809  0.2491
  102OSM    H3F10325   0.902   0.808   9.916 -1.4147  0.3220  2.3628
  102OSM    H3G10326   0.827   0.647   9.924  0.6731  0.9899  2.6531
  102OSM    C4F10327   0.963   0.674   9.757 -1.2184  0.3121 -0.4127
  102OSM    H4F10328   0.947   0.571   9.719  2.3593 -0.0422 -1.2603
  102OSM    H4G10329   1.072   0.693   9.753 -0.9329 -1.2748 -0.6005
  102OSM    C5F10330   0.908   0.769   9.649  0.0199  0.3743  0.0547
  102OSM    H5F10331   0.891   0.874   9.683 -0.9900  0.4875 -0.7270
  102OSM    H5G10332   0.805   0.736   9.622 -0.1248  1.1674 -0.4121
  102OSM    C6F10333   0.993   0.772   9.515 -0.1388  0.5063  0.5542
  102OSM    H6F10334   0.988   0.669   9.474 -0.4941  0.8144 -0.1979
  102OSM    H6G10335   1.095   0.794   9.551  0.1022  0.5128 -0.1323
  102OSM    C7F10336   0.950   0.881   9.410 -0.2857 -0.6896 -0.1335
  102OSM    H7F10337   0.942   0.974   9.470  0.1258 -0.9262  0.2949
  102OSM    H7G10338   0.854   0.867   9.355 -0.7161 -2.7966  1.0442
  102OSM    C8F10339   1.061   0.909   9.306  0.2134 -0.3295 -0.2872
  102OSM    H8F10340   1.161   0.920   9.354 -0.3508 -1.7367  1.3500
  102OSM    H8G10341   1.038   1.003   9.252 -0.3539 -0.4078 -0.1899
  102OSM    C9F10342   1.065   0.795   9.199  0.0094 -0.2847  0.2467
  102OSM    H9F10343   1.112   0.701   9.232 -0.7875 -0.1899  1.7678
  102OSM   C10F10344   1.038   0.801   9.066  0.4390 -1.0372 -0.4537
  102OSM   H10F10345   1.068   0.721   8.997  2.7976  0.4596 -1.3218
  102OSM   C11F10346   0.982   0.923   8.986  0.7080  0.2639 -0.1030
  102OSM   H11F10347   1.059   0.951   8.912  1.9348 -2.1749  0.1348
  102OSM   H11G10348   0.979   1.017   9.045  1.6683 -0.8325  1.8215
  102OSM   C12F10349   0.844   0.895   8.919  0.8747 -0.1177 -0.2685
  102OSM   H12F10350   0.841   0.962   8.831 -1.0140 -0.3202 -0.3988
  102OSM   H12G10351   0.759   0.932   8.980  1.6842  1.4410 -0.0359
  102OSM   C13F10352   0.832   0.752   8.864  0.4232 -0.3216  0.1087
  102OSM   H13F10353   0.831   0.669   8.938 -1.8329 -0.6816 -0.2702
  102OSM   H13G10354   0.919   0.729   8.798 -0.7134  1.9540 -2.3747
  102OSM   C14F10355   0.709   0.734   8.774  0.2382  0.9905 -0.0696
  102OSM   H14F10356   0.697   0.813   8.697 -1.4306 -0.4969 -1.4566
  102OSM   H14G10357   0.613   0.750   8.827  0.2612  0.8490  0.0171
  102OSM   C15F10358   0.703   0.596   8.707 -0.0742 -0.4831 -0.4585
  102OSM   H15F10359   0.720   0.518   8.785  0.2793 -0.3150 -0.3653
  102OSM   H15G10360   0.787   0.581   8.636  0.4300  0.5694 -0.1009
  102OSM   C16F10361   0.572   0.565   8.622 -0.4508  0.5688  0.2529
  102OSM   H16F10362   0.574   0.465   8.573 -0.2556  0.1296  1.1293
  102OSM   H16G10363   0.569   0.641   8.542 -1.1753  0.5572  0.2623
  102OSM   C17F10364   0.446   0.556   8.705  0.0310 -0.1238  0.9390
  102OSM   H17F10365   0.438   0.650   8.764 -0.3813  0.3653  0.1218
  102OSM   H17G10366   0.463   0.481   8.785  1.2920 -0.7847  0.0864
  102OSM   C18F10367   0.318   0.520   8.631 -0.3610  0.4359  0.1472
  102OSM   H18F10368   0.229   0.520   8.697 -0.0757  4.4410  0.7765
  102OSM   H18G10369   0.326   0.418   8.587 -2.2376  0.2365  0.2015
  102OSM   H18H10370   0.296   0.595   8.552 -1.6765  1.1051  1.1034
  103OSM      N10371   5.864   3.274  11.139  0.1487  0.1427 -0.7283
  103OSM    C1510372   5.961   3.327  11.241 -0.1871 -0.1723  0.1651
  103OSM   H15A10373   6.052   3.271  11.229 -1.4641 -2.1275 -1.0028
  103OSM   H15B10374   5.917   3.321  11.339  0.1737  1.4758  0.4581
  103OSM   H15C10375   5.984   3.430  11.219  1.5959 -0.0137  2.4833
  103OSM    C1410376   5.844   3.131  11.155  0.1510  0.0465 -0.1022
  103OSM   H14A10377   5.785   3.099  11.240 -2.3531  0.5124 -1.5796
  103OSM   H14B10378   5.939   3.080  11.159  0.5170  0.7486  0.3760
  103OSM   H14C10379   5.777   3.081  11.086  1.0705 -0.5224 -0.6066
  103OSM    C1310380   5.720   3.344  11.154  0.5015  0.4492 -0.7395
  103OSM   H13A10381   5.661   3.320  11.067  0.0628  2.7284 -1.1294
  103OSM   H13B10382   5.728   3.452  11.152  0.9677  0.4494  0.3142
  103OSM   H13C10383   5.669   3.305  11.241  1.9405  1.3222  0.5436
  103OSM    C1210384   5.912   3.300  10.991 -0.1782  0.2705 -0.2081
  103OSM   H12A10385   5.837   3.253  10.929 -1.4256  0.8554  0.8118
  103OSM   H12B10386   6.004   3.245  10.979  0.9113  2.2105 -1.2096
  103OSM    C1110387   5.932   3.442  10.947  0.7532  1.1209 -0.9356
  103OSM   H11A10388   5.842   3.503  10.969  1.5728  1.9997  0.0364
  103OSM   H11B10389   5.951   3.441  10.837  1.9210 -1.0757 -0.7614
  103OSM      P10390   6.190   3.466  10.947  0.1765 -0.1021  0.2205
  103OSM    O1310391   6.297   3.534  11.021  0.0226 -0.8573 -0.1453
  103OSM    O1410392   6.211   3.319  10.936  0.5531 -0.1436  0.9894
  103OSM    O1110393   6.188   3.529  10.808 -0.0784  0.1437  0.0852
  103OSM    O1210394   6.051   3.500  11.012 -0.2962 -0.4511  0.0474
  103OSM    C1S10395   6.145   3.660  10.785 -0.6638  0.4925 -0.5842
  103OSM    H1S10396   6.175   3.726  10.869 -1.3714  0.1825 -0.0866
  103OSM    H1T10397   6.035   3.669  10.777 -0.8496  0.0250  1.0810
  103OSM     NF10398   6.155   3.869  10.654 -0.0714 -0.2526  0.4648
  103OSM    HNF10399   6.087   3.884  10.582  1.5416 -0.9943 -1.2869
  103OSM    C2S10400   6.198   3.730  10.656 -0.4999  0.6972  0.1753
  103OSM    H2S10401   6.309   3.733  10.645 -0.5953  1.0784 -0.7409
  103OSM    C3S10402   6.139   3.656  10.534  0.3581 -0.0234 -0.1761
  103OSM    H3S10403   6.030   3.667  10.516  0.2953 -1.2108 -0.6364
  103OSM     O310404   6.160   3.512  10.538  0.5757  0.0814 -0.0601
  103OSM    HO310405   6.188   3.495  10.628 -1.2317 -0.1820  0.4856
  103OSM    C4S10406   6.200   3.706  10.408  0.4232 -0.0775 -0.5790
  103OSM    H4S10407   6.305   3.679  10.391  0.6352  1.2089 -1.4709
  103OSM    C5S10408   6.137   3.762  10.306  0.1558  0.1531  0.1473
  103OSM    H5S10409   6.028   3.769  10.320 -0.2046 -1.8091 -1.2828
  103OSM    C6S10410   6.203   3.807  10.179 -0.1208 -0.2691 -0.1026
  103OSM    H6S10411   6.313   3.793  10.176  0.4033  3.0527 -3.1324
  103OSM    H6T10412   6.171   3.913  10.172  0.7417 -0.0361 -0.6973
  103OSM    C7S10413   6.142   3.744  10.050 -0.2136  0.3908  0.0295
  103OSM    H7S10414   6.058   3.807  10.014  0.6953  1.4776 -0.2666
  103OSM    H7T10415   6.113   3.638  10.060  0.0709 -0.1627 -3.5926
  103OSM    C8S10416   6.255   3.746   9.941  0.2518 -0.4487 -0.0447
  103OSM    H8S10417   6.346   3.688   9.969  1.6596  1.5803 -0.2229
  103OSM    H8T10418   6.295   3.849   9.934  1.0671 -0.7598 -0.2038
  103OSM    C9S10419   6.204   3.699   9.803  0.7656  0.4483  0.4936
  103OSM    H9S10420   6.152   3.600   9.809  0.4901  0.5016 -0.7654
  103OSM    H9T10421   6.290   3.703   9.733  0.5519  0.2519  0.2167
  103OSM   C10S10422   6.107   3.800   9.749 -0.4325 -0.3818 -1.0583
  103OSM   H10S10423   6.154   3.897   9.777  1.9784 -1.2395 -1.9076
  103OSM   H10T10424   6.015   3.784   9.808  0.6277 -3.5224 -0.0930
  103OSM   C11S10425   6.083   3.784   9.595  0.0194  0.1893 -0.0731
  103OSM   H11S10426   6.172   3.792   9.529  0.2228  0.2993  0.2155
  103OSM   H11T10427   6.026   3.875   9.566 -1.1810 -0.5783 -0.1924
  103OSM   C12S10428   6.013   3.651   9.558  0.4096 -0.1915  0.7515
  103OSM   H12S10429   5.943   3.615   9.636 -1.1743 -0.1112 -0.5787
  103OSM   H12T10430   6.091   3.571   9.562 -0.6144 -1.1804  1.5907
  103OSM   C13S10431   5.926   3.651   9.430  0.7224 -0.4744 -0.0070
  103OSM   H13S10432   5.993   3.691   9.350 -0.1644  1.2613  0.0808
  103OSM   H13T10433   5.836   3.715   9.438 -1.0487 -2.6858 -0.9741
  103OSM   C14S10434   5.875   3.513   9.387 -0.4117  0.0545 -0.2110
  103OSM   H14S10435   5.799   3.490   9.465  0.3773  0.6173  0.7504
  103OSM   H14T10436   5.955   3.437   9.396 -1.5792 -1.1306  0.3888
  103OSM   C15S10437   5.817   3.497   9.237  0.5281  0.5229 -0.4022
  103OSM   H15S10438   5.893   3.536   9.167  1.7293  0.1442  0.6556
  103OSM   H15T10439   5.732   3.565   9.217 -0.6133 -1.2620 -1.9303
  103OSM   C16S10440   5.780   3.350   9.183  0.4268 -0.2180  0.6184
  103OSM   H16S10441   5.686   3.310   9.227  1.1568 -3.4643 -0.5487
  103OSM   H16T10442   5.858   3.273   9.197  0.0417 -0.7962 -0.3759
  103OSM   C17S10443   5.759   3.357   9.028 -0.5648  0.6561  0.1688
  103OSM   H17S10444   5.851   3.387   8.973  0.1520  1.2221  1.6319
  103OSM   H17T10445   5.688   3.438   9.001  0.1146  0.9023 -0.9557
  103OSM   C18S10446   5.693   3.224   8.971 -0.2157 -0.3987 -0.3775
  103OSM   H18S10447   5.756   3.133   8.979 -0.5479 -0.6509 -0.5870
  103OSM   H18T10448   5.679   3.240   8.862 -0.0625 -0.0449 -0.3493
  103OSM   H18U10449   5.598   3.208   9.026 -1.7774  3.3802 -1.6274
  103OSM    C1F10450   6.197   3.970  10.737  1.1130 -0.2919 -0.0328
  103OSM     OF10451   6.280   3.953  10.815 -0.4236  0.2573  0.0248
  103OSM    C2F10452   6.131   4.107  10.713 -0.3042  0.3633 -0.3473
  103OSM    H2F10453   6.110   4.150  10.813 -2.8210 -1.4652  0.0049
  103OSM    H2G10454   6.032   4.092  10.665 -2.1010  0.3236  3.0609
  103OSM    C3F10455   6.220   4.198  10.627 -0.3153 -0.3069 -0.5162
  103OSM    H3F10456   6.327   4.192  10.656 -0.6433  3.2315  2.0704
  103OSM    H3G10457   6.185   4.303  10.629  0.2770 -0.1135  0.5804
  103OSM    C4F10458   6.214   4.160  10.483  0.4370 -0.2712  0.1984
  103OSM    H4F10459   6.111   4.149  10.444  0.3579  0.9111  0.0542
  103OSM    H4G10460   6.266   4.062  10.473  0.6091 -0.3370  1.4770
  103OSM    C5F10461   6.297   4.261  10.395 -1.1242 -0.3934  0.2749
  103OSM    H5F10462   6.396   4.270  10.444 -0.6142 -3.0129 -0.1207
  103OSM    H5G10463   6.249   4.361  10.387 -2.0320 -0.8301  0.1159
  103OSM    C6F10464   6.321   4.216  10.250  0.2056 -0.0938  0.4696
  103OSM    H6F10465   6.221   4.209  10.201  0.4476  0.5640 -0.1404
  103OSM    H6G10466   6.377   4.120  10.249  1.4646  0.5623  2.4363
  103OSM    C7F10467   6.393   4.327  10.178  0.5355  0.2284 -0.6907
  103OSM    H7F10468   6.496   4.330  10.220  0.1693 -1.2187  0.4074
  103OSM    H7G10469   6.328   4.415  10.194 -0.6350 -0.7630  0.2065
  103OSM    C8F10470   6.398   4.292  10.030  0.0730 -1.3669  0.3205
  103OSM    H8F10471   6.295   4.256  10.010 -0.7209 -0.6959  2.9048
  103OSM    H8G10472   6.461   4.201  10.021  0.4463 -1.0146 -0.9487
  103OSM    C9F10473   6.424   4.402   9.929 -0.3743  0.4430 -0.0873
  103OSM    H9F10474   6.364   4.495   9.936 -1.4664 -0.3612  2.2094
  103OSM   C10F10475   6.534   4.402   9.850  0.8781 -0.0264 -0.3061
  103OSM   H10F10476   6.546   4.487   9.781 -0.2321 -0.3985 -0.9865
  103OSM   C11F10477   6.638   4.295   9.841 -0.3815 -0.5932 -0.4679
  103OSM   H11F10478   6.588   4.203   9.877 -0.0851 -0.7394 -0.4257
  103OSM   H11G10479   6.727   4.313   9.905 -1.1984  0.0036  0.5302
  103OSM   C12F10480   6.688   4.253   9.697 -0.0682  0.1492  0.0831
  103OSM   H12F10481   6.591   4.245   9.643  0.0877 -0.0279 -0.1728
  103OSM   H12G10482   6.735   4.152   9.689 -2.4339 -0.9667 -0.7461
  103OSM   C13F10483   6.787   4.362   9.638 -0.3116  0.0019 -0.7671
  103OSM   H13F10484   6.865   4.361   9.717 -0.3948  0.7787 -0.6708
  103OSM   H13G10485   6.729   4.457   9.641 -0.9954 -0.4254 -0.2385
  103OSM   C14F10486   6.848   4.324   9.503 -0.6315  0.2867 -0.4888
  103OSM   H14F10487   6.759   4.327   9.436 -0.9747 -0.5232 -0.0799
  103OSM   H14G10488   6.891   4.222   9.505  1.1369  0.9576  2.7862
  103OSM   C15F10489   6.959   4.423   9.471 -0.4029  0.0619 -0.1807
  103OSM   H15F10490   7.013   4.386   9.381 -0.3017  0.6127 -0.3521
  103OSM   H15G10491   7.038   4.426   9.549 -0.2786  0.6630 -0.3230
  103OSM   C16F10492   6.910   4.564   9.451  0.6298  0.3000 -0.4874
  103OSM   H16F10493   7.000   4.615   9.411  2.2161 -1.5590  0.5703
  103OSM   H16G10494   6.869   4.600   9.548  0.1897 -1.1159 -0.1314
  103OSM   C17F10495   6.809   4.579   9.332  0.3322 -0.5700  0.2081
  103OSM   H17F10496   6.792   4.688   9.320  0.4262 -0.5443  0.3038
  103OSM   H17G10497   6.716   4.527   9.364 -0.0476  0.5321  0.9485
  103OSM   C18F10498   6.861   4.533   9.196 -0.3730  0.2187  0.5997
  103OSM   H18F10499   6.894   4.427   9.199  0.6587  0.5003 -0.2686
  103OSM   H18G10500   6.950   4.590   9.162  0.0928 -0.1457  1.1950
  103OSM   H18H10501   6.785   4.534   9.114  1.3857  0.8743 -1.1022
  104OSM      N10502   0.054   2.211  10.580 -0.5407 -0.0654 -0.5614
  104OSM    C1510503   0.090   2.251  10.440 -0.0531 -0.4770  0.2005
  104OSM   H15A10504   0.190   2.290  10.426 -1.0732  1.4599 -2.6002
  104OSM   H15B10505   0.026   2.325  10.394 -0.3443 -1.9342 -1.8577
  104OSM   H15C10506   0.091   2.163  10.378 -0.2532 -1.3245  1.3627
  104OSM    C1410507  -0.093   2.174  10.578  0.3712  0.0629 -0.4245
  104OSM   H14A10508  -0.144   2.269  10.575  0.9727  0.3739 -1.9546
  104OSM   H14B10509  -0.120   2.122  10.668 -2.3214 -2.3058 -2.4323
  104OSM   H14C10510  -0.104   2.111  10.491  0.8495 -0.7546  0.0962
  104OSM    C1310511   0.129   2.087  10.603  0.0223 -0.1786 -0.1517
  104OSM   H13A10512   0.235   2.109  10.606 -0.0199  1.0594 -3.7805
  104OSM   H13B10513   0.117   2.015  10.524 -1.8449  0.9612 -0.9637
  104OSM   H13C10514   0.094   2.044  10.696 -1.4383 -1.1016 -1.0811
  104OSM    C1210515   0.082   2.320  10.671 -0.2087  0.4006 -0.2797
  104OSM   H12A10516   0.190   2.325  10.675 -0.1843  0.9236 -1.2243
  104OSM   H12B10517   0.045   2.280  10.764 -2.3364 -0.2239 -1.3192
  104OSM    C1110518   0.023   2.457  10.639  0.2916 -1.1823  0.1060
  104OSM   H11A10519   0.050   2.496  10.538 -0.6499 -1.4908 -0.2700
  104OSM   H11B10520   0.069   2.514  10.724 -0.3153 -0.6617  0.0923
  104OSM      P10521  -0.195   2.483  10.780  0.0410  0.2595 -0.1540
  104OSM    O1310522  -0.322   2.409  10.793 -0.2765  0.5048  0.2052
  104OSM    O1410523  -0.104   2.468  10.893  0.3512 -0.5482 -0.6258
  104OSM    O1110524  -0.233   2.637  10.775 -0.2795  0.3673  0.3855
  104OSM    O1210525  -0.124   2.461  10.640 -0.0401 -0.0081 -0.8030
  104OSM    C1S10526  -0.199   2.723  10.665 -0.3647 -0.4561  0.8374
  104OSM    H1S10527  -0.098   2.701  10.624 -0.0875  0.5508  0.9598
  104OSM    H1T10528  -0.192   2.827  10.703 -0.1351 -0.6561  1.3570
  104OSM     NF10529  -0.237   2.813  10.446 -0.7841 -0.2840 -0.2496
  104OSM    HNF10530  -0.300   2.889  10.427  0.4724  0.6038 -1.0531
  104OSM    C2S10531  -0.287   2.717  10.538  0.0916  0.0794 -0.0273
  104OSM    H2S10532  -0.280   2.614  10.498  2.3640  0.0124  0.3746
  104OSM    C3S10533  -0.433   2.754  10.572 -0.4124 -0.7717 -0.5667
  104OSM    H3S10534  -0.439   2.857  10.615  0.8834 -1.2503  0.8403
  104OSM     O310535  -0.492   2.670  10.671 -0.4392 -0.0350 -0.0075
  104OSM    HO310536  -0.415   2.642  10.720 -1.5010  0.4267  2.0629
  104OSM    C4S10537  -0.522   2.743  10.445 -0.5774 -0.0775 -0.0943
  104OSM    H4S10538  -0.562   2.842  10.419  0.8956  0.4868 -0.2604
  104OSM    C5S10539  -0.568   2.631  10.383 -1.3054 -0.3590  0.1789
  104OSM    H5S10540  -0.542   2.532  10.424  0.5805 -0.4673 -1.1588
  104OSM    C6S10541  -0.650   2.637  10.263  0.4369 -0.4292 -0.0082
  104OSM    H6S10542  -0.756   2.616  10.288  0.9903  0.1668  3.4202
  104OSM    H6T10543  -0.614   2.551  10.202  0.8293 -1.3559  1.4527
  104OSM    C7S10544  -0.642   2.762  10.170  0.3529  0.2360 -0.7459
  104OSM    H7S10545  -0.535   2.792  10.171 -0.2686  2.6384 -0.5518
  104OSM    H7T10546  -0.694   2.847  10.219 -1.5501 -0.0943 -2.1007
  104OSM    C8S10547  -0.686   2.738  10.028  0.6891 -0.0876  1.0766
  104OSM    H8S10548  -0.612   2.676   9.974  0.3318  0.9525 -0.6702
  104OSM    H8T10549  -0.703   2.822   9.957  2.0780 -1.7531 -1.3923
  104OSM    C9S10550  -0.820   2.653  10.018  0.9135 -0.5313 -0.4299
  104OSM    H9S10551  -0.895   2.694  10.088  1.4523 -1.4032  0.6919
  104OSM    H9T10552  -0.785   2.551  10.045  0.0939 -1.0651 -1.2958
  104OSM   C10S10553  -0.870   2.649   9.877 -0.0611  0.6826 -0.8817
  104OSM   H10S10554  -0.891   2.751   9.837 -2.0887  0.4838 -0.4620
  104OSM   H10T10555  -0.966   2.593   9.889  0.3699 -0.0997 -1.0157
  104OSM   C11S10556  -0.785   2.574   9.775  0.0592  0.0808 -0.2934
  104OSM   H11S10557  -0.732   2.480   9.802  0.9196  0.5469 -0.3407
  104OSM   H11T10558  -0.701   2.636   9.736  1.0830 -1.1063 -0.0358
  104OSM   C12S10559  -0.870   2.546   9.647  0.6274 -0.2740 -0.8071
  104OSM   H12S10560  -0.933   2.629   9.611  2.2650  1.6700  0.6023
  104OSM   H12T10561  -0.922   2.450   9.670  0.0220  0.3317  0.3953
  104OSM   C13S10562  -0.773   2.519   9.534 -0.8109  0.0247 -0.0569
  104OSM   H13S10563  -0.712   2.440   9.585 -0.4544 -1.0386 -2.0282
  104OSM   H13T10564  -0.711   2.610   9.518 -0.5923 -0.2186 -0.6179
  104OSM   C14S10565  -0.834   2.480   9.403 -0.3324 -0.0559 -0.0073
  104OSM   H14S10566  -0.914   2.553   9.377  1.0522  1.9360  1.0875
  104OSM   H14T10567  -0.897   2.390   9.419 -2.3810  0.7875 -2.5634
  104OSM   C15S10568  -0.742   2.481   9.281  0.6479 -0.0761  0.6213
  104OSM   H15S10569  -0.655   2.417   9.306  1.6732 -0.1299 -2.6202
  104OSM   H15T10570  -0.702   2.582   9.258  4.7727 -1.8661 -1.1239
  104OSM   C16S10571  -0.808   2.412   9.156  0.1583  0.2286  0.0199
  104OSM   H16S10572  -0.899   2.466   9.123 -0.7458 -0.1985  1.6731
  104OSM   H16T10573  -0.839   2.307   9.175  1.4447 -0.4560 -1.4428
  104OSM   C17S10574  -0.706   2.407   9.042 -0.5838  0.3070  0.3067
  104OSM   H17S10575  -0.612   2.361   9.081  0.6632  1.0737 -1.6720
  104OSM   H17T10576  -0.688   2.513   9.014  0.4038  0.1855  0.4387
  104OSM   C18S10577  -0.756   2.322   8.926  0.5412 -0.0680 -1.0484
  104OSM   H18S10578  -0.838   2.366   8.866 -2.0878 -0.6721  1.8492
  104OSM   H18T10579  -0.780   2.221   8.966 -0.1162  0.8787  1.1054
  104OSM   H18U10580  -0.671   2.311   8.855  1.4193 -1.6959  0.1777
  104OSM    C1F10581  -0.104   2.818  10.399  0.9192  0.2848 -0.2868
  104OSM     OF10582  -0.039   2.717  10.392  0.1636  0.6477  0.4579
  104OSM    C2F10583  -0.058   2.958  10.350  0.1468 -0.3324  0.1452
  104OSM    H2F10584   0.033   2.981  10.409 -0.0242  1.6091 -0.2788
  104OSM    H2G10585  -0.145   3.023  10.375  1.4284  1.0295  1.2597
  104OSM    C3F10586  -0.038   2.953  10.199  0.1222  0.3824 -0.3339
  104OSM    H3F10587   0.044   2.879  10.184 -1.0539 -0.9072 -0.7006
  104OSM    H3G10588   0.013   3.046  10.167  1.5119 -0.3211 -0.2536
  104OSM    C4F10589  -0.162   2.935  10.112  0.1914  0.6574  0.4743
  104OSM    H4F10590  -0.245   2.997  10.151  2.1916  3.8929 -0.0114
  104OSM    H4G10591  -0.196   2.829  10.121  0.1952  0.5340 -0.7352
  104OSM    C5F10592  -0.123   2.970   9.970 -0.4559  0.6305  0.5732
  104OSM    H5F10593  -0.021   2.930   9.952  0.0696  1.2859  1.9691
  104OSM    H5G10594  -0.124   3.078   9.945 -1.7609  0.3827 -0.5184
  104OSM    C6F10595  -0.219   2.919   9.861  0.2370 -0.4205 -0.9334
  104OSM    H6F10596  -0.320   2.963   9.877 -0.2729 -1.9173  0.2483
  104OSM    H6G10597  -0.246   2.811   9.869 -1.0786 -0.0847 -0.5458
  104OSM    C7F10598  -0.177   2.947   9.720 -0.4918  1.0202 -0.2256
  104OSM    H7F10599  -0.084   2.888   9.704  0.2760  2.4162 -1.2372
  104OSM    H7G10600  -0.157   3.056   9.707 -1.4075  1.4340  1.6027
  104OSM    C8F10601  -0.270   2.904   9.600  0.5666 -0.2411  0.2196
  104OSM    H8F10602  -0.361   2.964   9.623 -1.1064 -2.2628 -0.7782
  104OSM    H8G10603  -0.308   2.800   9.602  0.1855 -0.2111 -2.3575
  104OSM    C9F10604  -0.196   2.947   9.469 -0.6988 -0.3771 -0.2550
  104OSM    H9F10605  -0.109   3.013   9.486 -1.7681  0.9468  0.1989
  104OSM   C10F10606  -0.234   2.918   9.346 -0.6233 -0.4225 -0.3030
  104OSM   H10F10607  -0.161   2.950   9.270  0.6775 -1.8768  0.2549
  104OSM   C11F10608  -0.343   2.839   9.299 -0.1836 -0.3470  0.1990
  104OSM   H11F10609  -0.408   2.795   9.378  0.8585 -0.7298  0.8609
  104OSM   H11G10610  -0.303   2.762   9.229  1.0456  0.8452 -0.4574
  104OSM   C12F10611  -0.443   2.928   9.218 -0.4904  0.4284  0.5279
  104OSM   H12F10612  -0.479   3.016   9.275 -1.9014  0.1886  0.0688
  104OSM   H12G10613  -0.536   2.872   9.191  0.7875 -1.4038 -0.2975
  104OSM   C13F10614  -0.386   2.964   9.074 -0.2046 -0.1831 -0.6606
  104OSM   H13F10615  -0.391   2.869   9.016  2.1887 -1.4991  1.0989
  104OSM   H13G10616  -0.277   2.987   9.082 -0.0949 -0.6772 -0.7137
  104OSM   C14F10617  -0.462   3.084   9.016 -0.3800  0.2536 -0.0535
  104OSM   H14F10618  -0.430   3.177   9.068 -0.5098 -0.3250  1.0708
  104OSM   H14G10619  -0.568   3.069   9.043  0.3998 -2.1993  2.1074
  104OSM   C15F10620  -0.456   3.092   8.863  0.1726  0.6115  0.6612
  104OSM   H15F10621  -0.530   3.170   8.835  0.4955  0.7700  0.2279
  104OSM   H15G10622  -0.495   3.001   8.813 -2.0830  1.4356  0.8197
  104OSM   C16F10623  -0.320   3.122   8.807 -0.9458 -0.0360  1.0864
  104OSM   H16F10624  -0.254   3.037   8.836 -0.2619  0.0983 -0.0386
  104OSM   H16G10625  -0.272   3.218   8.839  1.7578 -0.7803 -0.4514
  104OSM   C17F10626  -0.315   3.140   8.653 -0.8521  0.5031 -0.0458
  104OSM   H17F10627  -0.376   3.228   8.624 -0.0679  1.0634 -0.0356
  104OSM   H17G10628  -0.356   3.051   8.601  1.2060 -0.9952  0.7393
  104OSM   C18F10629  -0.173   3.158   8.613  0.1042  0.1728 -0.1686
  104OSM   H18F10630  -0.141   3.259   8.648 -1.1345  0.5266 -0.0064
  104OSM   H18G10631  -0.166   3.170   8.503 -1.1832  2.2845 -0.0768
  104OSM   H18H10632  -0.098   3.083   8.644 -1.5975 -1.2842  0.5978
  105OSM      N10633   3.346   6.325  11.015 -0.3342 -0.1733  0.5229
  105OSM    C1510634   3.250   6.438  11.027  0.0817 -0.2326 -0.3362
  105OSM   H15A10635   3.166   6.425  10.961  0.2331 -2.8450 -0.1261
  105OSM   H15B10636   3.298   6.534  11.012  0.8109 -0.6058 -0.4011
  105OSM   H15C10637   3.212   6.435  11.128 -1.6684  1.8732 -0.8524
  105OSM    C1410638   3.285   6.184  11.035 -0.5250  0.1710 -0.1750
  105OSM   H14A10639   3.219   6.150  10.957 -0.0330  1.2256 -1.0872
  105OSM   H14B10640   3.226   6.176  11.125 -1.9239  1.0748 -0.9787
  105OSM   H14C10641   3.368   6.119  11.057 -1.4712 -1.2302 -0.5900
  105OSM    C1310642   3.390   6.326  10.871  0.0596 -0.7268 -0.0158
  105OSM   H13A10643   3.461   6.244  10.867  0.2046 -0.5942 -0.1473
  105OSM   H13B10644   3.445   6.417  10.852 -1.3504  0.4620  1.3196
  105OSM   H13C10645   3.306   6.304  10.806  0.6354 -0.4253 -0.8756
  105OSM    C1210646   3.458   6.352  11.108 -0.3983  0.2631  0.2544
  105OSM   H12A10647   3.428   6.350  11.212 -1.2044  1.4428  0.0687
  105OSM   H12B10648   3.474   6.457  11.093 -2.3332  0.8722  1.8658
  105OSM    C1110649   3.586   6.271  11.088 -0.2700  0.5185  0.4518
  105OSM   H11A10650   3.554   6.166  11.106 -0.7303  0.0794 -2.5220
  105OSM   H11B10651   3.652   6.296  11.174  0.2224  0.8007 -0.0116
  105OSM      P10652   3.762   6.174  10.930 -0.3634  0.1080 -0.2308
  105OSM    O1310653   3.893   6.209  10.995  0.0772  0.0478  0.8183
  105OSM    O1410654   3.706   6.044  10.954  0.2462  0.9009  0.9207
  105OSM    O1110655   3.781   6.195  10.778 -0.1799  0.0090  0.3710
  105OSM    O1210656   3.658   6.286  10.967 -0.1020 -0.1471  0.3635
  105OSM    C1S10657   3.671   6.219  10.685 -0.5423  0.1861 -1.5657
  105OSM    H1S10658   3.624   6.318  10.706 -2.6784 -1.0537 -0.1392
  105OSM    H1T10659   3.592   6.142  10.697  0.0778 -0.5036 -1.8672
  105OSM     NF10660   3.615   6.271  10.450 -0.0359 -0.4132 -0.4860
  105OSM    HNF10661   3.566   6.198  10.404  0.3830  0.2354 -2.0218
  105OSM    C2S10662   3.724   6.229  10.534  0.4646  0.4875 -0.2320
  105OSM    H2S10663   3.799   6.312  10.532 -0.4646  1.3525  0.0230
  105OSM    C3S10664   3.794   6.097  10.493  0.0054 -0.1029  0.6975
  105OSM    H3S10665   3.721   6.014  10.476  0.5763 -0.9277  2.1019
  105OSM     O310666   3.889   6.048  10.588  0.4152 -0.3134 -0.1323
  105OSM    HO310667   3.875   6.112  10.658 -1.9945 -0.2678 -0.5837
  105OSM    C4S10668   3.849   6.116  10.358  0.2318 -0.0262  0.3982
  105OSM    H4S10669   3.793   6.062  10.280 -1.1907  2.5786 -0.5033
  105OSM    C5S10670   3.963   6.176  10.321  0.3448  0.5149 -0.0784
  105OSM    H5S10671   4.037   6.210  10.395  0.9295  0.3416 -0.5688
  105OSM    C6S10672   4.021   6.194  10.181  0.2058 -0.0627 -0.7835
  105OSM    H6S10673   4.102   6.119  10.166 -0.8807 -1.1322 -1.5309
  105OSM    H6T10674   4.077   6.290  10.184  0.5485 -0.2613 -0.7330
  105OSM    C7S10675   3.928   6.201  10.057 -0.1895 -0.5402 -0.8820
  105OSM    H7S10676   3.872   6.296  10.045 -0.8885 -1.1915 -3.3140
  105OSM    H7T10677   3.855   6.119  10.068 -0.1553 -0.5150 -0.4681
  105OSM    C8S10678   4.002   6.171   9.922  0.2331 -0.5313  0.5647
  105OSM    H8S10679   4.041   6.067   9.922 -0.7165 -0.9313 -1.0395
  105OSM    H8T10680   4.083   6.243   9.896  0.2874 -1.3738 -1.8270
  105OSM    C9S10681   3.910   6.178   9.801  0.2663  0.8632 -0.5312
  105OSM    H9S10682   3.855   6.273   9.816 -2.5123 -0.6644 -0.4774
  105OSM    H9T10683   3.834   6.097   9.800  0.9457  0.1358  1.7084
  105OSM   C10S10684   3.991   6.175   9.670 -0.7414  0.1374  0.0222
  105OSM   H10S10685   4.040   6.076   9.661 -1.1649 -0.2442  1.5880
  105OSM   H10T10686   4.068   6.255   9.681 -0.8296  0.3749 -0.9776
  105OSM   C11S10687   3.899   6.208   9.552 -0.6995 -0.4131  0.4453
  105OSM   H11S10688   3.857   6.310   9.564  0.3018 -0.1934  2.4241
  105OSM   H11T10689   3.807   6.144   9.548 -3.3698  3.1673 -0.6169
  105OSM   C12S10690   3.975   6.200   9.421  0.5507  0.2640  0.6956
  105OSM   H12S10691   4.026   6.102   9.413 -1.2578 -0.7436  0.9067
  105OSM   H12T10692   4.043   6.287   9.413 -1.7881  2.0938 -1.1185
  105OSM   C13S10693   3.890   6.204   9.293  0.2074  0.9898 -0.7546
  105OSM   H13S10694   3.807   6.277   9.301 -1.1316 -0.5991  0.4258
  105OSM   H13T10695   3.838   6.106   9.295  1.5080  0.2399  2.4113
  105OSM   C14S10696   3.975   6.221   9.164 -0.2441 -0.1326 -0.0786
  105OSM   H14S10697   4.037   6.130   9.152 -0.9775 -0.6709  0.1270
  105OSM   H14T10698   4.041   6.310   9.174  0.8711 -0.6759 -2.1107
  105OSM   C15S10699   3.883   6.245   9.042 -0.0474 -0.0375 -0.3474
  105OSM   H15S10700   3.823   6.338   9.052 -2.8742 -1.8003  0.3234
  105OSM   H15T10701   3.814   6.158   9.036 -1.9723  1.1362  2.4755
  105OSM   C16S10702   3.969   6.268   8.912  0.8188 -0.2795 -0.2716
  105OSM   H16S10703   4.028   6.175   8.895  2.6459  0.8315 -0.2624
  105OSM   H16T10704   4.038   6.354   8.925  2.5170 -1.8265  1.3623
  105OSM   C17S10705   3.891   6.277   8.777 -0.5118  0.2355  0.0021
  105OSM   H17S10706   3.835   6.372   8.775 -2.1139 -0.6100  1.9070
  105OSM   H17T10707   3.811   6.203   8.757 -0.4207 -0.6779  2.6598
  105OSM   C18S10708   3.996   6.274   8.666  0.6895  0.4755  0.3659
  105OSM   H18S10709   3.949   6.266   8.566  0.5222  1.8805  0.3037
  105OSM   H18T10710   4.059   6.185   8.688 -0.5002 -1.1979 -2.5323
  105OSM   H18U10711   4.061   6.363   8.683  1.8092 -0.1301 -0.5875
  105OSM    C1F10712   3.560   6.389  10.446 -0.5293  0.3127 -0.2461
  105OSM     OF10713   3.617   6.482  10.496  0.2435  0.2096 -0.9894
  105OSM    C2F10714   3.424   6.404  10.391  0.1467 -0.0112  0.2221
  105OSM    H2F10715   3.362   6.427  10.481  1.1986  2.4619  0.3876
  105OSM    H2G10716   3.397   6.300  10.363 -0.3951  0.4723 -1.0982
  105OSM    C3F10717   3.389   6.502  10.274  0.0003 -0.5280  0.4711
  105OSM    H3F10718   3.409   6.606  10.306 -0.4481 -0.5345  0.7831
  105OSM    H3G10719   3.279   6.500  10.258 -0.2650 -0.0972  2.1014
  105OSM    C4F10720   3.465   6.474  10.134 -0.2687  0.1431  0.4111
  105OSM    H4F10721   3.561   6.529  10.130 -1.5057  2.3890 -3.0101
  105OSM    H4G10722   3.399   6.532  10.066 -0.4448  0.2511  0.6726
  105OSM    C5F10723   3.469   6.325  10.102 -0.6383 -0.5647  0.5980
  105OSM    H5F10724   3.398   6.264  10.162 -1.8896  0.0947 -0.1733
  105OSM    H5G10725   3.566   6.289  10.142 -1.2847 -1.9203  0.9759
  105OSM    C6F10726   3.454   6.298   9.955 -0.5579  0.0820  0.2366
  105OSM    H6F10727   3.360   6.345   9.920 -1.4091 -1.3230  0.5729
  105OSM    H6G10728   3.457   6.187   9.950  1.3095  0.1403 -1.2151
  105OSM    C7F10729   3.565   6.362   9.870  0.1161  1.2400  0.2844
  105OSM    H7F10730   3.655   6.304   9.901 -0.8500  1.0911  3.0966
  105OSM    H7G10731   3.579   6.468   9.901 -0.5590  1.8410 -1.3893
  105OSM    C8F10732   3.545   6.352   9.716  0.4551 -0.8365 -0.0388
  105OSM    H8F10733   3.645   6.369   9.671 -0.7209  0.2470 -2.4278
  105OSM    H8G10734   3.476   6.432   9.683  1.3682 -0.0453 -0.0748
  105OSM    C9F10735   3.505   6.224   9.654  0.2427 -0.4915 -0.2879
  105OSM    H9F10736   3.485   6.146   9.729  3.4861 -0.7746  0.3967
  105OSM   C10F10737   3.485   6.184   9.523  0.7148 -0.4758 -0.0936
  105OSM   H10F10738   3.461   6.079   9.498 -0.0713  0.1126 -2.0189
  105OSM   C11F10739   3.508   6.269   9.406 -0.5409 -0.1919 -0.1143
  105OSM   H11F10740   3.580   6.352   9.424 -1.5163  0.9168 -1.1430
  105OSM   H11G10741   3.407   6.314   9.390 -1.3828 -1.2916  1.7139
  105OSM   C12F10742   3.550   6.199   9.279  0.2944  0.2546  0.2230
  105OSM   H12F10743   3.623   6.119   9.306 -1.2028 -1.4604 -0.6223
  105OSM   H12G10744   3.603   6.273   9.215  1.6273  1.0819  2.1591
  105OSM   C13F10745   3.435   6.129   9.198 -0.1164  0.1045 -0.1174
  105OSM   H13F10746   3.350   6.201   9.197 -0.8265 -0.6932  0.8535
  105OSM   H13G10747   3.402   6.044   9.261  0.6004 -0.6445 -0.7232
  105OSM   C14F10748   3.479   6.088   9.053 -0.0903 -0.4397 -0.1822
  105OSM   H14F10749   3.578   6.037   9.055 -0.2592 -0.8275 -1.1291
  105OSM   H14G10750   3.495   6.186   9.002  1.2423  0.0972  1.1800
  105OSM   C15F10751   3.361   6.018   8.984 -0.3724  0.9855  0.2648
  105OSM   H15F10752   3.287   6.101   8.983 -1.0215  0.4229  0.6146
  105OSM   H15G10753   3.341   5.940   9.060  0.6100 -0.7054 -1.1410
  105OSM   C16F10754   3.380   5.947   8.849  0.3898 -0.3389  0.6351
  105OSM   H16F10755   3.433   5.852   8.870 -1.8836 -1.7105  0.5069
  105OSM   H16G10756   3.440   6.023   8.795 -0.3269  1.4657  2.2410
  105OSM   C17F10757   3.248   5.915   8.776  0.3517  0.0382  0.2544
  105OSM   H17F10758   3.197   5.835   8.834  0.4422 -0.1383  0.0911
  105OSM   H17G10759   3.278   5.870   8.679  1.3616  2.0205 -0.3944
  105OSM   C18F10760   3.150   6.035   8.747 -0.9119  0.4656 -0.2220
  105OSM   H18F10761   3.196   6.088   8.661 -1.1176 -0.3286 -0.8293
  105OSM   H18G10762   3.130   6.097   8.837 -0.7553  0.4402 -0.1679
  105OSM   H18H10763   3.051   5.999   8.714 -0.6057 -0.1126 -0.5074
  106OSM      N10764   2.885   5.859  10.811  0.6096 -0.0208 -0.4491
  106OSM    C1510765   2.969   5.924  10.920  0.2895  0.0829 -0.2686
  106OSM   H15A10766   2.908   5.916  11.008 -0.6402 -0.2744 -0.9320
  106OSM   H15B10767   2.975   6.029  10.896  1.5269  0.4590  1.5151
  106OSM   H15C10768   3.068   5.882  10.930 -0.5275 -2.0973 -0.9315
  106OSM    C1410769   2.894   5.715  10.843 -0.2058 -0.3058 -0.1323
  106OSM   H14A10770   2.838   5.688  10.931  0.4870  0.6771  0.6311
  106OSM   H14B10771   2.999   5.695  10.854 -0.1868 -1.7067 -2.2744
  106OSM   H14C10772   2.854   5.652  10.765  0.3211 -2.3145  1.1411
  106OSM    C1310773   2.750   5.919  10.840 -0.1254  0.1969  0.1999
  106OSM   H13A10774   2.733   5.931  10.946  0.9374 -2.7175  0.7891
  106OSM   H13B10775   2.672   5.857  10.798 -0.2425  1.0319 -0.8750
  106OSM   H13C10776   2.741   6.019  10.799  0.2755 -0.1909 -0.8907
  106OSM    C1210777   2.928   5.894  10.681 -0.2553 -0.6872 -0.2266
  106OSM   H12A10778   2.943   6.001  10.676 -0.1158 -0.7156 -0.4933
  106OSM   H12B10779   2.853   5.876  10.605  0.0186 -0.9364 -0.4437
  106OSM    C1110780   3.060   5.830  10.632 -0.2831  0.2823  0.3260
  106OSM   H11A10781   3.080   5.874  10.532 -0.0615  1.2360  0.7771
  106OSM   H11B10782   3.053   5.721  10.613  1.5767  0.3258 -0.9070
  106OSM      P10783   3.287   5.944  10.720 -0.2522  0.1062  0.5656
  106OSM    O1310784   3.228   6.080  10.738  0.3576  0.1268 -0.5880
  106OSM    O1410785   3.385   5.901  10.823 -0.1755 -0.6334  0.6717
  106OSM    O1110786   3.349   5.934  10.579 -0.3605 -0.5653  0.3235
  106OSM    O1210787   3.166   5.844  10.725  0.1797  0.0004  0.0505
  106OSM    C1S10788   3.385   5.807  10.524  0.7565  0.1321  0.1651
  106OSM    H1S10789   3.316   5.727  10.558  1.3900 -0.3404  0.3725
  106OSM    H1T10790   3.488   5.770  10.547 -0.2507 -4.1638 -1.3444
  106OSM     NF10791   3.414   5.673  10.320 -0.3492  0.5441  0.1765
  106OSM    HNF10792   3.512   5.666  10.304  0.0627 -0.3558  2.6785
  106OSM    C2S10793   3.382   5.807  10.363  0.2575  0.3104 -0.4703
  106OSM    H2S10794   3.276   5.829  10.340 -0.2885 -2.2095 -0.7532
  106OSM    C3S10795   3.482   5.917  10.308  0.5022  0.0024 -0.0630
  106OSM    H3S10796   3.584   5.877  10.326 -0.3526 -2.1459  0.3497
  106OSM     O310797   3.473   6.048  10.374  0.1502  0.0953  0.5442
  106OSM    HO310798   3.439   6.023  10.460  1.9553 -2.0168  0.7178
  106OSM    C4S10799   3.461   5.941  10.164  0.0813  0.1678 -0.0248
  106OSM    H4S10800   3.365   5.986  10.136  1.1117  1.1479 -2.2232
  106OSM    C5S10801   3.560   5.925  10.073 -0.1149 -0.8485  0.1670
  106OSM    H5S10802   3.663   5.898  10.102 -0.4062 -3.8540 -1.2132
  106OSM    C6S10803   3.558   5.953   9.923  0.8948  0.4763 -0.3739
  106OSM    H6S10804   3.618   6.046   9.908  0.9238  0.9338  2.0496
  106OSM    H6T10805   3.457   5.973   9.881  0.2552  0.6352  1.1597
  106OSM    C7S10806   3.633   5.841   9.853  0.0760 -0.1095  0.2488
  106OSM    H7S10807   3.585   5.745   9.879 -0.4336  0.1539  0.2841
  106OSM    H7T10808   3.742   5.834   9.873  0.5300  0.2047 -1.8312
  106OSM    C8S10809   3.641   5.874   9.699  0.3798 -0.1185  0.4943
  106OSM    H8S10810   3.682   5.974   9.676 -0.0248 -0.6610 -3.1296
  106OSM    H8T10811   3.540   5.881   9.653  1.3168  1.8334 -1.4444
  106OSM    C9S10812   3.723   5.772   9.620 -0.2164 -0.5159  0.4939
  106OSM    H9S10813   3.679   5.671   9.639  0.4786 -0.4798  2.6204
  106OSM    H9T10814   3.829   5.771   9.653  0.0185 -0.6975 -0.2591
  106OSM   C10S10815   3.730   5.805   9.473 -0.4276  0.1492  0.0417
  106OSM   H10S10816   3.811   5.880   9.461  0.0386  0.2301  2.9614
  106OSM   H10T10817   3.633   5.841   9.432  0.3146  1.9467 -0.2354
  106OSM   C11S10818   3.779   5.687   9.397 -0.4356  0.1537  0.0453
  106OSM   H11S10819   3.705   5.605   9.385  0.4346 -0.6218 -0.1031
  106OSM   H11T10820   3.869   5.650   9.451 -0.9698  0.4946  1.1990
  106OSM   C12S10821   3.836   5.719   9.250 -0.0778  0.4738  0.3297
  106OSM   H12S10822   3.879   5.619   9.229 -2.9541 -0.7637 -0.1097
  106OSM   H12T10823   3.918   5.794   9.248 -0.3986  0.8414 -2.3222
  106OSM   C13S10824   3.728   5.769   9.159 -0.1763 -0.2145 -0.1458
  106OSM   H13S10825   3.656   5.834   9.214 -1.8390 -0.4249 -1.9673
  106OSM   H13T10826   3.653   5.692   9.131 -1.3592  1.1933 -0.9624
  106OSM   C14S10827   3.778   5.835   9.033 -0.3027 -0.8481 -0.2989
  106OSM   H14S10828   3.857   5.912   9.050  0.6544 -1.4282 -1.8116
  106OSM   H14T10829   3.686   5.872   8.982  0.6065  1.8310 -0.1486
  106OSM   C15S10830   3.841   5.733   8.938  0.1322 -0.7307 -0.7342
  106OSM   H15S10831   3.812   5.630   8.969 -0.2673  0.7664  4.9890
  106OSM   H15T10832   3.949   5.729   8.965 -0.2980 -2.6383  0.9468
  106OSM   C16S10833   3.843   5.760   8.785  0.1093  0.5182  0.2824
  106OSM   H16S10834   3.741   5.733   8.751 -0.1645  1.3262  0.4295
  106OSM   H16T10835   3.915   5.687   8.744  0.8191  2.0328 -1.3010
  106OSM   C17S10836   3.870   5.898   8.728 -0.6849  0.2616 -0.6836
  106OSM   H17S10837   3.952   5.955   8.777 -0.6301 -0.0017 -0.4651
  106OSM   H17T10838   3.777   5.956   8.738 -0.4014  0.7819 -1.0315
  106OSM   C18S10839   3.907   5.886   8.582 -0.3377  0.2410  0.1795
  106OSM   H18S10840   3.989   5.810   8.578  0.1174  0.7142  0.4227
  106OSM   H18T10841   3.940   5.985   8.544 -0.0744 -0.7025 -2.2997
  106OSM   H18U10842   3.825   5.849   8.517  0.9933 -2.0989 -0.3236
  106OSM    C1F10843   3.331   5.575  10.335  0.3098 -0.3014 -0.2917
  106OSM     OF10844   3.209   5.598  10.350 -0.3828 -0.1106 -0.5060
  106OSM    C2F10845   3.398   5.438  10.331  0.2062 -0.1745  0.4432
  106OSM    H2F10846   3.381   5.389  10.429 -3.7604 -0.4163 -0.1969
  106OSM    H2G10847   3.506   5.438  10.307  0.2496  1.2963  0.5437
  106OSM    C3F10848   3.314   5.344  10.236 -0.0301  0.2979  0.4852
  106OSM    H3F10849   3.216   5.316  10.279 -0.2448  1.6979  0.9687
  106OSM    H3G10850   3.371   5.249  10.225  1.8590  1.3629  0.5789
  106OSM    C4F10851   3.282   5.401  10.099 -0.2698 -0.7725 -0.2668
  106OSM    H4F10852   3.377   5.425  10.048 -0.0515  0.9954  0.8986
  106OSM    H4G10853   3.232   5.500  10.101  1.5730  0.1839  0.7218
  106OSM    C5F10854   3.203   5.306  10.005 -0.3606 -0.4766  0.1679
  106OSM    H5F10855   3.099   5.300  10.044 -0.2926  0.1016  0.4497
  106OSM    H5G10856   3.239   5.202  10.012 -1.6931 -0.8747  1.9194
  106OSM    C6F10857   3.195   5.347   9.861 -0.1377 -0.2669  0.7173
  106OSM    H6F10858   3.286   5.311   9.808  0.5850  0.6097  1.3367
  106OSM    H6G10859   3.189   5.455   9.838 -0.8062 -0.8598 -2.3159
  106OSM    C7F10860   3.080   5.267   9.798 -0.3460  0.2174  0.3146
  106OSM    H7F10861   2.984   5.309   9.836  0.4543  2.1086  0.3778
  106OSM    H7G10862   3.090   5.161   9.831 -0.0371 -0.2053 -1.0793
  106OSM    C8F10863   3.086   5.281   9.644 -0.3986 -0.9382  0.1850
  106OSM    H8F10864   3.026   5.196   9.605 -2.5508  0.3409  0.5411
  106OSM    H8G10865   3.188   5.261   9.604 -0.1985 -2.4218  1.3348
  106OSM    C9F10866   3.031   5.412   9.604 -0.2311 -0.0268 -0.5284
  106OSM    H9F10867   3.098   5.499   9.605 -0.6155  0.3210  1.8029
  106OSM   C10F10868   2.917   5.432   9.543  0.0968 -0.1741  0.2819
  106OSM   H10F10869   2.877   5.533   9.524 -1.8268 -0.7062  1.2276
  106OSM   C11F10870   2.813   5.335   9.494 -0.6350  0.4456 -0.7474
  106OSM   H11F10871   2.720   5.350   9.554  1.4043 -0.5184  2.9823
  106OSM   H11G10872   2.838   5.230   9.520 -1.1381  0.4975  0.0000
  106OSM   C12F10873   2.785   5.346   9.344 -0.1428  1.0788 -0.4197
  106OSM   H12F10874   2.740   5.446   9.324  0.1602  1.6947  1.6729
  106OSM   H12G10875   2.709   5.269   9.321  0.2255  0.6041 -0.0606
  106OSM   C13F10876   2.898   5.300   9.259  0.6144  0.1961  0.4752
  106OSM   H13F10877   2.932   5.201   9.295  1.0376  0.1606 -0.0171
  106OSM   H13G10878   2.986   5.367   9.258  0.7609  0.0004  0.3726
  106OSM   C14F10879   2.865   5.276   9.113  0.3469  0.0612 -0.5246
  106OSM   H14F10880   2.825   5.373   9.076  0.2408  1.0242  1.8928
  106OSM   H14G10881   2.793   5.192   9.104  0.6603 -0.1702 -0.8706
  106OSM   C15F10882   2.980   5.249   9.021 -0.6516 -0.3816  0.5357
  106OSM   H15F10883   3.028   5.152   9.047 -0.7442 -0.6266 -0.1937
  106OSM   H15G10884   3.052   5.333   9.028  0.6313 -0.8799 -3.9301
  106OSM   C16F10885   2.935   5.243   8.873 -0.1603 -0.2489  0.0623
  106OSM   H16F10886   2.881   5.336   8.845 -0.3700 -0.4029 -0.0561
  106OSM   H16G10887   2.845   5.178   8.883 -0.1998 -0.2662 -0.4001
  106OSM   C17F10888   3.037   5.222   8.758  0.5231 -0.1638 -0.1078
  106OSM   H17F10889   3.097   5.130   8.774  0.9657  0.0578 -0.4448
  106OSM   H17G10890   3.100   5.314   8.759 -1.3539  1.2155 -0.8546
  106OSM   C18F10891   2.972   5.220   8.621  0.2228  0.0988 -0.1794
  106OSM   H18F10892   2.929   5.317   8.588  2.0796  0.7074 -0.9146
  106OSM   H18G10893   2.896   5.139   8.623 -0.4110  0.6908  0.5903
  106OSM   H18H10894   3.046   5.193   8.543 -0.5556 -0.1855 -0.8252
  107OSM      N10895   5.028   2.355  11.166 -0.4285  0.4737 -0.4458
  107OSM    C1510896   4.980   2.463  11.254 -0.2718  0.7799 -0.2658
  107OSM   H15A10897   4.873   2.470  11.260 -0.3169  0.6842 -0.8341
  107OSM   H15B10898   5.012   2.558  11.214  1.8329  0.1353 -0.2363
  107OSM   H15C10899   5.028   2.451  11.350 -1.7202 -0.3590  0.3586
  107OSM    C1410900   5.180   2.364  11.159 -0.1551 -0.0297  0.0287
  107OSM   H14A10901   5.213   2.317  11.068  0.7654  0.5887  0.0319
  107OSM   H14B10902   5.227   2.314  11.242 -1.6536  1.7303  2.0383
  107OSM   H14C10903   5.209   2.468  11.153  0.0785 -0.0976 -0.0154
  107OSM    C1310904   4.985   2.225  11.234  0.3421  0.2410  0.8451
  107OSM   H13A10905   5.035   2.211  11.329  0.1943 -2.3689  0.6111
  107OSM   H13B10906   5.012   2.143  11.169  0.1069 -0.2312  1.3366
  107OSM   H13C10907   4.879   2.226  11.251  0.2293  0.7982  0.1711
  107OSM    C1210908   4.968   2.372  11.027 -0.2996 -0.0580  0.1112
  107OSM   H12A10909   4.992   2.469  10.988 -2.8286  1.7378  2.5840
  107OSM   H12B10910   4.861   2.385  11.037 -0.1113  1.1781  0.6694
  107OSM    C1110911   4.995   2.251  10.926  0.3324 -0.4043 -0.1704
  107OSM   H11A10912   4.938   2.269  10.832  2.5558  1.4781 -1.2540
  107OSM   H11B10913   4.962   2.151  10.961 -0.4459 -0.2668 -0.4868
  107OSM      P10914   5.181   2.356  10.789  0.3560  0.0957  0.1053
  107OSM    O1310915   5.112   2.487  10.818 -0.0310  0.1156 -0.3861
  107OSM    O1410916   5.325   2.361  10.804 -0.0019  0.1978  0.2649
  107OSM    O1110917   5.145   2.307  10.647 -0.1416  0.1050  0.2976
  107OSM    O1210918   5.135   2.250  10.895  0.6292  0.2444 -0.2342
  107OSM    C1S10919   5.136   2.170  10.623  0.8447  0.3193 -0.6497
  107OSM    H1S10920   5.044   2.123  10.665  0.1471  1.9337 -0.2720
  107OSM    H1T10921   5.228   2.122  10.661  1.1422  1.8634  0.6977
  107OSM     NF10922   5.131   2.001  10.441  0.4119  0.1017  0.2528
  107OSM    HNF10923   5.216   1.966  10.402  0.0594 -0.7567  0.2517
  107OSM    C2S10924   5.135   2.143  10.470 -0.2022 -0.5481 -0.0773
  107OSM    H2S10925   5.046   2.189  10.423  0.5398  1.3426  0.2644
  107OSM    C3S10926   5.250   2.218  10.396  0.1580  0.9284  0.0698
  107OSM    H3S10927   5.351   2.189  10.432  1.2836  4.7111  0.3607
  107OSM     O310928   5.258   2.355  10.408 -0.3122 -0.3797 -0.3136
  107OSM    HO310929   5.195   2.375  10.478  2.3763  0.3802  2.1000
  107OSM    C4S10930   5.260   2.178  10.247  0.0105  0.3520 -0.7393
  107OSM    H4S10931   5.332   2.096  10.238 -1.3415 -1.0070  0.1814
  107OSM    C5S10932   5.189   2.220  10.140  0.0314  0.5067  0.1167
  107OSM    H5S10933   5.113   2.297  10.162  1.2188  2.1789 -1.2936
  107OSM    C6S10934   5.210   2.168  10.000  0.0721 -0.6493  0.1914
  107OSM    H6S10935   5.272   2.241   9.942 -0.2176  0.6806  1.4901
  107OSM    H6T10936   5.110   2.149   9.956 -0.4539 -1.7346  1.7761
  107OSM    C7S10937   5.270   2.030  10.004  0.4495 -0.2635 -0.0624
  107OSM    H7S10938   5.210   1.962  10.067  2.0366 -0.7952  0.9372
  107OSM    H7T10939   5.376   2.027  10.037  0.1087  0.3971  1.1846
  107OSM    C8S10940   5.264   1.973   9.859 -0.1158 -0.4849 -0.5405
  107OSM    H8S10941   5.269   2.057   9.787 -1.0172 -0.0474 -0.1111
  107OSM    H8T10942   5.167   1.918   9.853  0.9535 -2.4837 -0.4924
  107OSM    C9S10943   5.370   1.866   9.838  0.2275  0.0113  0.0845
  107OSM    H9S10944   5.370   1.792   9.921  1.7609 -0.3357 -0.1823
  107OSM    H9T10945   5.470   1.912   9.857  1.4471 -2.0522 -0.9893
  107OSM   C10S10946   5.366   1.788   9.702  0.7438  0.2031  0.4031
  107OSM   H10S10947   5.360   1.851   9.611  0.0859 -0.2583  0.1191
  107OSM   H10T10948   5.272   1.728   9.711  2.2616 -2.2402  0.8377
  107OSM   C11S10949   5.483   1.691   9.696 -0.4688  0.6362 -1.1324
  107OSM   H11S10950   5.493   1.639   9.794  1.6122  2.1036 -0.4835
  107OSM   H11T10951   5.580   1.745   9.683  0.5134 -0.9014 -0.5362
  107OSM   C12S10952   5.471   1.589   9.581  0.5628  0.0934  0.2962
  107OSM   H12S10953   5.383   1.533   9.618 -0.7808  2.4966  0.9480
  107OSM   H12T10954   5.550   1.510   9.586  0.0877 -0.5518 -1.5073
  107OSM   C13S10955   5.467   1.637   9.434  0.1518 -0.5621 -0.8084
  107OSM   H13S10956   5.560   1.694   9.414 -0.8758  0.9160 -1.5732
  107OSM   H13T10957   5.372   1.690   9.411 -0.3823 -1.7734 -1.5332
  107OSM   C14S10958   5.458   1.516   9.349 -0.3850  0.5442  0.0809
  107OSM   H14S10959   5.359   1.471   9.372  0.7783 -1.2743  1.9002
  107OSM   H14T10960   5.538   1.443   9.375 -0.0631  0.9744  0.3063
  107OSM   C15S10961   5.464   1.536   9.195 -0.1389  0.1750  0.3519
  107OSM   H15S10962   5.449   1.644   9.178 -0.4531 -0.2292 -2.3879
  107OSM   H15T10963   5.378   1.493   9.140  0.2614  0.0986 -0.2232
  107OSM   C16S10964   5.589   1.496   9.120 -0.2248 -0.3785 -0.4056
  107OSM   H16S10965   5.566   1.516   9.013 -0.9687 -0.3471 -0.2464
  107OSM   H16T10966   5.597   1.386   9.135  0.0514 -0.1176  1.6084
  107OSM   C17S10967   5.708   1.573   9.177 -0.2534  0.1172  0.3590
  107OSM   H17S10968   5.726   1.528   9.277  0.1220 -1.9208 -0.5861
  107OSM   H17T10969   5.687   1.682   9.186  2.4746  0.7071  0.2949
  107OSM   C18S10970   5.849   1.547   9.114  0.3067  0.0859 -0.4769
  107OSM   H18S10971   5.877   1.440   9.115 -2.2610 -0.6998 -2.3302
  107OSM   H18T10972   5.928   1.599   9.174  1.9150  0.5897 -2.9024
  107OSM   H18U10973   5.851   1.589   9.011 -0.6218  0.7458 -0.2395
  107OSM    C1F10974   5.030   1.919  10.476 -0.6248  0.1223 -0.1905
  107OSM     OF10975   4.926   1.962  10.527  0.2468 -0.4503  0.4921
  107OSM    C2F10976   5.047   1.773  10.446  0.7208  0.9412 -0.4054
  107OSM    H2F10977   5.060   1.719  10.542 -0.0501  3.4096  1.1590
  107OSM    H2G10978   5.135   1.745  10.384  0.0142 -2.2034 -0.1986
  107OSM    C3F10979   4.920   1.704  10.378  0.1623  0.0474 -0.3748
  107OSM    H3F10980   4.830   1.718  10.441  0.3449 -1.9377  0.3901
  107OSM    H3G10981   4.935   1.595  10.365  1.2163  0.2409 -0.8706
  107OSM    C4F10982   4.875   1.754  10.235 -0.1706  0.1568 -0.6413
  107OSM    H4F10983   4.875   1.865  10.239  0.0408  0.2802 -2.7440
  107OSM    H4G10984   4.768   1.729  10.217 -0.8432  0.9922  1.8994
  107OSM    C5F10985   4.965   1.712  10.122  0.3044  0.2305  0.1107
  107OSM    H5F10986   4.977   1.602  10.138  2.5717  0.5117  0.7388
  107OSM    H5G10987   5.067   1.757  10.127  0.5585 -0.3653  0.3818
  107OSM    C6F10988   4.906   1.745   9.983 -0.0893  0.0133  0.3463
  107OSM    H6F10989   4.901   1.855   9.969  1.7651  0.1187  0.1796
  107OSM    H6G10990   4.800   1.714   9.985  0.1089 -0.6911  0.4123
  107OSM    C7F10991   4.995   1.682   9.875 -0.6017  0.1694 -0.1874
  107OSM    H7F10992   5.008   1.573   9.892  0.8887  0.3350 -0.1355
  107OSM    H7G10993   5.097   1.726   9.876 -0.2672 -0.5993  0.5764
  107OSM    C8F10994   4.934   1.710   9.737 -0.3897 -0.2637  0.2613
  107OSM    H8F10995   4.924   1.820   9.719  0.3150 -0.1769  0.3582
  107OSM    H8G10996   4.829   1.678   9.753  0.0000 -0.9377  1.5640
  107OSM    C9F10997   5.011   1.638   9.628  0.2261  0.7461  0.6277
  107OSM    H9F10998   5.070   1.552   9.663  1.1020  1.1700  0.2526
  107OSM   C10F10999   5.016   1.666   9.494  0.1952  0.9325  0.4135
  107OSM   H10F11000   5.057   1.587   9.430  1.4274  0.0021  2.2630
  107OSM   C11F11001   4.956   1.784   9.426 -0.3218  0.2988  0.2470
  107OSM   H11F11002   5.035   1.842   9.375  0.6732  0.7274  2.1785
  107OSM   H11G11003   4.912   1.854   9.500 -0.5834 -0.2924  0.6609
  107OSM   C12F11004   4.855   1.741   9.329  0.5745  0.2793  0.4424
  107OSM   H12F11005   4.806   1.835   9.296  0.8428  1.0564  2.1398
  107OSM   H12G11006   4.771   1.681   9.369  1.2950 -0.7265  0.4806
  107OSM   C13F11007   4.917   1.682   9.198  0.4783 -0.7147 -0.2840
  107OSM   H13F11008   4.973   1.589   9.221  1.6859 -0.3565 -1.6271
  107OSM   H13G11009   4.984   1.756   9.150  1.3574 -2.0328 -1.1422
  107OSM   C14F11010   4.811   1.663   9.092 -0.1778  0.1130  0.2111
  107OSM   H14F11011   4.783   1.765   9.056  1.3131  0.3993 -0.2069
  107OSM   H14G11012   4.715   1.625   9.133 -0.4943 -1.6671 -2.0053
  107OSM   C15F11013   4.848   1.575   8.977 -0.2200  0.7077 -0.0236
  107OSM   H15F11014   4.811   1.472   8.996  1.6650  0.1086  0.6339
  107OSM   H15G11015   4.959   1.576   8.970 -0.1169  0.4170  1.3067
  107OSM   C16F11016   4.792   1.625   8.843  0.0433  0.2161 -0.0227
  107OSM   H16F11017   4.809   1.734   8.838  0.0965  0.1758 -0.8748
  107OSM   H16G11018   4.681   1.622   8.846  0.0489 -1.3528 -0.1445
  107OSM   C17F11019   4.851   1.560   8.723  0.1335  0.4666  0.3433
  107OSM   H17F11020   4.837   1.449   8.720  0.2589  0.4679 -1.0481
  107OSM   H17G11021   4.959   1.583   8.712  0.2729  0.8941  2.2120
  107OSM   C18F11022   4.782   1.612   8.590  0.0986  0.2706  0.5039
  107OSM   H18F11023   4.677   1.579   8.606 -0.0179 -0.0265 -0.7759
  107OSM   H18G11024   4.818   1.564   8.496  0.4071 -1.7649  1.5915
  107OSM   H18H11025   4.787   1.722   8.574 -2.7872  0.2821 -0.9369
  108OSM      N11026   3.132   4.895  10.708 -0.0980  0.0992 -0.2160
  108OSM    C1511027   3.135   4.780  10.808 -0.2979 -0.3614 -0.1139
  108OSM   H15A11028   3.100   4.685  10.771  0.4251 -0.9598  0.6919
  108OSM   H15B11029   3.076   4.814  10.892  0.8537  2.6019 -0.3905
  108OSM   H15C11030   3.233   4.771  10.852 -0.6664  1.6680  1.2792
  108OSM    C1411031   3.224   4.841  10.603 -0.1135 -0.4124 -0.6062
  108OSM   H14A11032   3.319   4.825  10.651 -0.3424 -0.9796 -0.3395
  108OSM   H14B11033   3.227   4.918  10.527 -0.3335  1.3756  1.1245
  108OSM   H14C11034   3.190   4.756  10.546 -1.6973 -0.0787 -0.1995
  108OSM    C1311035   2.995   4.907  10.648 -0.2656  0.4319  0.5607
  108OSM   H13A11036   2.995   4.963  10.556  0.5624 -1.8372 -0.9099
  108OSM   H13B11037   2.926   4.949  10.720 -0.9243  0.4555 -0.0777
  108OSM   H13C11038   2.946   4.812  10.630 -0.3420  1.0793 -3.3008
  108OSM    C1211039   3.169   5.026  10.768  0.0140 -0.4105 -0.1019
  108OSM   H12A11040   3.102   5.037  10.852  0.4071 -2.0247  0.4566
  108OSM   H12B11041   3.166   5.109  10.699 -0.8303  0.1909  0.6286
  108OSM    C1111042   3.299   5.036  10.837 -0.1022 -0.1067 -0.5153
  108OSM   H11A11043   3.315   4.952  10.908  1.9061 -0.0792 -0.8628
  108OSM   H11B11044   3.310   5.124  10.903  1.3916  0.3920 -1.3774
  108OSM      P11045   3.451   5.139  10.658  0.1542  0.1468 -0.2433
  108OSM    O1311046   3.336   5.211  10.613  0.0742 -0.0621 -0.0164
  108OSM    O1411047   3.548   5.219  10.740  0.0990  0.3649 -0.4114
  108OSM    O1111048   3.532   5.076  10.537  1.0555  0.1635 -0.3057
  108OSM    O1211049   3.411   5.022  10.751  0.1811 -0.8348 -0.4313
  108OSM    C1S11050   3.628   4.989  10.558  0.3159  0.6218  0.4260
  108OSM    H1S11051   3.595   4.907  10.626  1.7562 -0.3356  0.0179
  108OSM    H1T11052   3.718   5.037  10.602  0.5767 -0.8009  1.5188
  108OSM     NF11053   3.737   4.785  10.455  0.0009 -0.1071 -0.2406
  108OSM    HNF11054   3.837   4.787  10.457  0.0791 -2.0864 -0.4848
  108OSM    C2S11055   3.670   4.911  10.426  0.2119 -0.0879  0.6136
  108OSM    H2S11056   3.580   4.880  10.369  0.5692  1.0270 -0.6211
  108OSM    C3S11057   3.745   5.002  10.321 -0.8149 -0.1242 -0.3010
  108OSM    H3S11058   3.839   5.049  10.358  0.3061 -1.6833 -1.0518
  108OSM     O311059   3.659   5.111  10.282  0.4940 -0.4742 -0.0777
  108OSM    HO311060   3.585   5.107  10.343 -1.1271  1.4318 -1.7589
  108OSM    C4S11061   3.767   4.928  10.199  0.1898 -0.3076  0.1792
  108OSM    H4S11062   3.672   4.907  10.147  1.2068  0.5933 -2.1810
  108OSM    C5S11063   3.884   4.885  10.159 -0.7927 -0.1295  0.0410
  108OSM    H5S11064   3.966   4.890  10.232 -1.3579  1.1572  0.6329
  108OSM    C6S11065   3.921   4.813  10.036 -0.2341  0.0920 -0.0948
  108OSM    H6S11066   3.988   4.727  10.058 -1.5291 -0.7456  0.6673
  108OSM    H6T11067   3.984   4.879   9.972  1.3173 -0.3296  0.9543
  108OSM    C7S11068   3.797   4.769   9.957 -0.1905 -0.0438  0.3660
  108OSM    H7S11069   3.734   4.856   9.928  1.1168  0.0008 -2.6230
  108OSM    H7T11070   3.744   4.695  10.020 -0.1049 -1.6135 -1.3461
  108OSM    C8S11071   3.832   4.717   9.819 -0.1228 -0.7208  0.1834
  108OSM    H8S11072   3.885   4.620   9.823 -1.3639 -1.3664  2.2457
  108OSM    H8T11073   3.902   4.784   9.764 -0.3904 -0.2080  0.4563
  108OSM    C9S11074   3.710   4.722   9.726  0.2639  0.9198 -0.3012
  108OSM    H9S11075   3.657   4.818   9.739  0.5763  1.1774 -0.8996
  108OSM    H9T11076   3.643   4.641   9.764  1.2256  0.3686  0.2477
  108OSM   C10S11077   3.738   4.694   9.580 -0.0166 -0.4864  0.2138
  108OSM   H10S11078   3.819   4.618   9.583  0.5078  0.0784  0.5181
  108OSM   H10T11079   3.769   4.790   9.532  2.0540 -1.8046 -1.2472
  108OSM   C11S11080   3.613   4.641   9.507  0.5698  0.0998 -0.5402
  108OSM   H11S11081   3.541   4.722   9.483  2.1811  2.0344  0.7980
  108OSM   H11T11082   3.556   4.561   9.559 -2.4659  1.9967 -0.6930
  108OSM   C12S11083   3.645   4.590   9.371  0.2600 -0.8573  0.1144
  108OSM   H12S11084   3.561   4.540   9.318  2.4352 -2.6374 -1.8858
  108OSM   H12T11085   3.728   4.516   9.367  1.8089  0.7535  0.8848
  108OSM   C13S11086   3.690   4.715   9.286 -0.3148  0.5639 -0.8070
  108OSM   H13S11087   3.796   4.732   9.314 -0.1970  1.2314 -1.6186
  108OSM   H13T11088   3.640   4.809   9.320 -0.2501  0.2653  0.1336
  108OSM   C14S11089   3.671   4.693   9.134 -0.0157  0.0570 -0.6202
  108OSM   H14S11090   3.567   4.662   9.110  0.4297 -0.2885 -2.2225
  108OSM   H14T11091   3.735   4.606   9.106 -0.0797 -0.7720  1.6168
  108OSM   C15S11092   3.714   4.815   9.054 -0.5343  0.2113  0.6174
  108OSM   H15S11093   3.823   4.818   9.072 -0.2039  0.3966 -1.2493
  108OSM   H15T11094   3.663   4.902   9.100  0.5601  0.8972  0.5688
  108OSM   C16S11095   3.702   4.819   8.903 -0.2355  0.6264  0.2689
  108OSM   H16S11096   3.597   4.825   8.867 -0.7983 -1.4835  1.3944
  108OSM   H16T11097   3.738   4.725   8.856  0.1662  0.4101  1.0054
  108OSM   C17S11098   3.773   4.941   8.843 -0.0032 -0.3540 -0.0982
  108OSM   H17S11099   3.882   4.945   8.864 -0.3593  2.3739  1.6909
  108OSM   H17T11100   3.726   5.026   8.897  2.2422  2.0507 -1.6752
  108OSM   C18S11101   3.744   4.957   8.696 -0.7303 -0.1355  0.2397
  108OSM   H18S11102   3.635   4.947   8.677 -0.7066  1.3195 -0.8154
  108OSM   H18T11103   3.808   4.887   8.638  1.3802  2.0116 -0.2205
  108OSM   H18U11104   3.785   5.054   8.661 -0.3919  0.1757  1.4485
  108OSM    C1F11105   3.672   4.684  10.504  0.5456 -0.2909  0.1236
  108OSM     OF11106   3.553   4.684  10.534  0.1618  0.3178 -0.0201
  108OSM    C2F11107   3.751   4.555  10.518  0.2135  0.7907  0.5010
  108OSM    H2F11108   3.703   4.525  10.613 -0.5696  0.7008  0.0860
  108OSM    H2G11109   3.856   4.586  10.535  0.3596 -0.2168  1.4644
  108OSM    C3F11110   3.723   4.454  10.408 -0.4031 -0.0145  1.0207
  108OSM    H3F11111   3.614   4.435  10.400 -0.1753 -1.0777  0.1879
  108OSM    H3G11112   3.776   4.360  10.434  1.5784  1.0611  1.0932
  108OSM    C4F11113   3.776   4.499  10.272 -0.2883 -0.0037 -0.5216
  108OSM    H4F11114   3.885   4.519  10.281 -0.3765  0.3768 -0.2463
  108OSM    H4G11115   3.731   4.596  10.244 -1.5614 -0.0441  1.2160
  108OSM    C5F11116   3.749   4.384  10.176  0.2453 -0.1586  0.1581
  108OSM    H5F11117   3.651   4.335  10.194 -1.4704  2.7060 -0.6895
  108OSM    H5G11118   3.820   4.307  10.212  2.3976  2.1633  1.2040
  108OSM    C6F11119   3.768   4.416  10.029  0.0663 -0.1264  0.2529
  108OSM    H6F11120   3.861   4.477  10.028 -0.1752  0.2744  1.0821
  108OSM    H6G11121   3.685   4.477   9.986  0.4715  1.1617  1.2063
  108OSM    C7F11122   3.788   4.288   9.943  0.3511 -0.3860 -0.1540
  108OSM    H7F11123   3.706   4.216   9.960  0.4669 -0.7563 -1.0915
  108OSM    H7G11124   3.880   4.234   9.974 -0.4314 -1.1458  0.9168
  108OSM    C8F11125   3.809   4.320   9.794  0.4525 -0.5769 -0.1415
  108OSM    H8F11126   3.865   4.243   9.737  2.3722  0.9408 -0.3933
  108OSM    H8G11127   3.882   4.404   9.788 -0.1601 -0.0766 -0.8280
  108OSM    C9F11128   3.688   4.353   9.719  0.0828  0.6471  0.0956
  108OSM    H9F11129   3.639   4.450   9.737  0.0334  0.3651  1.6292
  108OSM   C10F11130   3.633   4.285   9.620 -0.4098 -0.0947 -0.1182
  108OSM   H10F11131   3.537   4.324   9.581 -0.5817 -2.0644 -1.8611
  108OSM   C11F11132   3.686   4.150   9.569  0.3296  0.3587 -0.2970
  108OSM   H11F11133   3.600   4.080   9.555 -0.1639  0.0326  3.3367
  108OSM   H11G11134   3.750   4.098   9.644  0.7667  1.7380  0.3063
  108OSM   C12F11135   3.758   4.159   9.428  0.7158  0.2652  0.8786
  108OSM   H12F11136   3.684   4.195   9.353  2.8173  2.9307 -0.0806
  108OSM   H12G11137   3.790   4.056   9.402 -0.8577  0.6110 -3.1633
  108OSM   C13F11138   3.883   4.244   9.407 -0.1910 -0.1023 -0.9625
  108OSM   H13F11139   3.966   4.207   9.470 -1.6964 -1.5702  0.2590
  108OSM   H13G11140   3.862   4.351   9.428 -1.3609  0.0187 -2.5393
  108OSM   C14F11141   3.924   4.239   9.253 -0.0528  0.1147  0.2050
  108OSM   H14F11142   3.930   4.133   9.217 -0.4792  0.9519 -2.5942
  108OSM   H14G11143   4.030   4.272   9.247  1.2404 -3.5638 -0.3341
  108OSM   C15F11144   3.837   4.309   9.149  0.2725 -0.4795  0.1317
  108OSM   H15F11145   3.789   4.405   9.179 -1.9592 -0.7520 -2.2567
  108OSM   H15G11146   3.747   4.247   9.134 -0.2275  0.2597  0.0416
  108OSM   C16F11147   3.916   4.327   9.020  0.0727 -0.1969  0.1325
  108OSM   H16F11148   3.968   4.233   8.993 -0.3648 -0.7883  1.2651
  108OSM   H16G11149   3.982   4.411   9.050 -1.5816  1.0067  0.5263
  108OSM   C17F11150   3.819   4.370   8.912  0.3286 -0.0120  0.4764
  108OSM   H17F11151   3.777   4.473   8.922 -1.8168 -0.8750  0.7654
  108OSM   H17G11152   3.735   4.298   8.911  0.4698 -0.2666  2.5208
  108OSM   C18F11153   3.890   4.378   8.774 -0.1403  0.1694  0.3240
  108OSM   H18F11154   3.830   4.445   8.708 -1.2137 -0.5437  0.5518
  108OSM   H18G11155   3.905   4.278   8.729 -1.7511 -0.2935  0.7853
  108OSM   H18H11156   3.991   4.426   8.771  0.2720 -0.7413 -1.3236
  109OSM      N11157   0.293   2.475  11.295 -0.0030 -0.7127  0.2987
  109OSM    C1511158   0.259   2.505  11.434  0.0491  0.8229 -0.2051
  109OSM   H15A11159   0.157   2.537  11.448 -0.8336 -2.1076  0.9148
  109OSM   H15B11160   0.309   2.589  11.480 -2.2332  0.7687  2.7270
  109OSM   H15C11161   0.277   2.419  11.497 -2.1697 -2.2951 -3.4258
  109OSM    C1411162   0.209   2.364  11.245 -0.5324 -0.1268 -0.4628
  109OSM   H14A11163   0.110   2.407  11.241 -0.6441 -0.2250  0.8920
  109OSM   H14B11164   0.208   2.279  11.311  0.9917  0.4711  0.3910
  109OSM   H14C11165   0.251   2.329  11.152  0.2536 -1.6631  0.4411
  109OSM    C1311166   0.268   2.595  11.207 -0.0710 -0.6381 -0.7246
  109OSM   H13A11167   0.291   2.573  11.104 -0.1293  1.5542 -1.2366
  109OSM   H13B11168   0.328   2.678  11.238  0.0723 -0.3361 -1.7675
  109OSM   H13C11169   0.165   2.627  11.208 -0.6132 -2.2025 -1.9457
  109OSM    C1211170   0.438   2.445  11.294 -0.3748 -0.6487  0.1574
  109OSM   H12A11171   0.461   2.375  11.373 -2.4962 -2.6822 -0.8749
  109OSM   H12B11172   0.495   2.535  11.304  0.0179 -0.8508 -0.2514
  109OSM    C1111173   0.492   2.366  11.176  0.3689  0.4052  0.6278
  109OSM   H11A11174   0.436   2.270  11.171  1.2832 -0.1034 -0.0969
  109OSM   H11B11175   0.597   2.342  11.199  1.1770  0.4658 -2.5071
  109OSM      P11176   0.597   2.533  11.008 -0.0868  0.1428  0.3883
  109OSM    O1311177   0.570   2.664  11.076 -0.4711  0.3213 -0.5099
  109OSM    O1411178   0.729   2.467  11.027 -0.2522 -0.2479 -0.2376
  109OSM    O1111179   0.581   2.552  10.844 -0.1510 -1.0065 -0.3184
  109OSM    O1211180   0.484   2.425  11.046  0.2506 -0.6586  0.3120
  109OSM    C1S11181   0.480   2.650  10.797 -0.6312  0.4458 -0.0545
  109OSM    H1S11182   0.517   2.748  10.833  0.2194  0.7614 -1.7053
  109OSM    H1T11183   0.376   2.635  10.834 -0.8924 -3.2215 -1.8130
  109OSM     NF11184   0.427   2.795  10.599  0.5330  0.1091 -0.0996
  109OSM    HNF11185   0.329   2.811  10.600  1.0275  4.2119 -0.2835
  109OSM    C2S11186   0.474   2.665  10.638 -0.2202 -0.0425  0.3700
  109OSM    H2S11187   0.576   2.664  10.596 -0.4755 -0.3838 -0.2643
  109OSM    C3S11188   0.401   2.544  10.586  0.0546  0.4969 -0.3681
  109OSM    H3S11189   0.299   2.533  10.628 -0.0091 -0.3507 -0.7274
  109OSM     O311190   0.466   2.421  10.633  0.1032  0.0369 -0.4026
  109OSM    HO311191   0.540   2.446  10.689 -0.6525  1.7241 -0.0961
  109OSM    C4S11192   0.399   2.545  10.432  0.2642 -0.0706  0.1404
  109OSM    H4S11193   0.487   2.502  10.382 -0.5954 -0.9577 -0.6536
  109OSM    C5S11194   0.298   2.591  10.348  0.6085  0.2186 -0.6916
  109OSM    H5S11195   0.206   2.626  10.396  0.8485 -0.9827  0.7206
  109OSM    C6S11196   0.306   2.584  10.193  0.2187 -1.1352 -0.6004
  109OSM    H6S11197   0.240   2.656  10.140 -0.9266 -2.2062 -0.7002
  109OSM    H6T11198   0.262   2.489  10.155 -3.1896 -0.0378  0.2172
  109OSM    C7S11199   0.453   2.592  10.141  0.2895 -0.1548 -0.1839
  109OSM    H7S11200   0.522   2.513  10.177 -0.5869 -0.1236  1.7162
  109OSM    H7T11201   0.494   2.687  10.182  0.2740 -1.1347  2.3043
  109OSM    C8S11202   0.462   2.592   9.991 -0.0952 -0.3524  0.3628
  109OSM    H8S11203   0.385   2.664   9.956 -1.0831 -1.0185  1.1057
  109OSM    H8T11204   0.438   2.489   9.958 -1.0954 -0.1313  0.3843
  109OSM    C9S11205   0.596   2.626   9.937  0.4309 -0.0171  0.1383
  109OSM    H9S11206   0.653   2.532   9.953  1.7904  0.8332  0.5023
  109OSM    H9T11207   0.637   2.710   9.997 -1.0634  0.4328  0.5733
  109OSM   C10S11208   0.601   2.652   9.781  0.4115 -0.5056 -0.7207
  109OSM   H10S11209   0.708   2.657   9.753 -0.0120  2.2413 -2.1302
  109OSM   H10T11210   0.556   2.753   9.774 -0.0070 -0.5549  0.8560
  109OSM   C11S11211   0.520   2.556   9.695 -0.7267 -0.9618 -0.0583
  109OSM   H11S11212   0.413   2.588   9.698  0.1196  2.2811 -0.3283
  109OSM   H11T11213   0.544   2.456   9.735 -0.6519 -0.6010  0.8272
  109OSM   C12S11214   0.544   2.569   9.544 -0.5605  0.2165  0.2082
  109OSM   H12S11215   0.653   2.564   9.525 -0.4374 -0.6552  1.0164
  109OSM   H12T11216   0.506   2.669   9.514 -0.1559 -0.1358 -1.6023
  109OSM   C13S11217   0.476   2.455   9.463 -0.2284  0.1315 -0.9600
  109OSM   H13S11218   0.394   2.413   9.525 -0.8388  1.5027 -0.8132
  109OSM   H13T11219   0.550   2.376   9.437 -1.0951 -0.8002 -0.6718
  109OSM   C14S11220   0.404   2.508   9.341 -0.1181  1.0904  0.0574
  109OSM   H14S11221   0.464   2.575   9.275  0.8011 -0.2880 -0.5642
  109OSM   H14T11222   0.308   2.559   9.360 -0.6230  0.4102 -0.6055
  109OSM   C15S11223   0.350   2.394   9.250  0.1339 -0.1385  0.7954
  109OSM   H15S11224   0.259   2.353   9.299 -0.3351  0.5973  0.5631
  109OSM   H15T11225   0.419   2.312   9.220 -1.3057 -0.9204 -0.6031
  109OSM   C16S11226   0.323   2.458   9.113 -0.0050  0.4682 -0.3596
  109OSM   H16S11227   0.419   2.475   9.059  0.0699 -0.8256 -0.6759
  109OSM   H16T11228   0.272   2.554   9.137 -0.6267  0.1559 -0.4034
  109OSM   C17S11229   0.228   2.392   9.011  0.3187  0.4418 -0.0090
  109OSM   H17S11230   0.131   2.366   9.059  0.4070 -1.2689 -0.6738
  109OSM   H17T11231   0.275   2.292   9.000 -0.2148  0.2265 -0.3216
  109OSM   C18S11232   0.222   2.462   8.875 -0.5593 -0.2362  0.0522
  109OSM   H18S11233   0.168   2.557   8.897 -1.2973 -0.8337  0.8794
  109OSM   H18T11234   0.173   2.401   8.795  1.3650 -0.1843 -1.2413
  109OSM   H18U11235   0.325   2.473   8.835 -0.1912  0.0775  1.0577
  109OSM    C1F11236   0.495   2.907  10.598  0.1835  0.5406  0.0176
  109OSM     OF11237   0.606   2.924  10.646  0.0398  0.3045 -0.0303
  109OSM    C2F11238   0.416   3.028  10.557  0.4517  0.6202 -0.2361
  109OSM    H2F11239   0.484   3.111  10.585  2.0949 -0.6435 -0.3512
  109OSM    H2G11240   0.324   3.038  10.618  2.4019  2.2242  2.6579
  109OSM    C3F11241   0.372   3.045  10.411  0.0226 -0.1297 -0.2208
  109OSM    H3F11242   0.316   3.142  10.410  1.7536  1.0428  2.9475
  109OSM    H3G11243   0.289   2.975  10.389  1.1230 -0.5308 -3.7832
  109OSM    C4F11244   0.479   3.022  10.306 -0.0273  0.0314  0.1478
  109OSM    H4F11245   0.512   2.916  10.312 -1.8999 -0.7121 -1.4675
  109OSM    H4G11246   0.561   3.093  10.328 -0.1207 -0.3512  1.8837
  109OSM    C5F11247   0.426   3.036  10.161  0.0418 -1.1287  0.0330
  109OSM    H5F11248   0.509   3.054  10.088 -0.6098 -0.9539 -0.6759
  109OSM    H5G11249   0.365   3.129  10.161 -0.7032 -1.6168  0.3203
  109OSM    C6F11250   0.348   2.925  10.100  0.0527  0.3973  0.0483
  109OSM    H6F11251   0.275   2.873  10.164 -0.4807 -0.9460 -1.5843
  109OSM    H6G11252   0.410   2.840  10.063 -0.1067 -0.1516  1.0389
  109OSM    C7F11253   0.260   2.969   9.987 -0.3879  0.0627 -0.7922
  109OSM    H7F11254   0.186   3.041  10.027 -1.0271 -2.7693  3.8551
  109OSM    H7G11255   0.203   2.881   9.949 -2.0446  1.3525 -1.4107
  109OSM    C8F11256   0.340   3.036   9.871  0.6188  0.4004 -0.4403
  109OSM    H8F11257   0.415   2.968   9.825  0.7050  0.7821 -0.8749
  109OSM    H8G11258   0.390   3.131   9.900 -1.2368  0.6444  2.3297
  109OSM    C9F11259   0.237   3.080   9.765  0.2881  0.2021 -0.1896
  109OSM    H9F11260   0.164   3.150   9.809 -0.5548  0.4879 -1.9357
  109OSM   C10F11261   0.248   3.064   9.633  0.4131  0.3310 -0.1852
  109OSM   H10F11262   0.158   3.081   9.571 -0.3808  1.1593  1.1453
  109OSM   C11F11263   0.356   2.983   9.562  0.4352 -0.2174  0.3061
  109OSM   H11F11264   0.396   2.912   9.637 -0.6239  1.2792  2.3561
  109OSM   H11G11265   0.431   3.048   9.512  3.0773 -1.4387  2.4600
  109OSM   C12F11266   0.296   2.894   9.453  0.1922 -0.4708 -0.4948
  109OSM   H12F11267   0.222   2.826   9.502  0.8653 -0.1744  0.9860
  109OSM   H12G11268   0.382   2.838   9.412 -0.4588  0.3865 -3.2384
  109OSM   C13F11269   0.236   2.964   9.328 -0.5520  0.2378 -0.2204
  109OSM   H13F11270   0.310   3.043   9.304  0.5059 -0.8355 -0.6079
  109OSM   H13G11271   0.140   3.003   9.369 -1.6701 -2.3644 -0.1089
  109OSM   C14F11272   0.197   2.875   9.210 -0.1002  0.0548 -0.3859
  109OSM   H14F11273   0.104   2.818   9.226 -0.3923  0.0401 -1.9519
  109OSM   H14G11274   0.287   2.814   9.185 -0.8046 -1.2487  0.1955
  109OSM   C15F11275   0.181   2.957   9.078  0.7980  0.0199 -0.5885
  109OSM   H15F11276   0.277   3.004   9.047 -0.8697  3.4463 -1.0244
  109OSM   H15G11277   0.107   3.036   9.104 -0.4812 -1.5285  0.7626
  109OSM   C16F11278   0.135   2.873   8.955 -0.1017  0.1690  0.0692
  109OSM   H16F11279   0.036   2.828   8.979 -0.2070  1.2529  1.8196
  109OSM   H16G11280   0.212   2.795   8.936 -0.4894  0.2049 -1.8423
  109OSM   C17F11281   0.124   2.941   8.815 -0.6145 -0.7438  0.5060
  109OSM   H17F11282   0.220   2.993   8.793 -0.1420 -1.1618  1.5205
  109OSM   H17G11283   0.046   3.021   8.817 -1.0329 -1.0379 -1.4862
  109OSM   C18F11284   0.087   2.858   8.695  0.6811  0.1855  0.8914
  109OSM   H18F11285   0.068   2.927   8.610  0.4872  0.8391  1.4560
  109OSM   H18G11286  -0.005   2.796   8.709  0.6591 -0.0877 -0.3179
  109OSM   H18H11287   0.166   2.784   8.670 -0.1665 -0.6368  0.5290
  110OSM      N11288   2.551   1.532  11.004  0.5210  0.6540 -0.2689
  110OSM    C1511289   2.452   1.548  11.122 -0.2783 -0.2397 -0.1788
  110OSM   H15A11290   2.424   1.649  11.146 -2.9400 -0.8618 -0.3819
  110OSM   H15B11291   2.493   1.503  11.211  1.1563  1.1341 -0.0986
  110OSM   H15C11292   2.356   1.505  11.098 -0.1887 -0.8345  0.4952
  110OSM    C1411293   2.550   1.388  10.954  0.1791 -0.9814  0.1394
  110OSM   H14A11294   2.612   1.380  10.865 -0.3355 -0.0254 -0.3276
  110OSM   H14B11295   2.447   1.373  10.927 -0.5079  0.7663  1.5629
  110OSM   H14C11296   2.578   1.312  11.025  0.1623  0.1724  1.4166
  110OSM    C1311297   2.514   1.623  10.889 -0.3555 -0.5167 -0.8101
  110OSM   H13A11298   2.590   1.606  10.814  0.0819 -1.7408 -0.1227
  110OSM   H13B11299   2.500   1.728  10.910 -0.2700 -1.0775  2.7895
  110OSM   H13C11300   2.424   1.588  10.840  0.1987 -0.0060 -2.2153
  110OSM    C1211301   2.693   1.573  11.052  0.6288 -0.4616  0.1042
  110OSM   H12A11302   2.769   1.553  10.979  0.7422 -1.4632  0.4741
  110OSM   H12B11303   2.732   1.525  11.141  3.3225 -0.6192 -1.0671
  110OSM    C1111304   2.709   1.729  11.079  0.2226  0.0354 -0.4712
  110OSM   H11A11305   2.787   1.738  11.157  0.4804  1.8551 -0.8890
  110OSM   H11B11306   2.618   1.766  11.130  0.5526 -1.3854  1.2182
  110OSM      P11307   2.719   1.940  10.919 -0.3602 -0.0930  0.0387
  110OSM    O1311308   2.579   1.980  10.940  0.3009 -0.0512  0.7927
  110OSM    O1411309   2.812   2.019  11.001  0.3567  0.0386  0.0305
  110OSM    O1111310   2.753   1.947  10.760 -0.3890 -0.3601 -0.4800
  110OSM    O1211311   2.746   1.782  10.951 -0.1459 -0.4777  0.3792
  110OSM    C1S11312   2.710   1.830  10.686  0.8793 -0.4762 -0.6413
  110OSM    H1S11313   2.602   1.808  10.695  0.7798  0.4537  0.6005
  110OSM    H1T11314   2.759   1.734  10.714  0.5403 -0.2989  0.6241
  110OSM     NF11315   2.642   1.793  10.449  0.1574 -0.6925  0.1491
  110OSM    HNF11316   2.661   1.714  10.393 -1.3636  0.1508 -1.6781
  110OSM    C2S11317   2.737   1.848  10.535  0.0562 -1.0089  0.1304
  110OSM    H2S11318   2.732   1.957  10.520  1.6248 -0.6654  1.6449
  110OSM    C3S11319   2.878   1.798  10.516  0.3183 -0.3319  0.3979
  110OSM    H3S11320   2.886   1.688  10.529  0.7948 -0.1284  2.0239
  110OSM     O311321   2.964   1.855  10.612 -0.2204 -0.0538 -0.0954
  110OSM    HO311322   2.906   1.901  10.673  2.4088  0.5845  2.0886
  110OSM    C4S11323   2.928   1.828  10.380 -1.0279  0.0774  0.0806
  110OSM    H4S11324   2.901   1.747  10.311  1.5417 -0.4632 -0.3885
  110OSM    C5S11325   3.014   1.926  10.343  0.2309 -0.2472  0.3928
  110OSM    H5S11326   3.070   1.990  10.413  2.1735 -0.5520 -0.7806
  110OSM    C6S11327   3.061   1.937  10.200 -0.0841 -0.3773  0.5408
  110OSM    H6S11328   3.170   1.920  10.182 -0.4652 -2.2879 -0.2005
  110OSM    H6T11329   3.045   2.043  10.172 -3.3535 -0.8094  0.4100
  110OSM    C7S11330   3.002   1.846  10.089 -0.2629  0.1178 -0.3643
  110OSM    H7S11331   3.012   1.741  10.123  0.0153  0.4941  0.7522
  110OSM    H7T11332   3.070   1.859  10.002  0.6433 -1.0328  0.1421
  110OSM    C8S11333   2.861   1.891  10.042  0.0423 -0.1419 -0.2798
  110OSM    H8S11334   2.873   1.990   9.994 -0.6448 -0.1469 -0.4770
  110OSM    H8T11335   2.798   1.908  10.132  1.3446 -3.7497  1.5481
  110OSM    C9S11336   2.791   1.794   9.940  0.5453  0.1023  0.1930
  110OSM    H9S11337   2.686   1.785   9.974  0.4719  2.2149  0.6588
  110OSM    H9T11338   2.848   1.699   9.952  0.2788 -0.0004  0.6498
  110OSM   C10S11339   2.793   1.843   9.796 -0.3603 -0.5398  0.1777
  110OSM   H10S11340   2.731   1.934   9.813 -1.4317 -1.5377  1.9539
  110OSM   H10T11341   2.737   1.790   9.716 -2.8674  2.5506 -0.3331
  110OSM   C11S11342   2.927   1.870   9.728 -0.0383 -0.6960 -0.3112
  110OSM   H11S11343   2.988   1.918   9.809  0.0147 -0.4600 -0.4902
  110OSM   H11T11344   2.912   1.942   9.645 -1.8749  0.4393  0.9373
  110OSM   C12S11345   2.997   1.743   9.679 -0.1877 -0.3290  0.1223
  110OSM   H12S11346   2.943   1.697   9.594  1.0609  1.8009 -1.9263
  110OSM   H12T11347   2.982   1.667   9.759 -1.4082  1.3626  1.5752
  110OSM   C13S11348   3.144   1.765   9.646  0.3176  0.3296  0.2762
  110OSM   H13S11349   3.189   1.799   9.742 -1.1010  1.1142  0.6926
  110OSM   H13T11350   3.153   1.847   9.571 -0.2651 -0.2636 -0.4679
  110OSM   C14S11351   3.220   1.651   9.595  0.5507  0.3160 -0.9273
  110OSM   H14S11352   3.218   1.563   9.663  0.5411  0.8376 -0.2536
  110OSM   H14T11353   3.328   1.679   9.599  0.4763  0.4821  0.0156
  110OSM   C15S11354   3.173   1.604   9.454  0.1330  0.0041  0.0146
  110OSM   H15S11355   3.142   1.690   9.391 -0.7971 -0.4121 -0.1082
  110OSM   H15T11356   3.089   1.533   9.468  0.7470 -0.7882 -0.2591
  110OSM   C16S11357   3.268   1.512   9.381  0.5464  0.0156 -0.0820
  110OSM   H16S11358   3.367   1.562   9.367  0.9257  0.1410  2.4446
  110OSM   H16T11359   3.227   1.499   9.279 -0.6040  2.5124 -0.0129
  110OSM   C17S11360   3.278   1.379   9.464  0.1171 -0.4397 -0.3384
  110OSM   H17S11361   3.181   1.326   9.477 -0.2910 -0.0983 -1.8222
  110OSM   H17T11362   3.318   1.398   9.566  1.6489 -1.7628 -0.6479
  110OSM   C18S11363   3.368   1.268   9.410 -0.3912  0.4741  0.9020
  110OSM   H18S11364   3.471   1.287   9.448 -0.4113 -1.5567  2.0610
  110OSM   H18T11365   3.351   1.275   9.300  0.8006 -0.5753  0.6324
  110OSM   H18U11366   3.347   1.168   9.452  5.6381 -1.2568  0.7908
  110OSM    C1F11367   2.513   1.835  10.437 -0.0563  0.2780  0.1175
  110OSM     OF11368   2.465   1.923  10.499 -0.1918 -0.6236 -0.4690
  110OSM    C2F11369   2.439   1.760  10.334 -0.1319  0.4666 -0.8011
  110OSM    H2F11370   2.363   1.702  10.390  1.4720 -0.0590  0.9432
  110OSM    H2G11371   2.508   1.696  10.274 -0.2733 -0.5865  0.1329
  110OSM    C3F11372   2.376   1.850  10.228 -0.4796  0.2357 -0.3167
  110OSM    H3F11373   2.317   1.931  10.277 -0.0334  1.4366 -1.7018
  110OSM    H3G11374   2.302   1.786  10.175  0.1708  0.1860 -1.1679
  110OSM    C4F11375   2.478   1.914  10.146  0.1650 -0.6024  0.4969
  110OSM    H4F11376   2.563   1.843  10.139  0.4244 -0.5569  2.6404
  110OSM    H4G11377   2.512   2.002  10.204  2.4214  0.2302 -1.8748
  110OSM    C5F11378   2.403   1.949  10.015  0.3922 -0.7785  0.3249
  110OSM    H5F11379   2.304   1.989  10.046  1.5582  0.4161  2.8291
  110OSM    H5G11380   2.387   1.863   9.948  0.0289  0.3046 -1.0247
  110OSM    C6F11381   2.474   2.075   9.949  0.1249 -0.4277  0.4132
  110OSM    H6F11382   2.580   2.054   9.922  0.7933 -0.3425  2.7343
  110OSM    H6G11383   2.473   2.167  10.010 -0.1780  0.6929 -1.2391
  110OSM    C7F11384   2.397   2.108   9.825  0.4763  0.0615 -0.3691
  110OSM    H7F11385   2.399   2.217   9.805 -0.7406  0.4777  1.4645
  110OSM    H7G11386   2.288   2.089   9.839  0.3564  0.7067 -0.3862
  110OSM    C8F11387   2.457   2.022   9.710 -0.2926 -0.1283 -0.1587
  110OSM    H8F11388   2.366   2.011   9.646 -0.0650 -3.2731 -0.1020
  110OSM    H8G11389   2.493   1.926   9.753  0.4149  1.2993  2.6908
  110OSM    C9F11390   2.572   2.100   9.652  0.4950 -0.7987 -0.2264
  110OSM    H9F11391   2.672   2.060   9.672  0.1900 -1.4116  0.0983
  110OSM   C10F11392   2.569   2.198   9.564 -0.6384  0.2773 -0.8562
  110OSM   H10F11393   2.664   2.240   9.527 -0.4738  2.0573  1.3110
  110OSM   C11F11394   2.454   2.252   9.493  0.9610 -0.4482  0.3828
  110OSM   H11F11395   2.416   2.347   9.537  0.9062  0.6912 -1.9655
  110OSM   H11G11396   2.376   2.173   9.489  0.2939  0.2256 -0.3744
  110OSM   C12F11397   2.491   2.281   9.348  0.1455  0.0717 -0.4254
  110OSM   H12F11398   2.507   2.177   9.311  2.2941 -0.6624  2.2459
  110OSM   H12G11399   2.592   2.327   9.342  0.8785 -0.8964  2.5531
  110OSM   C13F11400   2.372   2.350   9.276  0.0396 -0.3526 -0.1969
  110OSM   H13F11401   2.389   2.455   9.308  0.4963 -0.7667  0.9761
  110OSM   H13G11402   2.276   2.320   9.324 -0.4742  1.8664  0.2977
  110OSM   C14F11403   2.365   2.324   9.122  0.1691  0.5209  0.1339
  110OSM   H14F11404   2.397   2.219   9.102  2.6291  0.8865  1.6382
  110OSM   H14G11405   2.446   2.379   9.070  2.3904 -0.6964  2.0776
  110OSM   C15F11406   2.233   2.362   9.060 -0.1943 -0.6670  0.2466
  110OSM   H15F11407   2.153   2.302   9.109 -0.6446  0.5684  1.0760
  110OSM   H15G11408   2.237   2.334   8.952  2.2496  1.0112 -0.1770
  110OSM   C16F11409   2.191   2.515   9.059  0.5562  0.6568 -0.5001
  110OSM   H16F11410   2.266   2.567   8.996 -0.0238  0.4915 -1.3473
  110OSM   H16G11411   2.191   2.549   9.165  1.5033  1.0439 -0.6094
  110OSM   C17F11412   2.043   2.541   9.010 -0.4491 -0.4217 -0.1637
  110OSM   H17F11413   2.000   2.638   9.042 -0.4450  0.3354 -2.2511
  110OSM   H17G11414   1.987   2.458   9.058 -0.2307 -0.3220  0.2597
  110OSM   C18F11415   2.041   2.534   8.858  0.4018 -0.2183 -0.1503
  110OSM   H18F11416   1.941   2.566   8.822  1.2470  3.3360  0.2688
  110OSM   H18G11417   2.071   2.437   8.814  1.5498  0.0115  0.1014
  110OSM   H18H11418   2.117   2.605   8.821 -0.5970 -0.1231 -2.1292
  111OSM      N11419   2.202   0.094  10.494  0.2958 -0.3147  0.6856
  111OSM    C1511420   2.089   0.192  10.523 -0.1968 -0.2436  0.0730
  111OSM   H15A11421   2.084   0.270  10.449 -1.4292  1.9159  2.2754
  111OSM   H15B11422   2.106   0.229  10.623  1.9107 -3.1392  0.9503
  111OSM   H15C11423   1.991   0.147  10.525 -0.0436 -0.6214  2.1848
  111OSM    C1411424   2.154   0.001  10.389 -0.0689 -0.6719  0.7095
  111OSM   H14A11425   2.070  -0.050  10.434  0.0581 -0.8578  0.7396
  111OSM   H14B11426   2.235  -0.065  10.362  0.0047 -0.3893  0.2441
  111OSM   H14C11427   2.121   0.056  10.303 -0.9688 -1.5103  0.4896
  111OSM    C1311428   2.315   0.179  10.445 -0.3789 -0.2143  0.2476
  111OSM   H13A11429   2.275   0.236  10.362  3.4316  2.9027  0.2982
  111OSM   H13B11430   2.397   0.128  10.398  0.4998  1.2977  0.0890
  111OSM   H13C11431   2.351   0.248  10.520 -0.6277 -0.7634  0.8875
  111OSM    C1211432   2.232   0.014  10.625 -0.9515 -0.1521 -0.6533
  111OSM   H12A11433   2.297  -0.068  10.596  0.9114  2.2117 -3.8109
  111OSM   H12B11434   2.140  -0.027  10.664 -0.5913  0.9883  1.5668
  111OSM    C1111435   2.304   0.087  10.742  0.1787 -0.3268 -0.2315
  111OSM   H11A11436   2.288   0.025  10.833  0.6338 -1.0115 -0.6074
  111OSM   H11B11437   2.251   0.181  10.768  0.0720 -0.7767  1.3083
  111OSM      P11438   2.515   0.222  10.780 -0.3103 -0.0570  0.0927
  111OSM    O1311439   2.455   0.266  10.905 -0.3163  0.0154 -0.7352
  111OSM    O1411440   2.653   0.183  10.801  0.4141 -0.2065  0.1926
  111OSM    O1111441   2.499   0.344  10.676 -0.2794 -0.1823  0.0071
  111OSM    O1211442   2.444   0.097  10.709 -0.0714 -0.4462  0.1929
  111OSM    C1S11443   2.596   0.352  10.568  0.8285  0.7982  0.0849
  111OSM    H1S11444   2.616   0.255  10.518  1.3289  1.3946 -0.9019
  111OSM    H1T11445   2.690   0.379  10.620 -0.1344 -1.2390  3.1757
  111OSM     NF11446   2.672   0.457  10.376 -0.5222  0.6843  0.4096
  111OSM    HNF11447   2.744   0.525  10.384  1.0021 -0.9205  1.0281
  111OSM    C2S11448   2.559   0.460  10.466  0.1927  0.1471 -0.7478
  111OSM    H2S11449   2.467   0.424  10.415 -0.0498 -0.6958  0.2543
  111OSM    C3S11450   2.510   0.598  10.531 -0.2634  0.5670  0.2398
  111OSM    H3S11451   2.592   0.635  10.596  0.8457  0.3715 -1.0143
  111OSM     O311452   2.394   0.587  10.614  0.2606 -0.1113 -0.0252
  111OSM    HO311453   2.404   0.496  10.643  1.6220  0.3538  1.0653
  111OSM    C4S11454   2.483   0.704  10.430 -0.4616  0.3819  0.1376
  111OSM    H4S11455   2.571   0.752  10.384 -0.2804 -1.9879 -2.2742
  111OSM    C5S11456   2.362   0.757  10.393 -0.0248 -0.0702 -0.2932
  111OSM    H5S11457   2.266   0.713  10.424 -1.2700  1.8809 -1.1393
  111OSM    C6S11458   2.348   0.861  10.286  0.6783 -0.2663  0.6949
  111OSM    H6S11459   2.433   0.863  10.214  1.6457 -0.9837  1.7777
  111OSM    H6T11460   2.332   0.961  10.332  0.1312 -0.4898  1.0033
  111OSM    C7S11461   2.225   0.836  10.197 -0.2224 -0.2231 -0.1349
  111OSM    H7S11462   2.131   0.850  10.255 -0.0949  1.5340 -0.2911
  111OSM    H7T11463   2.242   0.737  10.149  1.0185  0.2772 -0.7686
  111OSM    C8S11464   2.200   0.931  10.079  0.2158 -0.8413  0.3612
  111OSM    H8S11465   2.199   1.038  10.111  1.1721 -0.8956  0.6066
  111OSM    H8T11466   2.104   0.906  10.029 -0.5906  2.3773  0.0486
  111OSM    C9S11467   2.304   0.936   9.971 -0.5566  0.2378 -0.0511
  111OSM    H9S11468   2.327   0.838   9.923 -0.8759 -1.0209  2.2275
  111OSM    H9T11469   2.397   0.983  10.010 -0.4625  1.3772 -1.5499
  111OSM   C10S11470   2.258   1.028   9.860 -0.3464 -0.4556  0.4760
  111OSM   H10S11471   2.245   1.124   9.913 -0.4135 -0.6415  0.7969
  111OSM   H10T11472   2.155   1.008   9.825 -0.8139 -0.3323  1.7516
  111OSM   C11S11473   2.362   1.033   9.740 -0.2602  0.0157  0.2545
  111OSM   H11S11474   2.341   0.943   9.678 -0.5233  0.9242 -1.0204
  111OSM   H11T11475   2.468   1.047   9.770  0.1153 -1.3162 -0.3295
  111OSM   C12S11476   2.329   1.143   9.646  0.4760 -0.3957 -0.0560
  111OSM   H12S11477   2.367   1.235   9.695  1.1965 -0.2209 -0.9380
  111OSM   H12T11478   2.218   1.153   9.646  0.5749  0.9364  0.6246
  111OSM   C13S11479   2.383   1.109   9.498 -0.4511  0.1754 -0.1383
  111OSM   H13S11480   2.389   0.999   9.480 -1.0312 -0.1769  1.6217
  111OSM   H13T11481   2.488   1.145   9.506 -0.6670  0.8083 -0.1557
  111OSM   C14S11482   2.307   1.161   9.384  0.3743 -0.1742  0.6832
  111OSM   H14S11483   2.323   1.271   9.384 -1.9547  0.2626 -1.8008
  111OSM   H14T11484   2.201   1.131   9.389  0.0305  0.7624 -0.5447
  111OSM   C15S11485   2.357   1.107   9.250 -0.2882 -0.0985 -0.0207
  111OSM   H15S11486   2.333   1.000   9.236 -0.8597  0.0786 -0.4606
  111OSM   H15T11487   2.468   1.105   9.240 -0.1845 -2.5289  1.0262
  111OSM   C16S11488   2.301   1.184   9.131 -0.2282 -0.2279  0.0237
  111OSM   H16S11489   2.320   1.292   9.146  2.2061 -0.3889 -1.3154
  111OSM   H16T11490   2.191   1.166   9.134 -0.2954  0.1229 -0.3469
  111OSM   C17S11491   2.363   1.139   8.995  0.4728 -0.1411  0.1964
  111OSM   H17S11492   2.458   1.193   8.976  0.0676  0.0028 -1.5625
  111OSM   H17T11493   2.296   1.174   8.913  1.5168  0.5808 -0.3718
  111OSM   C18S11494   2.388   0.993   8.973 -0.2415 -0.3403  0.0693
  111OSM   H18S11495   2.291   0.942   8.994 -1.4110  2.5154  2.2771
  111OSM   H18T11496   2.468   0.954   9.039  1.8009  1.1298 -1.4172
  111OSM   H18U11497   2.411   0.968   8.867  2.0016  1.3481  0.0910
  111OSM    C1F11498   2.702   0.358  10.296  0.3351  0.0642  0.3135
  111OSM     OF11499   2.620   0.269  10.274  1.2090 -0.0473 -0.2908
  111OSM    C2F11500   2.827   0.363  10.222 -0.7779  0.2812  0.0124
  111OSM    H2F11501   2.852   0.264  10.179 -2.5920  1.0232 -3.0513
  111OSM    H2G11502   2.904   0.412  10.285  0.3166 -3.5990  2.0045
  111OSM    C3F11503   2.821   0.465  10.105 -0.4646  0.2176  0.6582
  111OSM    H3F11504   2.835   0.570  10.136 -1.3652  0.8541 -0.9558
  111OSM    H3G11505   2.729   0.455  10.043 -0.1532  2.0248 -0.1655
  111OSM    C4F11506   2.950   0.452  10.018  0.2327 -0.1144  0.2664
  111OSM    H4F11507   3.044   0.438  10.076  0.1665 -1.0806  0.1405
  111OSM    H4G11508   2.955   0.541   9.952 -2.5209  0.5007  0.7637
  111OSM    C5F11509   2.931   0.337   9.913 -0.3608 -0.1844  0.2341
  111OSM    H5F11510   2.821   0.340   9.896  0.0265 -0.0592 -2.7895
  111OSM    H5G11511   2.955   0.242   9.965  1.4246 -0.1173 -0.4127
  111OSM    C6F11512   3.013   0.342   9.779  0.0172 -0.0941 -0.7467
  111OSM    H6F11513   3.117   0.304   9.794 -1.0179 -3.3167 -0.9436
  111OSM    H6G11514   3.029   0.447   9.747 -2.0794 -0.0299 -1.7396
  111OSM    C7F11515   2.956   0.245   9.680  0.1403 -0.5532  0.3183
  111OSM    H7F11516   2.857   0.263   9.634  0.0042 -1.3609  0.2736
  111OSM    H7G11517   2.941   0.149   9.734  0.6242 -0.2054  1.0866
  111OSM    C8F11518   3.046   0.231   9.553 -0.2259 -0.3051 -0.1748
  111OSM    H8F11519   3.020   0.137   9.499 -1.5249 -1.3537  2.1049
  111OSM    H8G11520   3.145   0.203   9.594  0.0922  1.6685  0.4770
  111OSM    C9F11521   3.055   0.354   9.467 -0.1366  0.7092 -0.5195
  111OSM    H9F11522   3.049   0.447   9.526 -0.7864  0.4200 -0.1149
  111OSM   C10F11523   3.054   0.357   9.332 -0.6095  0.0207  0.4991
  111OSM   H10F11524   3.053   0.451   9.274  0.4697 -0.3352 -0.1388
  111OSM   C11F11525   3.040   0.246   9.239  0.2063 -0.3005  0.4085
  111OSM   H11F11526   2.986   0.289   9.153 -1.0499 -0.0216  1.3052
  111OSM   H11G11527   2.984   0.158   9.278 -1.0425  1.2368  2.2616
  111OSM   C12F11528   3.181   0.200   9.195  1.4524 -0.6498 -0.1117
  111OSM   H12F11529   3.155   0.121   9.121 -2.3040  0.4319 -0.1572
  111OSM   H12G11530   3.233   0.145   9.277  1.4927  0.6448  0.7562
  111OSM   C13F11531   3.266   0.294   9.119  0.1765 -1.0071 -0.5463
  111OSM   H13F11532   3.299   0.378   9.183 -0.4936  0.1553 -1.6683
  111OSM   H13G11533   3.191   0.349   9.058 -0.1690  1.1555  1.6973
  111OSM   C14F11534   3.382   0.232   9.036  0.1315 -0.5996  0.4332
  111OSM   H14F11535   3.341   0.153   8.970 -0.7490  1.1549 -1.2218
  111OSM   H14G11536   3.455   0.184   9.103  2.1849 -0.2163 -1.4074
  111OSM   C15F11537   3.467   0.340   8.956  0.1347  0.2265  0.7852
  111OSM   H15F11538   3.568   0.297   8.943  0.9002  2.1579  0.0795
  111OSM   H15G11539   3.479   0.432   9.017  0.2979 -0.7170  2.2331
  111OSM   C16F11540   3.411   0.364   8.809 -0.2519  0.2671 -0.1341
  111OSM   H16F11541   3.336   0.446   8.813  1.2299  1.6725 -0.2179
  111OSM   H16G11542   3.358   0.270   8.782 -0.1126  0.3338 -0.6484
  111OSM   C17F11543   3.519   0.399   8.698  0.8146  0.1870 -0.1708
  111OSM   H17F11544   3.466   0.443   8.610  3.1323  3.0305 -0.2879
  111OSM   H17G11545   3.581   0.310   8.674  0.2243 -0.5067  0.7861
  111OSM   C18F11546   3.618   0.502   8.743 -0.0588 -0.1595  0.2667
  111OSM   H18F11547   3.706   0.453   8.792  1.4301  0.8591 -1.2590
  111OSM   H18G11548   3.570   0.577   8.810 -0.2028 -0.1705  0.1760
  111OSM   H18H11549   3.648   0.566   8.657 -3.5412 -0.0014 -0.9654
  112OSM      N11550   3.647   4.823  11.021  0.3375 -0.1679  0.1582
  112OSM    C1511551   3.544   4.832  11.130  0.1383 -0.7462  0.0730
  112OSM   H15A11552   3.566   4.915  11.196 -0.5435 -0.1626 -0.4144
  112OSM   H15B11553   3.558   4.743  11.190  3.6620 -0.4690 -0.1302
  112OSM   H15C11554   3.442   4.848  11.097 -0.3497  1.2913  2.3142
  112OSM    C1411555   3.649   4.958  10.956  0.4728 -0.2601 -0.2496
  112OSM   H14A11556   3.546   4.982  10.933 -0.2884 -1.2444  1.9192
  112OSM   H14B11557   3.710   4.960  10.867 -2.3427 -0.2727 -2.3395
  112OSM   H14C11558   3.684   5.037  11.021  0.5020  0.6666 -1.3594
  112OSM    C1311559   3.774   4.790  11.079  0.0637  0.1272  0.1194
  112OSM   H13A11560   3.859   4.795  11.012  1.5671  0.5523  1.9790
  112OSM   H13B11561   3.764   4.693  11.124 -3.1794 -0.1213 -0.8706
  112OSM   H13C11562   3.796   4.852  11.164  1.2277  0.0863 -0.1417
  112OSM    C1211563   3.608   4.718  10.923 -0.3406 -0.2585  0.1069
  112OSM   H12A11564   3.618   4.625  10.978 -0.0201 -1.1088 -1.3515
  112OSM   H12B11565   3.676   4.719  10.839  0.8800  0.1378  1.0519
  112OSM    C1111566   3.461   4.716  10.869  0.3375 -0.0458  0.9243
  112OSM   H11A11567   3.465   4.653  10.778  1.4129  3.6657 -1.8590
  112OSM   H11B11568   3.443   4.817  10.827 -1.8295  0.0058  1.8591
  112OSM      P11569   3.355   4.518  11.003  0.4501 -0.3433 -0.4761
  112OSM    O1311570   3.476   4.467  11.060 -0.2171 -0.4185 -0.0366
  112OSM    O1411571   3.225   4.499  11.072  0.5979 -0.4634 -0.7050
  112OSM    O1111572   3.344   4.447  10.863 -0.0233  0.1171  0.1799
  112OSM    O1211573   3.368   4.674  10.964 -0.6682 -0.4995  0.8218
  112OSM    C1S11574   3.226   4.390  10.795  0.0717  0.1499  0.5151
  112OSM    H1S11575   3.159   4.477  10.780 -0.8700 -0.6269  0.0912
  112OSM    H1T11576   3.180   4.320  10.868 -0.5114  0.7610  0.7478
  112OSM     NF11577   3.143   4.315  10.581  0.3725  0.0265  0.9253
  112OSM    HNF11578   3.088   4.235  10.606 -0.5809  0.6367  0.8204
  112OSM    C2S11579   3.265   4.336  10.654  0.7217 -0.1965  0.0774
  112OSM    H2S11580   3.331   4.412  10.608  0.1550 -0.8658 -1.9343
  112OSM    C3S11581   3.348   4.206  10.681 -0.6669 -0.5672 -0.1079
  112OSM    H3S11582   3.279   4.143  10.740 -2.3689 -1.0072 -2.3930
  112OSM     O311583   3.472   4.228  10.755 -0.5634  0.3067  0.3295
  112OSM    HO311584   3.469   4.317  10.792  2.0668  1.4092 -1.7817
  112OSM    C4S11585   3.393   4.128  10.562 -0.0731 -0.0033 -0.2156
  112OSM    H4S11586   3.315   4.057  10.529  0.3347 -0.7756  0.4312
  112OSM    C5S11587   3.503   4.150  10.488  0.2212 -0.1164 -0.1428
  112OSM    H5S11588   3.575   4.233  10.499 -0.7532  0.7076  0.1911
  112OSM    C6S11589   3.522   4.074  10.363  0.5647  0.6671  0.3781
  112OSM    H6S11590   3.629   4.043  10.360  0.0611 -1.1414 -0.3223
  112OSM    H6T11591   3.511   4.147  10.281 -1.3521 -0.2183 -0.1982
  112OSM    C7S11592   3.423   3.955  10.320 -0.1936 -0.7210  1.0794
  112OSM    H7S11593   3.317   3.987  10.320 -0.1067 -0.2911 -0.9034
  112OSM    H7T11594   3.437   3.884  10.404  0.7723 -1.1808  0.5405
  112OSM    C8S11595   3.473   3.905  10.181 -0.6287 -0.6566  0.0763
  112OSM    H8S11596   3.583   3.892  10.179 -0.4051  1.0579 -2.3546
  112OSM    H8T11597   3.448   3.985  10.108  0.1917 -0.9779 -0.5673
  112OSM    C9S11598   3.405   3.772  10.142  0.8517 -0.2117  0.5480
  112OSM    H9S11599   3.296   3.796  10.139  0.1893 -2.5110  2.5026
  112OSM    H9T11600   3.417   3.702  10.227  0.3473  0.8535  1.5320
  112OSM   C10S11601   3.453   3.716  10.012 -1.3916  0.2129  0.4993
  112OSM   H10S11602   3.405   3.623   9.975 -0.5693  0.1955 -0.5858
  112OSM   H10T11603   3.555   3.680  10.038 -0.3412  2.0526 -0.8100
  112OSM   C11S11604   3.463   3.819   9.893 -0.0280 -0.3348  0.7111
  112OSM   H11S11605   3.530   3.902   9.924 -0.5878  0.1357  0.6671
  112OSM   H11T11606   3.363   3.863   9.872  2.2794  4.4265 -2.0499
  112OSM   C12S11607   3.524   3.760   9.765 -0.0443  0.1563  0.0581
  112OSM   H12S11608   3.459   3.672   9.750  2.0754 -1.0347 -3.3963
  112OSM   H12T11609   3.631   3.730   9.764 -0.4049 -1.3857  2.1998
  112OSM   C13S11610   3.483   3.834   9.640 -0.0431  0.3129 -0.9104
  112OSM   H13S11611   3.574   3.889   9.611  1.2513 -1.3110 -0.0840
  112OSM   H13T11612   3.419   3.914   9.682  0.5393 -1.0367  3.0322
  112OSM   C14S11613   3.420   3.750   9.533  0.9149  0.7724  0.7490
  112OSM   H14S11614   3.326   3.715   9.580  1.7001 -0.4821  1.4494
  112OSM   H14T11615   3.487   3.665   9.506  1.4999  0.9598  1.5669
  112OSM   C15S11616   3.384   3.825   9.409  0.7487 -0.2061  0.2313
  112OSM   H15S11617   3.350   3.926   9.441 -0.1455 -0.3244 -0.3110
  112OSM   H15T11618   3.305   3.758   9.368  0.3281 -0.1053  0.8593
  112OSM   C16S11619   3.506   3.855   9.315 -0.2328  0.2832 -0.0115
  112OSM   H16S11620   3.543   3.755   9.284 -0.9597 -0.4409  1.3964
  112OSM   H16T11621   3.587   3.901   9.375  0.4943 -0.9328 -0.0156
  112OSM   C17S11622   3.480   3.951   9.198  0.1397  0.4714  0.5205
  112OSM   H17S11623   3.579   3.984   9.160  1.3050 -0.7360  2.3375
  112OSM   H17T11624   3.422   4.039   9.233  0.6567  1.1916 -0.3889
  112OSM   C18S11625   3.414   3.884   9.076  0.3975 -0.5328  0.1043
  112OSM   H18S11626   3.430   3.938   8.980 -0.0103 -0.9625 -0.2114
  112OSM   H18T11627   3.307   3.870   9.100  0.0247  0.6892 -0.7417
  112OSM   H18U11628   3.456   3.783   9.052 -0.9009 -0.2585 -4.2107
  112OSM    C1F11629   3.094   4.413  10.507 -0.3969  0.6918  0.2764
  112OSM     OF11630   3.141   4.524  10.511 -0.4536  0.1360 -0.8239
  112OSM    C2F11631   2.977   4.381  10.432  0.4812 -0.1528  0.2248
  112OSM    H2F11632   2.915   4.471  10.415  1.1340  0.0111 -1.4935
  112OSM    H2G11633   2.917   4.302  10.483  0.7944 -1.4642 -1.3456
  112OSM    C3F11634   3.019   4.330  10.284  0.3570  0.3065 -0.2351
  112OSM    H3F11635   3.090   4.397  10.231  0.0563  0.2657 -0.6991
  112OSM    H3G11636   2.919   4.326  10.236 -0.5527 -0.8112  1.6397
  112OSM    C4F11637   3.087   4.193  10.276 -0.8856 -0.6928  0.2970
  112OSM    H4F11638   3.029   4.116  10.331  0.2585 -3.1227 -1.6835
  112OSM    H4G11639   3.186   4.183  10.326 -0.6864 -2.4293 -0.3898
  112OSM    C5F11640   3.090   4.131  10.128  0.4120 -0.0229 -0.0499
  112OSM    H5F11641   2.987   4.121  10.087  0.4579 -1.2275  0.0906
  112OSM    H5G11642   3.127   4.027  10.137 -1.4734 -0.6933  0.4902
  112OSM    C6F11643   3.191   4.211  10.038 -0.0517  0.2317 -1.0493
  112OSM    H6F11644   3.291   4.202  10.085 -1.3353 -1.9176  1.5987
  112OSM    H6G11645   3.171   4.318  10.058 -0.0618  0.0818 -0.2135
  112OSM    C7F11646   3.186   4.171   9.894  0.4358 -0.6701  0.2102
  112OSM    H7F11647   3.125   4.078   9.888  1.0707 -1.0735 -0.1514
  112OSM    H7G11648   3.289   4.137   9.871  0.3710 -0.8966  0.2468
  112OSM    C8F11649   3.132   4.277   9.798  0.8786  0.3059  0.3255
  112OSM    H8F11650   3.060   4.330   9.863 -0.6391 -1.1925 -0.0603
  112OSM    H8G11651   3.076   4.218   9.723  1.8074 -0.4649  0.2047
  112OSM    C9F11652   3.245   4.361   9.737  0.5412 -0.6879  0.3449
  112OSM    H9F11653   3.307   4.408   9.814  0.6648 -1.0660  0.4769
  112OSM   C10F11654   3.258   4.385   9.605  0.0127  0.1821 -0.0238
  112OSM   H10F11655   3.340   4.451   9.573  0.5860  0.3666  1.7171
  112OSM   C11F11656   3.171   4.335   9.490  0.3118  0.3575  1.2413
  112OSM   H11F11657   3.145   4.428   9.436  2.2464 -0.2964 -1.0082
  112OSM   H11G11658   3.083   4.281   9.531 -0.0187  1.5021  2.0639
  112OSM   C12F11659   3.253   4.243   9.391  0.0485 -0.2221  0.5123
  112OSM   H12F11660   3.179   4.192   9.326  1.1151 -0.1745 -0.7965
  112OSM   H12G11661   3.300   4.167   9.457  0.0466  0.0228  0.7955
  112OSM   C13F11662   3.362   4.310   9.310 -0.2278 -0.2307  0.7734
  112OSM   H13F11663   3.450   4.243   9.308  0.3895  0.5350  1.5760
  112OSM   H13G11664   3.377   4.414   9.347  0.7926 -0.1545  0.1995
  112OSM   C14F11665   3.318   4.328   9.162  0.3465  0.2495 -0.3440
  112OSM   H14F11666   3.221   4.382   9.159 -0.1798 -0.6718 -0.2861
  112OSM   H14G11667   3.312   4.230   9.109  2.2082  2.0988 -4.4050
  112OSM   C15F11668   3.422   4.414   9.087 -0.0111 -0.1616 -0.0058
  112OSM   H15F11669   3.526   4.376   9.083  0.3993  0.9205  0.0512
  112OSM   H15G11670   3.427   4.517   9.129  1.7950  0.3612 -1.3984
  112OSM   C16F11671   3.372   4.438   8.946 -0.1357  0.5006 -0.2506
  112OSM   H16F11672   3.271   4.483   8.933 -1.5665 -2.8044 -1.9643
  112OSM   H16G11673   3.355   4.341   8.894 -3.1317  1.7634 -1.9022
  112OSM   C17F11674   3.467   4.524   8.855 -0.3397  0.3457 -0.7163
  112OSM   H17F11675   3.562   4.468   8.870 -0.2825  0.6747  0.2284
  112OSM   H17G11676   3.477   4.625   8.899 -0.8540 -0.4513  1.3830
  112OSM   C18F11677   3.448   4.541   8.711 -0.0948  0.7995  0.0577
  112OSM   H18F11678   3.375   4.620   8.683  1.1757  2.2149  0.5781
  112OSM   H18G11679   3.415   4.449   8.657  0.2065  2.9283 -4.2401
  112OSM   H18H11680   3.547   4.555   8.661  1.3749 -5.8495  0.2056
  113OSM      N11681   3.180   4.232  11.280 -0.5305  0.8535  0.0143
  113OSM    C1511682   3.125   4.113  11.356 -0.2008 -0.1772  0.1568
  113OSM   H15A11683   3.023   4.085  11.334  0.2964 -1.3148 -0.8286
  113OSM   H15B11684   3.121   4.135  11.461  0.5525  1.7372 -0.1690
  113OSM   H15C11685   3.177   4.022  11.330 -1.3106 -0.6735 -0.4006
  113OSM    C1411686   3.079   4.339  11.300 -0.3150 -0.2624 -0.2577
  113OSM   H14A11687   3.050   4.365  11.401 -1.5854  3.7105 -1.4497
  113OSM   H14B11688   2.982   4.304  11.268 -0.9092  1.7400 -0.8328
  113OSM   H14C11689   3.109   4.428  11.246  1.2436  0.4341  1.6507
  113OSM    C1311690   3.311   4.266  11.347 -0.1325  0.1382  0.6523
  113OSM   H13A11691   3.299   4.297  11.450 -1.3459  1.8652  0.0288
  113OSM   H13B11692   3.370   4.342  11.299  0.6625 -0.7987  0.0979
  113OSM   H13C11693   3.367   4.174  11.356 -1.5401 -0.7979  0.2553
  113OSM    C1211694   3.197   4.198  11.138  0.3043 -0.4309  0.2650
  113OSM   H12A11695   3.232   4.281  11.077 -1.4262 -1.6894 -2.6527
  113OSM   H12B11696   3.099   4.201  11.093 -0.1173  0.3621  1.2065
  113OSM    C1111697   3.271   4.070  11.107  0.2527 -0.0997 -0.3250
  113OSM   H11A11698   3.359   4.055  11.173 -0.2288 -1.9267 -0.0189
  113OSM   H11B11699   3.314   4.073  11.005  1.1243 -0.7381  0.0114
  113OSM      P11700   3.110   3.889  11.010  0.1948  0.0121 -0.1711
  113OSM    O1311701   3.029   3.786  11.066  0.1655 -0.4161 -0.7777
  113OSM    O1411702   3.043   3.992  10.927 -0.2219  0.1539 -0.1484
  113OSM    O1111703   3.222   3.832  10.932 -0.1812  0.0221  0.1981
  113OSM    O1211704   3.194   3.949  11.127  0.8084  0.7129 -0.4700
  113OSM    C1S11705   3.197   3.759  10.811 -0.0145  0.5348 -0.5749
  113OSM    H1S11706   3.097   3.781  10.769 -0.2740 -0.4470 -0.4944
  113OSM    H1T11707   3.205   3.650  10.832 -0.2155  0.4282 -1.0410
  113OSM     NF11708   3.254   3.729  10.581 -0.0731  0.0382  0.7050
  113OSM    HNF11709   3.303   3.649  10.547 -0.4678  0.2628 -0.4091
  113OSM    C2S11710   3.301   3.794  10.699  0.1411  0.4439 -0.3817
  113OSM    H2S11711   3.293   3.903  10.678 -2.9079  0.6088  1.0494
  113OSM    C3S11712   3.445   3.763  10.748 -0.0388  0.3680 -0.2828
  113OSM    H3S11713   3.464   3.655  10.765  1.2551  0.5555 -0.4350
  113OSM     O311714   3.494   3.832  10.864 -0.2104  0.2762  0.0545
  113OSM    HO311715   3.422   3.885  10.898  0.9056  0.9854  1.3748
  113OSM    C4S11716   3.546   3.805  10.645  0.0289 -0.1268 -0.5731
  113OSM    H4S11717   3.556   3.913  10.634  0.3362 -0.1830 -0.8511
  113OSM    C5S11718   3.626   3.715  10.581  0.0546 -0.0347 -0.1821
  113OSM    H5S11719   3.617   3.607  10.602 -0.8539  0.2089  0.7305
  113OSM    C6S11720   3.724   3.760  10.472 -0.2386  0.4048 -0.5068
  113OSM    H6S11721   3.824   3.780  10.516  0.2843 -3.1079  0.1454
  113OSM    H6T11722   3.683   3.852  10.425  2.0827  1.3722 -0.7538
  113OSM    C7S11723   3.742   3.655  10.365  0.2418  0.0955 -0.5758
  113OSM    H7S11724   3.642   3.633  10.322 -1.5614 -0.8195  3.5550
  113OSM    H7T11725   3.763   3.560  10.420  0.9447  1.2878  1.3367
  113OSM    C8S11726   3.849   3.694  10.257 -0.5080  0.9054 -0.1292
  113OSM    H8S11727   3.950   3.704  10.304 -0.1021  1.2702 -1.0592
  113OSM    H8T11728   3.816   3.794  10.222  2.1362  1.9736  0.1967
  113OSM    C9S11729   3.867   3.597  10.142  0.4083 -0.8022  0.6232
  113OSM    H9S11730   3.767   3.572  10.102 -0.1747  2.0299  0.1599
  113OSM    H9T11731   3.917   3.506  10.183  0.4048 -0.2406  1.9302
  113OSM   C10S11732   3.933   3.659  10.020  0.0532 -0.6041 -0.3792
  113OSM   H10S11733   4.025   3.717  10.043 -0.9468  0.6863  0.5285
  113OSM   H10T11734   3.859   3.733   9.983  1.9336  2.1954  1.0643
  113OSM   C11S11735   3.975   3.556   9.911 -0.7697  0.2891 -0.0647
  113OSM   H11S11736   3.892   3.487   9.885  0.4006 -0.6009 -1.5856
  113OSM   H11T11737   4.056   3.487   9.941 -0.9862 -0.9948 -2.1952
  113OSM   C12S11738   4.018   3.616   9.778 -0.3109 -0.3429 -0.1493
  113OSM   H12S11739   4.089   3.545   9.731 -0.0399  0.5868 -1.1809
  113OSM   H12T11740   4.071   3.710   9.806 -1.1478 -0.4868  2.1613
  113OSM   C13S11741   3.912   3.635   9.669  0.5214 -0.1431  0.1133
  113OSM   H13S11742   3.835   3.704   9.709 -2.1034 -0.4465 -3.8688
  113OSM   H13T11743   3.854   3.543   9.647  2.0517 -0.6337 -2.3102
  113OSM   C14S11744   3.965   3.672   9.530 -0.0910 -0.5373  0.2871
  113OSM   H14S11745   4.019   3.590   9.478 -1.7912 -0.9349 -0.9313
  113OSM   H14T11746   4.035   3.758   9.540 -0.3177 -0.5656  2.6635
  113OSM   C15S11747   3.855   3.720   9.422 -0.0253 -0.3126 -0.4446
  113OSM   H15S11748   3.789   3.802   9.458  1.8018  0.5137  1.2019
  113OSM   H15T11749   3.792   3.634   9.392 -1.6157  0.4837  0.4497
  113OSM   C16S11750   3.930   3.783   9.300 -0.0692  1.0473  0.1388
  113OSM   H16S11751   3.997   3.702   9.261 -1.0687  0.6558 -0.8179
  113OSM   H16T11752   3.983   3.871   9.340 -0.4309  1.1226  0.4502
  113OSM   C17S11753   3.829   3.813   9.182 -0.0961  0.6122 -0.5983
  113OSM   H17S11754   3.752   3.882   9.222 -1.8866 -1.5227 -0.1448
  113OSM   H17T11755   3.773   3.720   9.157 -0.3360  0.2697  1.0688
  113OSM   C18S11756   3.898   3.867   9.052  0.1782  0.4163 -0.5845
  113OSM   H18S11757   3.953   3.959   9.080  0.5601 -0.7478  3.0428
  113OSM   H18T11758   3.814   3.890   8.983  0.3310  0.2516 -0.8292
  113OSM   H18U11759   3.962   3.782   9.021 -0.7353 -1.1426  1.5714
  113OSM    C1F11760   3.150   3.778  10.512  0.6338 -1.4194  0.5215
  113OSM     OF11761   3.098   3.884  10.552  0.5105  0.2789  0.2056
  113OSM    C2F11762   3.107   3.733  10.381  0.2777 -0.3885  0.1559
  113OSM    H2F11763   3.159   3.638  10.351 -0.4150 -0.7438  0.0639
  113OSM    H2G11764   3.143   3.809  10.308  1.2245 -0.4779  0.5126
  113OSM    C3F11765   2.960   3.709  10.358  0.2255  0.5702 -0.7649
  113OSM    H3F11766   2.910   3.808  10.369  0.4658  0.4083  2.8610
  113OSM    H3G11767   2.919   3.650  10.442  1.7335  2.9782  1.8345
  113OSM    C4F11768   2.926   3.649  10.221  0.5645  0.6863 -0.3077
  113OSM    H4F11769   2.816   3.660  10.216  0.5432  1.6541  1.5186
  113OSM    H4G11770   2.949   3.540  10.231  1.2733  0.8488 -0.0803
  113OSM    C5F11771   3.001   3.707  10.102  0.4078 -0.0932  0.2701
  113OSM    H5F11772   3.107   3.678  10.090  1.2910  3.2353 -1.2239
  113OSM    H5G11773   3.003   3.818  10.116 -1.4018 -0.2205  2.0664
  113OSM    C6F11774   2.922   3.679   9.974  0.2346 -0.2360  0.1176
  113OSM    H6F11775   2.816   3.707   9.990  0.7476  1.7410  0.3130
  113OSM    H6G11776   2.943   3.574   9.943 -2.4235 -1.0984  1.0102
  113OSM    C7F11777   2.971   3.770   9.860  0.0199  1.0147  1.1428
  113OSM    H7F11778   3.069   3.722   9.840 -0.6509 -0.9055  2.1205
  113OSM    H7G11779   2.985   3.877   9.886  0.8207  1.2231 -0.0939
  113OSM    C8F11780   2.882   3.757   9.732  0.5863  0.3029 -0.1078
  113OSM    H8F11781   2.792   3.821   9.746  1.0879  0.7982  0.9978
  113OSM    H8G11782   2.850   3.651   9.724 -0.2316  0.6043 -1.0088
  113OSM    C9F11783   2.954   3.804   9.610 -0.3900  0.1544 -0.1143
  113OSM    H9F11784   2.945   3.907   9.574 -1.2475  0.8644  1.9633
  113OSM   C10F11785   3.027   3.722   9.535  0.2268 -0.3146  0.5576
  113OSM   H10F11786   3.051   3.757   9.434 -3.3918 -1.9431 -1.0309
  113OSM   C11F11787   3.052   3.580   9.553  0.3006 -0.8872  0.1014
  113OSM   H11F11788   3.042   3.546   9.658  1.0840 -1.1477  0.0995
  113OSM   H11G11789   3.157   3.557   9.526 -0.3065 -1.5951 -1.8144
  113OSM   C12F11790   2.954   3.489   9.457  0.1938  0.2057 -0.1247
  113OSM   H12F11791   2.854   3.524   9.490 -0.3888  0.9669 -2.5235
  113OSM   H12G11792   2.974   3.387   9.498 -0.7164  0.5291  1.1761
  113OSM   C13F11793   2.976   3.496   9.300 -0.4170  0.0044  0.7742
  113OSM   H13F11794   2.968   3.603   9.269 -1.7724 -0.3392 -0.1437
  113OSM   H13G11795   2.890   3.446   9.252  0.2761 -0.0632 -0.4353
  113OSM   C14F11796   3.103   3.435   9.227  0.3653 -0.6220 -1.0277
  113OSM   H14F11797   3.123   3.332   9.263 -1.5155 -0.4559  0.6446
  113OSM   H14G11798   3.185   3.508   9.248 -0.8649  0.7271 -0.7338
  113OSM   C15F11799   3.071   3.425   9.079 -0.1997 -0.0406 -0.3449
  113OSM   H15F11800   2.961   3.411   9.078  0.0386 -2.1963 -1.1591
  113OSM   H15G11801   3.118   3.336   9.031  0.1902 -0.0964  0.1222
  113OSM   C16F11802   3.102   3.561   9.001 -0.0636 -0.6130  0.4770
  113OSM   H16F11803   3.208   3.589   9.022 -0.6789  1.3352  1.2083
  113OSM   H16G11804   3.038   3.642   9.041  1.5009  2.5468 -2.7936
  113OSM   C17F11805   3.077   3.544   8.850 -0.3957  0.3365  0.2440
  113OSM   H17F11806   2.991   3.475   8.834 -0.0972 -0.3430  1.4541
  113OSM   H17G11807   3.173   3.502   8.815 -1.4350 -1.9998  0.0349
  113OSM   C18F11808   3.048   3.676   8.780  0.2128  0.4668 -0.7429
  113OSM   H18F11809   3.128   3.749   8.801 -0.5877  0.5166  2.8115
  113OSM   H18G11810   2.954   3.723   8.817  1.5102  1.0637  2.0148
  113OSM   H18H11811   3.047   3.650   8.672 -1.9494 -0.5026 -0.5596
  114OSM      N11812   3.167   2.347  11.962 -0.4730 -0.5237 -0.0205
  114OSM    C1511813   3.239   2.232  12.025  1.1733  0.3636 -0.5383
  114OSM   H15A11814   3.226   2.216  12.131 -2.2334 -2.5500 -1.1934
  114OSM   H15B11815   3.345   2.235  12.007  1.6983  1.2098  2.2207
  114OSM   H15C11816   3.208   2.135  11.988  1.3903  0.4706 -1.0078
  114OSM    C1411817   3.026   2.337  12.001 -0.4202  0.2272  0.0332
  114OSM   H14A11818   2.988   2.242  11.967  1.0668 -1.0562  1.7021
  114OSM   H14B11819   2.965   2.416  11.961 -2.0446 -0.1012  1.7047
  114OSM   H14C11820   3.015   2.330  12.108 -3.7958  1.2304 -0.1500
  114OSM    C1311821   3.218   2.480  12.019 -0.0441  0.0898 -0.0064
  114OSM   H13A11822   3.142   2.544  11.977 -0.2655 -2.0206 -3.1711
  114OSM   H13B11823   3.317   2.501  11.983  0.1430  1.8443  1.4251
  114OSM   H13C11824   3.215   2.483  12.127 -1.4825  0.6109 -0.0374
  114OSM    C1211825   3.184   2.343  11.815 -0.0736 -0.4909 -0.4784
  114OSM   H12A11826   3.290   2.335  11.793  0.1688  0.2647  0.3785
  114OSM   H12B11827   3.149   2.436  11.775 -0.4537 -0.2732  0.3418
  114OSM    C1111828   3.116   2.221  11.751 -0.1433  0.1937  0.4324
  114OSM   H11A11829   3.009   2.210  11.776  0.0482 -1.0682  0.7581
  114OSM   H11B11830   3.170   2.134  11.793  0.3578 -0.7650 -2.0116
  114OSM      P11831   3.019   2.261  11.506 -0.2452  0.4669  0.3604
  114OSM    O1311832   2.948   2.136  11.483  0.6523  0.6077  0.2155
  114OSM    O1411833   2.941   2.383  11.529  0.0059  0.2962  0.2074
  114OSM    O1111834   3.111   2.276  11.380  0.1938 -0.1489  0.0929
  114OSM    O1211835   3.132   2.240  11.611  0.0384  0.1372 -0.2797
  114OSM    C1S11836   3.061   2.364  11.276 -0.4251 -0.2712 -0.7472
  114OSM    H1S11837   3.089   2.469  11.297 -0.0730 -0.2097 -1.5118
  114OSM    H1T11838   2.954   2.343  11.255 -1.4039  0.7418  2.6560
  114OSM     NF11839   3.059   2.418  11.033 -0.1942  0.8610  0.4504
  114OSM    HNF11840   3.020   2.358  10.963 -2.7212 -1.9477  3.8990
  114OSM    C2S11841   3.135   2.347  11.141  0.0866 -0.2288  0.2861
  114OSM    H2S11842   3.232   2.399  11.157 -0.7056  0.7535  2.0452
  114OSM    C3S11843   3.174   2.194  11.122 -0.1675  0.0958  0.7671
  114OSM    H3S11844   3.082   2.131  11.122 -0.5571  0.5182 -2.2285
  114OSM     O311845   3.267   2.140  11.218 -0.4896 -0.3133  0.3171
  114OSM    HO311846   3.247   2.187  11.300 -2.3967 -0.2833 -0.1337
  114OSM    C4S11847   3.245   2.186  10.994  0.0278 -0.0814 -0.1820
  114OSM    H4S11848   3.331   2.255  10.991  0.4174 -0.5027  0.9719
  114OSM    C5S11849   3.205   2.116  10.885  0.0303 -0.2667  0.6910
  114OSM    H5S11850   3.127   2.040  10.892 -1.0107  0.6620 -0.3136
  114OSM    C6S11851   3.276   2.116  10.752 -0.2810  1.2668  0.0470
  114OSM    H6S11852   3.199   2.098  10.674 -0.2687  4.3649 -0.7934
  114OSM    H6T11853   3.344   2.028  10.753 -1.6761  0.1323  1.9538
  114OSM    C7S11854   3.368   2.229  10.711 -0.4428 -0.7779 -0.3613
  114OSM    H7S11855   3.446   2.250  10.787 -1.2152 -0.7161  0.4223
  114OSM    H7T11856   3.301   2.317  10.700  1.6133  1.5892  3.6640
  114OSM    C8S11857   3.439   2.205  10.578  0.2880  0.2091 -0.6933
  114OSM    H8S11858   3.478   2.304  10.547 -1.5885  0.4075 -2.6972
  114OSM    H8T11859   3.356   2.169  10.513 -0.2670 -1.1788  0.7226
  114OSM    C9S11860   3.550   2.101  10.579 -0.6991 -0.4656 -0.4688
  114OSM    H9S11861   3.513   2.014  10.637  0.9264 -1.2857 -0.6026
  114OSM    H9T11862   3.633   2.152  10.632 -2.7665  0.7629  1.8179
  114OSM   C10S11863   3.583   2.054  10.436  0.7583 -0.0662  0.3667
  114OSM   H10S11864   3.487   2.047  10.379  2.2980  0.4206 -2.4783
  114OSM   H10T11865   3.637   1.958  10.444  0.6710 -0.0372  1.3567
  114OSM   C11S11866   3.683   2.146  10.363 -0.6000 -0.2449  0.1979
  114OSM   H11S11867   3.781   2.138  10.415 -1.2316 -2.0439  1.2016
  114OSM   H11T11868   3.643   2.248  10.349  2.5429  1.1826  0.6273
  114OSM   C12S11869   3.698   2.098  10.214 -0.3256 -0.6847 -0.1858
  114OSM   H12S11870   3.595   2.119  10.179 -0.7699 -0.6008  1.1368
  114OSM   H12T11871   3.721   1.989  10.209  4.1144  0.0370  0.8187
  114OSM   C13S11872   3.802   2.174  10.128 -0.1134 -0.1635  0.6139
  114OSM   H13S11873   3.906   2.151  10.161  0.2784 -1.1612 -1.1727
  114OSM   H13T11874   3.788   2.281  10.152 -0.7217 -0.5925  2.3711
  114OSM   C14S11875   3.794   2.147   9.977 -0.1978 -0.4970 -0.4104
  114OSM   H14S11876   3.696   2.170   9.930  0.3292 -0.7026 -1.6331
  114OSM   H14T11877   3.810   2.041   9.951  0.0198 -0.6276  0.2367
  114OSM   C15S11878   3.902   2.227   9.898  0.5244  0.1335 -0.0389
  114OSM   H15S11879   3.996   2.197   9.949  1.3720  0.2933 -1.4791
  114OSM   H15T11880   3.880   2.335   9.916 -2.0497 -0.5282  1.3383
  114OSM   C16S11881   3.916   2.171   9.755 -0.2914 -0.3547  0.2481
  114OSM   H16S11882   3.827   2.184   9.690 -1.1059  1.0668  1.5592
  114OSM   H16T11883   3.934   2.062   9.764 -0.3062 -0.2280  2.6982
  114OSM   C17S11884   4.035   2.244   9.693 -0.2166 -0.0606  1.1023
  114OSM   H17S11885   4.123   2.211   9.753  0.6364 -2.3888 -1.2309
  114OSM   H17T11886   4.023   2.354   9.701  1.6984  0.2489  0.1828
  114OSM   C18S11887   4.072   2.206   9.545 -0.2047 -0.3544  0.3440
  114OSM   H18S11888   4.181   2.222   9.532 -0.2262 -1.0635 -0.8637
  114OSM   H18T11889   4.007   2.262   9.474 -0.0043  0.9685  1.1539
  114OSM   H18U11890   4.040   2.100   9.539 -0.3541 -0.2775 -0.2365
  114OSM    C1F11891   3.045   2.548  11.036  0.0160  0.1394  0.9618
  114OSM     OF11892   3.126   2.614  11.106  0.0925 -0.5056  0.2123
  114OSM    C2F11893   2.922   2.597  10.972  0.1106  0.3367  0.7009
  114OSM    H2F11894   2.844   2.595  11.051  0.8936 -0.6184  1.4757
  114OSM    H2G11895   2.893   2.532  10.886  3.0398 -0.7235  0.4146
  114OSM    C3F11896   2.929   2.750  10.938 -0.3641 -0.4755 -0.3463
  114OSM    H3F11897   2.974   2.816  11.015  2.3118 -0.5409 -1.7341
  114OSM    H3G11898   2.823   2.782  10.933 -0.1925 -0.0760 -3.0921
  114OSM    C4F11899   3.005   2.777  10.811  0.2285  0.3175  0.3821
  114OSM    H4F11900   3.108   2.745  10.837  0.1835  0.6315  0.9369
  114OSM    H4G11901   3.004   2.883  10.778  1.0547  0.3767  0.5264
  114OSM    C5F11902   2.967   2.698  10.682  0.4276 -0.0862  0.6798
  114OSM    H5F11903   2.857   2.683  10.695  0.2400 -0.0608 -0.6870
  114OSM    H5G11904   3.003   2.593  10.684 -0.2270 -0.3760 -0.8651
  114OSM    C6F11905   3.000   2.769  10.551 -0.1052  0.1390  0.0014
  114OSM    H6F11906   2.966   2.874  10.540 -1.4384 -0.4907 -2.8854
  114OSM    H6G11907   2.943   2.708  10.477 -0.7649 -0.1311  0.7150
  114OSM    C7F11908   3.148   2.767  10.506  0.6265 -0.1587 -0.2250
  114OSM    H7F11909   3.178   2.660  10.502 -1.4499 -0.9140  2.1209
  114OSM    H7G11910   3.193   2.820  10.593 -2.9805  0.0884  1.6851
  114OSM    C8F11911   3.175   2.838  10.376 -0.4297  0.0598  0.4521
  114OSM    H8F11912   3.283   2.834  10.351 -0.7481 -0.3234 -0.9537
  114OSM    H8G11913   3.159   2.948  10.372  1.0166  0.2781  0.2169
  114OSM    C9F11914   3.129   2.762  10.262  0.2625  0.4360  0.0038
  114OSM    H9F11915   3.135   2.652  10.263 -0.7904  0.3642 -0.4609
  114OSM   C10F11916   3.106   2.809  10.138  0.3625 -0.1042  0.0153
  114OSM   H10F11917   3.068   2.743  10.059  2.3476 -0.4956 -0.6671
  114OSM   C11F11918   3.124   2.951  10.112  0.0122  0.0375  0.1141
  114OSM   H11F11919   3.221   2.988  10.152  0.0106  1.0538 -0.7782
  114OSM   H11G11920   3.036   3.007  10.152 -0.9210 -0.2234 -1.4980
  114OSM   C12F11921   3.127   2.983   9.959  0.4654  0.0127  0.3248
  114OSM   H12F11922   3.138   3.094   9.952 -2.5416  0.4288  0.6847
  114OSM   H12G11923   3.024   2.965   9.920 -0.0286  1.5114  0.8584
  114OSM   C13F11924   3.235   2.912   9.870  0.1102  1.0479 -0.0225
  114OSM   H13F11925   3.237   2.804   9.897 -1.2910  0.8359 -0.6857
  114OSM   H13G11926   3.337   2.950   9.894  0.2111  1.1906 -0.6680
  114OSM   C14F11927   3.202   2.932   9.722  0.0374 -0.7846 -0.0191
  114OSM   H14F11928   3.164   3.035   9.703 -0.3077 -0.9995 -0.5238
  114OSM   H14G11929   3.121   2.858   9.701 -1.3954  0.5038  0.7278
  114OSM   C15F11930   3.325   2.913   9.634 -0.4085  0.6281  1.0765
  114OSM   H15F11931   3.379   2.816   9.646 -1.3605  0.1125  1.2489
  114OSM   H15G11932   3.400   2.994   9.649 -1.2309  1.7453 -0.4977
  114OSM   C16F11933   3.291   2.916   9.485  0.2887  0.4403  0.4246
  114OSM   H16F11934   3.388   2.926   9.432 -1.4057 -1.0057 -3.2589
  114OSM   H16G11935   3.230   3.005   9.460  1.4487  1.3684  0.7634
  114OSM   C17F11936   3.231   2.788   9.431  0.0603 -0.1917 -0.4945
  114OSM   H17F11937   3.133   2.761   9.474  0.5708 -1.8592 -0.2874
  114OSM   H17G11938   3.300   2.705   9.457  0.9202 -0.1386 -2.3904
  114OSM   C18F11939   3.217   2.785   9.280 -0.2855 -0.3528 -0.0843
  114OSM   H18F11940   3.152   2.865   9.239  0.7477 -0.2039 -1.5056
  114OSM   H18G11941   3.172   2.691   9.241 -1.1643  1.4003 -3.6643
  114OSM   H18H11942   3.315   2.783   9.227 -0.8915 -2.8330 -1.2406
  115OSM      N11943   6.085   5.758   5.993 -0.0683 -0.5838 -0.1751
  115OSM    C1511944   5.984   5.837   5.912 -0.1286  0.5803 -0.1479
  115OSM   H15A11945   5.884   5.816   5.947 -0.6541  1.7635 -0.8813
  115OSM   H15B11946   5.990   5.809   5.807 -0.8408  1.3443 -0.4018
  115OSM   H15C11947   5.998   5.941   5.933  0.2690  0.3730  0.6253
  115OSM    C1411948   6.072   5.606   5.993  0.2109 -0.1015 -0.5984
  115OSM   H14A11949   6.119   5.573   6.085 -1.6496  3.3286  1.8467
  115OSM   H14B11950   6.110   5.558   5.904 -0.2284 -1.0117 -0.3069
  115OSM   H14C11951   5.968   5.580   6.004  0.2259  0.2172  0.4160
  115OSM    C1311952   6.222   5.805   5.947  0.4610 -0.4839  0.8586
  115OSM   H13A11953   6.226   5.913   5.951  1.1045 -0.5179  1.4224
  115OSM   H13B11954   6.249   5.775   5.847 -3.3388 -2.9760  0.3506
  115OSM   H13C11955   6.294   5.778   6.023 -0.0516  0.2096  1.6139
  115OSM    C1211956   6.064   5.804   6.143 -0.2779 -0.6392  0.6184
  115OSM   H12A11957   6.072   5.911   6.149 -1.4152 -0.4375 -0.8095
  115OSM   H12B11958   6.139   5.757   6.205  1.3941 -2.5509 -2.5531
  115OSM    C1111959   5.932   5.767   6.219 -0.2543 -0.1413  0.0269
  115OSM   H11A11960   5.945   5.786   6.327  0.5941 -1.2941  0.1497
  115OSM   H11B11961   5.914   5.658   6.200  0.8004  0.0281 -2.2957
  115OSM      P11962   5.779   5.975   6.199  0.1559 -0.0302  0.3311
  115OSM    O1311963   5.865   6.066   6.129  0.1469 -0.2340  0.8787
  115OSM    O1411964   5.637   5.997   6.171 -0.9381 -0.1094  0.2819
  115OSM    O1111965   5.802   5.985   6.354  0.0122 -0.1208  0.5319
  115OSM    O1211966   5.820   5.832   6.163 -0.1044  0.7226 -0.1769
  115OSM    C1S11967   5.704   5.931   6.443  0.0186  0.3296 -0.0136
  115OSM    H1S11968   5.737   5.826   6.453  2.4853  0.6538 -3.0792
  115OSM    H1T11969   5.598   5.929   6.412  0.5640  1.8281 -2.2314
  115OSM     NF11970   5.645   5.914   6.684  0.6459  0.2815 -0.1024
  115OSM    HNF11971   5.553   5.942   6.709 -0.1497 -0.6206 -1.7773
  115OSM    C2S11972   5.707   6.001   6.577 -0.4337 -0.0815  0.4195
  115OSM    H2S11973   5.814   6.009   6.608 -0.0739  1.0808 -1.0191
  115OSM    C3S11974   5.646   6.141   6.561  0.2501  0.0915  0.0932
  115OSM    H3S11975   5.539   6.135   6.531 -0.0404  1.7531  0.6521
  115OSM     O311976   5.702   6.229   6.462  0.0866  0.0557 -0.1547
  115OSM    HO311977   5.768   6.178   6.414  0.0643 -0.2898  0.1863
  115OSM    C4S11978   5.648   6.208   6.700 -0.6699 -0.0657  0.4785
  115OSM    H4S11979   5.562   6.189   6.764 -0.4689  1.2442  1.1650
  115OSM    C5S11980   5.753   6.279   6.750 -0.2199  0.6896 -0.7254
  115OSM    H5S11981   5.838   6.294   6.682  1.3526 -0.4028  0.9053
  115OSM    C6S11982   5.763   6.344   6.883 -0.7130 -0.6414  0.3628
  115OSM    H6S11983   5.757   6.455   6.881  2.0572 -0.4116  1.0358
  115OSM    H6T11984   5.864   6.318   6.921 -0.4126 -0.6185 -0.3944
  115OSM    C7S11985   5.675   6.294   6.992  0.1214 -0.0008  0.1708
  115OSM    H7S11986   5.705   6.192   7.025  2.1407  1.2927  2.8211
  115OSM    H7T11987   5.567   6.302   6.969  0.2611 -0.5751 -0.7016
  115OSM    C8S11988   5.699   6.366   7.125  0.3348 -0.5764  0.1746
  115OSM    H8S11989   5.671   6.473   7.116  1.7135 -0.3519 -3.1277
  115OSM    H8T11990   5.808   6.360   7.146 -0.1612 -0.0334  3.2977
  115OSM    C9S11991   5.612   6.308   7.243 -1.1392 -0.3328  0.0271
  115OSM    H9S11992   5.655   6.209   7.270 -2.9478 -1.7155 -1.9087
  115OSM    H9T11993   5.509   6.298   7.203 -1.0894 -0.2436 -0.1217
  115OSM   C10S11994   5.598   6.410   7.362 -0.2820 -0.2400 -0.1235
  115OSM   H10S11995   5.542   6.492   7.313 -1.2109 -0.9093 -0.2028
  115OSM   H10T11996   5.694   6.452   7.400 -1.3511  2.8770 -0.6440
  115OSM   C11S11997   5.505   6.353   7.462  0.3755  0.0383  0.1384
  115OSM   H11S11998   5.546   6.260   7.507  2.6498  1.2780  0.7811
  115OSM   H11T11999   5.413   6.315   7.412 -0.2628  2.9372 -1.0912
  115OSM   C12S12000   5.474   6.449   7.577 -0.3305 -0.5774 -0.0960
  115OSM   H12S12001   5.385   6.420   7.636 -0.3871  0.2436  0.2346
  115OSM   H12T12002   5.448   6.543   7.524 -0.7089 -1.0521 -0.7644
  115OSM   C13S12003   5.597   6.468   7.679 -0.3438  0.8973 -0.5214
  115OSM   H13S12004   5.683   6.518   7.629 -0.6860  1.2233 -0.7851
  115OSM   H13T12005   5.626   6.365   7.710 -2.0005  1.3177  2.8071
  115OSM   C14S12006   5.554   6.546   7.802 -0.5847  0.1140  0.5689
  115OSM   H14S12007   5.513   6.642   7.765 -1.2898 -1.1324 -2.1245
  115OSM   H14T12008   5.642   6.559   7.869  0.7012 -0.2961 -0.9775
  115OSM   C15S12009   5.445   6.465   7.889 -0.4511 -0.2258  0.5208
  115OSM   H15S12010   5.492   6.371   7.925  0.2278  0.4201  1.3946
  115OSM   H15T12011   5.356   6.441   7.827 -0.0713  1.5684 -0.7745
  115OSM   C16S12012   5.409   6.557   8.008  0.1280  0.6127  0.0778
  115OSM   H16S12013   5.340   6.635   7.969 -0.5350  0.4807  0.9591
  115OSM   H16T12014   5.497   6.595   8.064  0.1510 -0.6479  0.9369
  115OSM   C17S12015   5.323   6.478   8.115 -0.5751 -0.2690 -0.6637
  115OSM   H17S12016   5.255   6.409   8.061 -0.4089  1.2574 -2.9638
  115OSM   H17T12017   5.268   6.557   8.171 -1.2013  0.3379 -2.0781
  115OSM   C18S12018   5.410   6.398   8.212  0.2691  0.1444  0.2373
  115OSM   H18S12019   5.351   6.320   8.264  0.9120 -3.5329 -3.9321
  115OSM   H18T12020   5.456   6.461   8.291 -2.2695  0.5214  1.5148
  115OSM   H18U12021   5.493   6.341   8.164  0.1272 -0.4357  0.6689
  115OSM    C1F12022   5.695   5.803   6.727 -0.3112 -0.2520  0.7212
  115OSM     OF12023   5.794   5.759   6.674  0.2896 -0.2433 -0.4751
  115OSM    C2F12024   5.617   5.727   6.833  0.3963  0.1647 -0.1867
  115OSM    H2F12025   5.583   5.628   6.797 -3.9362  0.5993  2.0635
  115OSM    H2G12026   5.523   5.781   6.855  0.5829 -0.2794  1.9134
  115OSM    C3F12027   5.697   5.722   6.971 -0.0844  0.3692 -0.1662
  115OSM    H3F12028   5.695   5.830   6.997 -0.4788  0.2994  0.1188
  115OSM    H3G12029   5.797   5.676   6.955  0.6278  1.1227  1.8141
  115OSM    C4F12030   5.622   5.646   7.087 -0.0802  0.6017  0.2830
  115OSM    H4F12031   5.645   5.542   7.055  0.5628  1.0654 -0.8295
  115OSM    H4G12032   5.512   5.648   7.070  0.0783 -1.3119 -1.2749
  115OSM    C5F12033   5.663   5.688   7.226 -0.0115 -0.7357 -0.7897
  115OSM    H5F12034   5.773   5.674   7.232 -0.0456 -1.6628 -2.0177
  115OSM    H5G12035   5.619   5.620   7.302  0.1155 -1.0687 -1.0115
  115OSM    C6F12036   5.613   5.831   7.271  0.1790  0.0732 -0.0361
  115OSM    H6F12037   5.502   5.838   7.272  0.1258 -0.3922 -1.2434
  115OSM    H6G12038   5.661   5.905   7.203  4.1257 -2.0329  0.1968
  115OSM    C7F12039   5.663   5.882   7.410  0.1151  0.6362 -0.2085
  115OSM    H7F12040   5.646   5.991   7.423  0.5689  0.5404  1.3729
  115OSM    H7G12041   5.771   5.859   7.420 -0.7121 -3.2642  1.5065
  115OSM    C8F12042   5.605   5.813   7.534 -0.5134 -0.2988 -0.3420
  115OSM    H8F12043   5.680   5.820   7.615  0.6940 -0.3425 -1.4200
  115OSM    H8G12044   5.594   5.704   7.516 -0.0383 -0.1692 -1.5595
  115OSM    C9F12045   5.480   5.865   7.591 -0.0470 -0.5711  0.3536
  115OSM    H9F12046   5.384   5.823   7.555 -0.3205  0.6849 -0.4224
  115OSM   C10F12047   5.462   5.960   7.683  0.1504 -0.5413  0.1842
  115OSM   H10F12048   5.364   5.968   7.730 -0.8658 -1.8393 -1.5757
  115OSM   C11F12049   5.570   6.039   7.750 -0.3019 -0.0221 -0.4251
  115OSM   H11F12050   5.559   6.149   7.744 -0.9078 -0.0933 -0.7513
  115OSM   H11G12051   5.671   6.037   7.705 -0.0809  1.9429 -0.1049
  115OSM   C12F12052   5.598   5.984   7.900 -0.1579 -0.0901  0.0930
  115OSM   H12F12053   5.690   6.040   7.930 -0.2756  0.0837  0.1271
  115OSM   H12G12054   5.620   5.877   7.881 -0.5004  0.2533 -2.5110
  115OSM   C13F12055   5.494   6.011   8.008 -0.2947  0.3744  0.2628
  115OSM   H13F12056   5.403   5.950   7.990  1.1511 -1.2855 -2.1737
  115OSM   H13G12057   5.468   6.119   8.004 -1.3262  0.1635  0.8757
  115OSM   C14F12058   5.525   5.973   8.151 -0.3707  0.2981  0.4206
  115OSM   H14F12059   5.435   5.960   8.214 -0.7549 -0.3028 -0.2383
  115OSM   H14G12060   5.586   6.057   8.191  0.5321 -0.4723  0.6930
  115OSM   C15F12061   5.601   5.839   8.168  0.1742 -0.4359  0.3350
  115OSM   H15F12062   5.690   5.824   8.103  0.1255 -0.6113  0.3097
  115OSM   H15G12063   5.525   5.766   8.134 -0.8166  0.2905  0.9164
  115OSM   C16F12064   5.644   5.811   8.315 -0.5048 -0.2280 -1.0440
  115OSM   H16F12065   5.560   5.834   8.383  0.7893 -0.4530  0.7096
  115OSM   H16G12066   5.727   5.881   8.341  1.2446 -2.6997  0.5036
  115OSM   C17F12067   5.717   5.672   8.332 -0.1498  0.0432  0.0023
  115OSM   H17F12068   5.789   5.662   8.248  0.4051 -0.4737  0.5264
  115OSM   H17G12069   5.639   5.594   8.317 -1.7575  1.1660  2.0293
  115OSM   C18F12070   5.785   5.636   8.464 -0.0909 -0.5295 -0.1164
  115OSM   H18F12071   5.719   5.643   8.553  0.9303  0.3055  0.6030
  115OSM   H18G12072   5.869   5.707   8.481  0.5787 -1.5017  0.7627
  115OSM   H18H12073   5.823   5.533   8.449  0.1572 -0.2469 -1.5933
  116OSM      N12074   6.318   3.575   6.059 -0.7049  0.5494 -0.3573
  116OSM    C1512075   6.337   3.617   6.197  0.2714 -0.0990 -0.2605
  116OSM   H15A12076   6.421   3.572   6.246  0.7818  0.5228 -0.5537
  116OSM   H15B12077   6.245   3.603   6.252 -0.2720 -0.3268 -1.1987
  116OSM   H15C12078   6.360   3.723   6.201  1.2832 -0.3312  0.3413
  116OSM    C1412079   6.213   3.669   5.989  0.2570  0.1671 -0.3997
  116OSM   H14A12080   6.245   3.772   5.996 -1.5750  0.8158 -1.0543
  116OSM   H14B12081   6.115   3.673   6.034  1.1990  0.5905  1.7408
  116OSM   H14C12082   6.193   3.644   5.886 -0.3447  1.2379 -0.5651
  116OSM    C1312083   6.446   3.586   5.983  0.0414  0.0557  0.1169
  116OSM   H13A12084   6.432   3.563   5.878 -0.1000 -2.8332  0.6652
  116OSM   H13B12085   6.509   3.507   6.020 -0.3877 -0.4476 -0.2057
  116OSM   H13C12086   6.500   3.678   5.997 -0.5295  0.6178 -1.1757
  116OSM    C1212087   6.262   3.435   6.061  0.6614 -0.2868  0.0528
  116OSM   H12A12088   6.312   3.366   6.127  0.9041  1.5054  1.8427
  116OSM   H12B12089   6.266   3.389   5.963  0.5222 -0.0095 -0.0860
  116OSM    C1112090   6.112   3.418   6.103 -0.3419  0.5440  0.3476
  116OSM   H11A12091   6.082   3.313   6.084 -0.8326  0.7596 -0.1181
  116OSM   H11B12092   6.044   3.477   6.038 -0.5404 -2.2919 -2.2430
  116OSM      P12093   5.979   3.526   6.286  0.3031 -0.1192 -0.5302
  116OSM    O1312094   5.974   3.655   6.216 -0.0449 -0.0788 -0.5383
  116OSM    O1412095   5.866   3.442   6.265  0.3704 -0.4823  0.5158
  116OSM    O1112096   6.000   3.549   6.440 -0.0245 -0.1404  0.2494
  116OSM    O1212097   6.103   3.444   6.238 -0.2508 -1.0898 -0.3178
  116OSM    C1S12098   6.094   3.485   6.523 -0.8412 -0.1039  0.1752
  116OSM    H1S12099   6.194   3.473   6.475 -0.9010  0.3551 -0.0627
  116OSM    H1T12100   6.072   3.377   6.535  2.5138 -1.1653 -1.7683
  116OSM     NF12101   6.210   3.499   6.741  0.2630 -0.1842 -0.0260
  116OSM    HNF12102   6.185   3.462   6.830  1.1132  1.5883  0.9929
  116OSM    C2S12103   6.102   3.557   6.660 -0.6504  0.2234 -0.4396
  116OSM    H2S12104   6.119   3.666   6.650 -0.6000  0.3275  0.6723
  116OSM    C3S12105   5.957   3.551   6.727  0.5171 -0.0405 -0.1712
  116OSM    H3S12106   5.942   3.447   6.763 -1.5022  0.4606  0.5896
  116OSM     O312107   5.834   3.569   6.647  0.0971  0.0495 -0.5683
  116OSM    HO312108   5.876   3.595   6.564  0.4888  0.2827 -0.2998
  116OSM    C4S12109   5.958   3.641   6.847  0.0709 -0.3122 -0.4116
  116OSM    H4S12110   5.993   3.592   6.939  0.2215 -1.3703 -1.0190
  116OSM    C5S12111   5.914   3.766   6.854 -0.2431  0.5110  0.3159
  116OSM    H5S12112   5.893   3.819   6.760  2.6693  0.3782 -0.5101
  116OSM    C6S12113   5.909   3.841   6.984 -0.1146  0.1121 -0.2847
  116OSM    H6S12114   5.813   3.897   6.983 -0.1994 -0.0124  0.4857
  116OSM    H6T12115   5.993   3.914   6.984 -1.1628  1.3770  0.9663
  116OSM    C7S12116   5.907   3.771   7.124  0.1679  0.0558  0.6773
  116OSM    H7S12117   5.973   3.682   7.123 -0.8216 -0.7868 -2.2992
  116OSM    H7T12118   5.801   3.735   7.125 -0.4410  1.7263  2.3832
  116OSM    C8S12119   5.939   3.869   7.239  0.6326  0.3245  1.2027
  116OSM    H8S12120   5.862   3.947   7.220  0.6222  0.0044 -0.1738
  116OSM    H8T12121   6.042   3.905   7.216  0.2392  0.7777  0.0551
  116OSM    C9S12122   5.938   3.815   7.377  1.0585  0.3676  0.0929
  116OSM    H9S12123   6.007   3.728   7.383  1.4224  0.5137 -1.4810
  116OSM    H9T12124   5.835   3.779   7.396  1.9659 -2.8647 -0.4175
  116OSM   C10S12125   5.972   3.922   7.482  0.2100 -0.0662 -0.4916
  116OSM   H10S12126   5.917   4.018   7.473  2.0606  0.9372 -1.5036
  116OSM   H10T12127   6.079   3.948   7.469  0.4142 -0.7241 -0.1927
  116OSM   C11S12128   5.953   3.869   7.627 -0.4886 -0.6104 -0.6507
  116OSM   H11S12129   6.040   3.804   7.649  1.4340  2.3868  1.3604
  116OSM   H11T12130   5.863   3.804   7.630  0.6092 -2.1699 -0.3966
  116OSM   C12S12131   5.951   3.971   7.731  0.7467  0.3485  0.2684
  116OSM   H12S12132   5.864   4.040   7.726  0.3692 -0.1830 -0.8233
  116OSM   H12T12133   6.041   4.036   7.722  0.3179  0.7401 -1.4948
  116OSM   C13S12134   5.959   3.922   7.884  0.5000 -0.1778  0.4251
  116OSM   H13S12135   6.034   3.841   7.894  1.6115  0.8113  0.3036
  116OSM   H13T12136   5.854   3.894   7.907  1.2193 -2.9112  0.7787
  116OSM   C14S12137   5.996   4.043   7.976 -0.1888 -0.1925 -0.2195
  116OSM   H14S12138   5.914   4.117   7.958 -0.0740  0.3403  1.3448
  116OSM   H14T12139   6.096   4.083   7.951  0.1357 -0.8390  0.0314
  116OSM   C15S12140   5.987   4.002   8.121 -0.7618  0.7733 -0.6635
  116OSM   H15S12141   5.890   3.956   8.147  0.7332 -0.4741  3.4768
  116OSM   H15T12142   5.989   4.094   8.184 -0.6878  0.6770 -0.5245
  116OSM   C16S12143   6.098   3.904   8.159  0.7853 -0.0285  0.1132
  116OSM   H16S12144   6.192   3.934   8.108  0.2798 -1.2578 -1.6662
  116OSM   H16T12145   6.072   3.808   8.110 -1.2386  0.2948  0.4831
  116OSM   C17S12146   6.114   3.876   8.310  0.1142 -0.4227  0.3513
  116OSM   H17S12147   6.137   3.965   8.372  2.6996 -0.7176 -0.0625
  116OSM   H17T12148   6.207   3.816   8.312  0.6967  0.3895 -1.1344
  116OSM   C18S12149   5.995   3.798   8.366 -0.0333 -0.1567 -0.2367
  116OSM   H18S12150   5.966   3.719   8.294  3.9859 -1.3103 -0.8463
  116OSM   H18T12151   5.907   3.864   8.384 -0.6632 -0.8429 -0.7100
  116OSM   H18U12152   6.024   3.753   8.463  2.3430 -1.0247 -1.2874
  116OSM    C1F12153   6.334   3.501   6.705 -0.4696  0.8428  0.0917
  116OSM     OF12154   6.382   3.560   6.609  0.2908 -0.4960  0.2320
  116OSM    C2F12155   6.423   3.417   6.789  0.5329  0.0431  0.1352
  116OSM    H2F12156   6.381   3.314   6.778  1.3007 -0.1909 -0.7706
  116OSM    H2G12157   6.398   3.453   6.891 -1.3154 -0.8095  0.0368
  116OSM    C3F12158   6.570   3.422   6.751  0.0493  0.4074 -0.3490
  116OSM    H3F12159   6.613   3.523   6.735  1.2649  0.1423  1.0920
  116OSM    H3G12160   6.565   3.373   6.651 -5.4500  1.1791 -0.7881
  116OSM    C4F12161   6.666   3.351   6.846 -0.1407 -0.2790  0.3213
  116OSM    H4F12162   6.764   3.332   6.798  1.0129  1.6174  1.7493
  116OSM    H4G12163   6.621   3.256   6.881 -0.0849 -0.0885  0.9314
  116OSM    C5F12164   6.704   3.432   6.975 -0.0025  0.0486 -0.6379
  116OSM    H5F12165   6.757   3.359   7.040  2.0816  1.7556 -0.3124
  116OSM    H5G12166   6.616   3.452   7.039 -1.9653 -3.1156 -2.0657
  116OSM    C6F12167   6.781   3.560   6.942 -0.2911 -0.4484  0.7861
  116OSM    H6F12168   6.721   3.618   6.869 -0.2640 -2.3847 -0.8816
  116OSM    H6G12169   6.873   3.541   6.883  0.1795  1.9982  0.6572
  116OSM    C7F12170   6.810   3.663   7.056  0.4111  1.1247 -0.6731
  116OSM    H7F12171   6.718   3.712   7.094  1.6133  0.9887  2.6905
  116OSM    H7G12172   6.861   3.747   7.005  2.3651 -0.2814 -1.1739
  116OSM    C8F12173   6.866   3.596   7.183 -0.5394 -0.1079 -0.3975
  116OSM    H8F12174   6.944   3.524   7.150 -0.9039 -0.8760  0.3790
  116OSM    H8G12175   6.799   3.531   7.243  0.5387 -0.4354  0.4798
  116OSM    C9F12176   6.923   3.706   7.272 -0.0718 -0.0356  0.4877
  116OSM    H9F12177   6.996   3.776   7.228 -0.7590  1.2362  1.3038
  116OSM   C10F12178   6.879   3.739   7.393 -0.5391  0.0654 -0.0085
  116OSM   H10F12179   6.929   3.819   7.450 -2.0984  1.7180 -0.8522
  116OSM   C11F12180   6.774   3.681   7.482  0.2889 -0.5118  0.2823
  116OSM   H11F12181   6.739   3.581   7.449 -0.6629  0.1127 -0.6598
  116OSM   H11G12182   6.687   3.749   7.479  0.5818 -0.1270 -2.1354
  116OSM   C12F12183   6.826   3.670   7.631  0.5002 -0.8628  0.1704
  116OSM   H12F12184   6.744   3.659   7.705 -1.3655  0.1283 -1.6567
  116OSM   H12G12185   6.881   3.757   7.671 -1.9847 -0.0512  2.0980
  116OSM   C13F12186   6.920   3.547   7.641 -0.3953  0.1860 -0.1069
  116OSM   H13F12187   7.008   3.568   7.578 -0.1677 -1.3676 -0.3473
  116OSM   H13G12188   6.880   3.452   7.600  1.0545 -1.0809  1.2593
  116OSM   C14F12189   6.979   3.520   7.781 -0.1931  0.6394  0.8894
  116OSM   H14F12190   7.006   3.622   7.815  0.0254  0.3793  1.5287
  116OSM   H14G12191   7.076   3.464   7.785 -0.8088 -0.9085 -2.2976
  116OSM   C15F12192   6.871   3.460   7.880 -0.7913 -0.0009  0.1555
  116OSM   H15F12193   6.852   3.357   7.845 -0.6364 -0.8689  2.4238
  116OSM   H15G12194   6.780   3.521   7.860 -2.0248 -2.4107 -2.0657
  116OSM   C16F12195   6.890   3.472   8.031  0.0002 -0.2010 -0.5322
  116OSM   H16F12196   6.914   3.579   8.049 -3.8235  0.9899 -1.4430
  116OSM   H16G12197   6.976   3.405   8.054  0.9581  1.1898  0.1009
  116OSM   C17F12198   6.765   3.439   8.115 -0.1970  0.1718 -0.7229
  116OSM   H17F12199   6.721   3.340   8.090 -1.6601  0.2776  1.1932
  116OSM   H17G12200   6.683   3.507   8.082 -1.0807  0.2045  1.4043
  116OSM   C18F12201   6.789   3.453   8.264 -0.3303 -0.3763  0.4352
  116OSM   H18F12202   6.872   3.388   8.298  0.7515  0.6452 -0.1690
  116OSM   H18G12203   6.694   3.426   8.314 -0.8098 -0.3144 -0.4269
  116OSM   H18H12204   6.815   3.561   8.268 -2.0886  0.3353 -3.0700
  117OSM      N12205   4.982   4.260   5.972 -0.8694  0.5129  0.1324
  117OSM    C1512206   5.092   4.300   5.877 -0.6598  0.4067  0.6342
  117OSM   H15A12207   5.132   4.213   5.827 -2.1634  1.2352 -2.3093
  117OSM   H15B12208   5.164   4.373   5.911 -0.9255  0.2977  1.4410
  117OSM   H15C12209   5.035   4.348   5.798 -0.5437  0.0274  0.3175
  117OSM    C1412210   4.894   4.378   6.009 -0.6310  0.8494 -0.4070
  117OSM   H14A12211   4.847   4.427   5.925 -2.9571 -0.2962  0.1248
  117OSM   H14B12212   4.956   4.449   6.061 -0.6493  0.7535 -0.2523
  117OSM   H14C12213   4.818   4.340   6.076 -1.1670  1.6162 -0.5693
  117OSM    C1312214   4.900   4.159   5.912  0.5400 -0.2107  0.1394
  117OSM   H13A12215   4.815   4.126   5.969 -0.2217 -3.8885 -2.7219
  117OSM   H13B12216   4.961   4.072   5.896  4.0825  1.4539  3.1302
  117OSM   H13C12217   4.866   4.190   5.814 -0.1070  1.6923  0.9142
  117OSM    C1212218   5.037   4.194   6.099  0.1807 -0.1502 -0.5182
  117OSM   H12A12219   5.112   4.121   6.074  1.2605  0.2072  1.4316
  117OSM   H12B12220   4.952   4.143   6.142  1.1842 -0.3481  1.3557
  117OSM    C1112221   5.105   4.286   6.204 -0.9160  0.8971  0.0929
  117OSM   H11A12222   5.144   4.375   6.149 -0.0826 -0.3008 -1.3137
  117OSM   H11B12223   5.176   4.223   6.261 -2.4532  1.3797  2.6673
  117OSM      P12224   4.893   4.275   6.374 -0.4321 -0.2919 -0.4358
  117OSM    O1312225   4.800   4.390   6.408 -0.4524  0.0152  0.2730
  117OSM    O1412226   4.834   4.165   6.299 -0.1155 -0.0425  0.1206
  117OSM    O1112227   4.956   4.217   6.511 -0.3256 -0.3330  0.3602
  117OSM    O1212228   5.016   4.338   6.298  0.0953  0.2490  0.1046
  117OSM    C1S12229   5.056   4.296   6.565  0.3519 -0.5455 -0.4741
  117OSM    H1S12230   5.025   4.401   6.583 -0.7007 -0.8502 -0.4664
  117OSM    H1T12231   5.147   4.281   6.502 -1.9467 -2.0588 -3.7475
  117OSM     NF12232   5.184   4.327   6.778  0.2040  0.0224 -0.2821
  117OSM    HNF12233   5.273   4.282   6.785  0.0621 -0.1851  0.2066
  117OSM    C2S12234   5.087   4.242   6.711  0.3421 -0.5212 -0.0896
  117OSM    H2S12235   4.993   4.249   6.770  0.5903  0.1224  0.2433
  117OSM    C3S12236   5.124   4.092   6.707  0.3648 -0.9981  0.3650
  117OSM    H3S12237   5.226   4.079   6.665  0.7186 -2.2756  1.5365
  117OSM     O312238   5.022   4.021   6.643  0.4946 -0.2572  0.4575
  117OSM    HO312239   4.971   4.092   6.603 -1.7912 -1.5732  0.8418
  117OSM    C4S12240   5.119   4.045   6.848 -0.0074  1.1460 -0.6495
  117OSM    H4S12241   5.217   4.016   6.889 -1.2307 -1.3367  0.7541
  117OSM    C5S12242   5.021   4.023   6.938 -0.6562 -0.3043  0.5817
  117OSM    H5S12243   4.921   4.019   6.895  0.6373  1.9359 -3.0187
  117OSM    C6S12244   5.042   3.968   7.083  0.2736  0.5434  0.4423
  117OSM    H6S12245   5.144   3.931   7.105 -0.2368 -0.8619  0.5749
  117OSM    H6T12246   4.970   3.886   7.105  0.5825  0.1298 -0.0792
  117OSM    C7S12247   5.015   4.085   7.186  0.0634  0.3310 -0.4660
  117OSM    H7S12248   4.919   4.135   7.160 -2.2457 -2.9908  1.0645
  117OSM    H7T12249   5.092   4.163   7.167  0.9611  0.0517  1.7572
  117OSM    C8S12250   5.002   4.031   7.327  0.7583  0.6329  0.0682
  117OSM    H8S12251   5.097   3.980   7.353  0.7159  0.3050 -0.4199
  117OSM    H8T12252   4.915   3.967   7.355  1.5129 -0.2422  0.4851
  117OSM    C9S12253   5.001   4.149   7.434 -0.6469  0.1319 -0.1636
  117OSM    H9S12254   4.906   4.202   7.410 -0.8071 -0.3808 -0.6768
  117OSM    H9T12255   5.091   4.214   7.425 -0.9290  0.6681  0.6904
  117OSM   C10S12256   4.994   4.109   7.576 -0.0328 -0.6299 -0.8455
  117OSM   H10S12257   5.080   4.043   7.600  0.4671 -0.2298 -1.5048
  117OSM   H10T12258   4.895   4.062   7.594 -0.1657  0.0088  0.1342
  117OSM   C11S12259   5.005   4.227   7.670  0.1606 -0.3505  0.0341
  117OSM   H11S12260   4.914   4.283   7.639  0.2173 -0.3543 -0.1389
  117OSM   H11T12261   5.091   4.296   7.654  0.0442 -0.2618 -0.2158
  117OSM   C12S12262   4.993   4.175   7.821  0.0676  0.0300  0.1845
  117OSM   H12S12263   5.072   4.096   7.824 -0.2825 -0.3223  0.1852
  117OSM   H12T12264   4.896   4.121   7.830  0.8674 -1.3761  0.7683
  117OSM   C13S12265   4.999   4.286   7.925  0.3974 -0.3626  0.4762
  117OSM   H13S12266   4.928   4.364   7.889  2.9539  1.5156 -0.7252
  117OSM   H13T12267   5.094   4.339   7.906 -0.5404  1.9331  1.7928
  117OSM   C14S12268   4.971   4.239   8.072 -0.2380  0.0208  0.2189
  117OSM   H14S12269   5.056   4.171   8.097 -1.0796 -0.7161  1.1997
  117OSM   H14T12270   4.881   4.177   8.089  0.3928 -0.6596  1.2192
  117OSM   C15S12271   4.962   4.349   8.172  0.4704  0.2297 -0.6898
  117OSM   H15S12272   4.868   4.406   8.161 -0.4816 -1.5301 -2.2279
  117OSM   H15T12273   5.030   4.428   8.132  1.6264  0.1512  1.0057
  117OSM   C16S12274   4.992   4.297   8.314 -0.8584 -0.6666  0.2009
  117OSM   H16S12275   5.094   4.256   8.307 -0.3603  0.4112  0.8423
  117OSM   H16T12276   4.918   4.217   8.337 -0.2023 -0.6534  2.5683
  117OSM   C17S12277   5.003   4.407   8.419 -0.1446  0.0151 -0.0555
  117OSM   H17S12278   5.058   4.365   8.506  1.4361  2.8049  0.4043
  117OSM   H17T12279   4.900   4.435   8.452 -1.2049 -1.7703 -1.6229
  117OSM   C18S12280   5.065   4.540   8.364  0.4821  0.1063  0.3960
  117OSM   H18S12281   4.999   4.606   8.304  0.9386  0.5665  0.3885
  117OSM   H18T12282   5.145   4.510   8.293 -0.9017 -0.1612 -1.1029
  117OSM   H18U12283   5.128   4.600   8.433  0.2218 -0.1458  0.8606
  117OSM    C1F12284   5.163   4.447   6.826  0.0831  0.4842 -0.3956
  117OSM     OF12285   5.058   4.503   6.806  0.5400  0.1012  0.0428
  117OSM    C2F12286   5.265   4.514   6.900 -1.0231 -0.1432  0.0429
  117OSM    H2F12287   5.287   4.613   6.856  0.6977 -0.7280 -0.4912
  117OSM    H2G12288   5.355   4.448   6.899 -1.3040 -0.5301  0.2467
  117OSM    C3F12289   5.217   4.531   7.048 -1.0029 -0.9985  0.0463
  117OSM    H3F12290   5.193   4.434   7.097 -1.1444 -0.8556  0.2612
  117OSM    H3G12291   5.128   4.597   7.058  0.9863  1.5044  2.6872
  117OSM    C4F12292   5.327   4.605   7.132  0.0433 -0.1407 -0.3392
  117OSM    H4F12293   5.361   4.689   7.068  0.2278 -1.1990 -1.6562
  117OSM    H4G12294   5.410   4.536   7.157 -0.3649 -0.8689 -0.9502
  117OSM    C5F12295   5.271   4.650   7.268  0.1606 -0.0712 -0.7431
  117OSM    H5F12296   5.260   4.570   7.344  0.2599  2.2651  1.9252
  117OSM    H5G12297   5.167   4.683   7.248 -0.6988 -1.2012  1.5230
  117OSM    C6F12298   5.343   4.767   7.338  0.5285 -0.2280  0.8681
  117OSM    H6F12299   5.334   4.860   7.279  3.6969 -0.5314 -0.3309
  117OSM    H6G12300   5.450   4.742   7.357  0.1935 -1.0620  1.7535
  117OSM    C7F12301   5.282   4.788   7.479 -0.3989  0.5502  0.1956
  117OSM    H7F12302   5.278   4.687   7.524 -2.1438  0.8965  0.9188
  117OSM    H7G12303   5.178   4.822   7.456 -1.9051 -1.3873  3.4387
  117OSM    C8F12304   5.347   4.895   7.572 -0.4987  0.3010  0.2518
  117OSM    H8F12305   5.293   4.904   7.669 -0.1291 -0.9684  0.5969
  117OSM    H8G12306   5.344   4.983   7.504  1.9430  0.5688  0.3888
  117OSM    C9F12307   5.481   4.855   7.622  0.1594  0.4523  0.2262
  117OSM    H9F12308   5.496   4.749   7.647 -2.6587 -0.1318 -0.1667
  117OSM   C10F12309   5.591   4.935   7.618 -0.3723 -0.6857  0.0305
  117OSM   H10F12310   5.684   4.888   7.654 -0.7886 -1.4016  0.1972
  117OSM   C11F12311   5.593   5.084   7.575  0.2197  0.4321  0.0618
  117OSM   H11F12312   5.494   5.131   7.556  0.9442  1.0972 -2.5266
  117OSM   H11G12313   5.646   5.092   7.477  1.3303 -2.3330  0.3616
  117OSM   C12F12314   5.672   5.175   7.683  0.1556  0.4484  0.5397
  117OSM   H12F12315   5.680   5.278   7.643 -0.2069  0.4008  0.3375
  117OSM   H12G12316   5.776   5.136   7.690 -0.1055  0.0604  2.9707
  117OSM   C13F12317   5.601   5.169   7.817  0.1591 -0.2345 -0.2164
  117OSM   H13F12318   5.609   5.061   7.839  2.5155 -0.4269 -1.6801
  117OSM   H13G12319   5.494   5.195   7.801  0.1935  2.0044  2.3585
  117OSM   C14F12320   5.663   5.249   7.931 -0.2805 -0.9079 -0.1988
  117OSM   H14F12321   5.655   5.356   7.904 -2.7379 -0.6749  1.1831
  117OSM   H14G12322   5.770   5.223   7.947 -0.8040 -2.6015  0.8225
  117OSM   C15F12323   5.586   5.217   8.060 -0.3054 -0.7796 -0.9679
  117OSM   H15F12324   5.628   5.124   8.106 -0.8668  0.9599  3.6286
  117OSM   H15G12325   5.478   5.194   8.047 -0.6424  0.3151 -0.2541
  117OSM   C16F12326   5.608   5.326   8.172  0.3274  0.2836  0.4183
  117OSM   H16F12327   5.565   5.425   8.145 -1.5699 -0.4937  0.4234
  117OSM   H16G12328   5.718   5.332   8.187  0.3334 -1.0267  0.9880
  117OSM   C17F12329   5.536   5.300   8.308 -0.1722  0.6922 -0.3708
  117OSM   H17F12330   5.560   5.192   8.321 -0.9914  0.5291 -0.1233
  117OSM   H17G12331   5.570   5.362   8.393 -0.6727  1.4321 -0.6986
  117OSM   C18F12332   5.383   5.305   8.314  0.3690  0.1421 -0.3136
  117OSM   H18F12333   5.341   5.279   8.414 -2.7512  1.0513 -1.2730
  117OSM   H18G12334   5.335   5.237   8.242 -0.3180  0.0102  0.2553
  117OSM   H18H12335   5.344   5.409   8.303 -0.6485 -0.2403 -0.4084
  118OSM      N12336   1.490   0.530   5.765 -0.0183 -0.5036 -0.6597
  118OSM    C1512337   1.637   0.576   5.781 -0.1569  0.5135 -0.0408
  118OSM   H15A12338   1.698   0.522   5.710 -0.8056  0.4334 -0.5370
  118OSM   H15B12339   1.679   0.547   5.877 -2.0583 -0.9804  0.4054
  118OSM   H15C12340   1.663   0.679   5.759  2.0785  0.0423  0.0872
  118OSM    C1412341   1.446   0.565   5.626 -0.1842  0.0558 -0.1189
  118OSM   H14A12342   1.345   0.528   5.620 -0.3600 -0.0286  2.2412
  118OSM   H14B12343   1.505   0.517   5.550 -1.7379 -1.2504 -0.5561
  118OSM   H14C12344   1.442   0.673   5.616  0.2425  0.7667  4.8782
  118OSM    C1312345   1.486   0.383   5.785  0.0641 -0.1070  0.4286
  118OSM   H13A12346   1.513   0.351   5.885  0.6454  2.2883  1.1124
  118OSM   H13B12347   1.561   0.341   5.719  0.3761 -0.8803  1.2557
  118OSM   H13C12348   1.386   0.353   5.759  0.1785 -0.5575  0.4917
  118OSM    C1212349   1.397   0.591   5.868 -0.3044  0.0701  0.6859
  118OSM   H12A12350   1.295   0.560   5.850  0.2710 -0.0140 -3.2241
  118OSM   H12B12351   1.391   0.697   5.845  1.9877  0.0706 -0.1003
  118OSM    C1112352   1.444   0.573   6.016  0.2607 -0.5451  1.0862
  118OSM   H11A12353   1.371   0.629   6.079  1.5616 -0.5403  2.6522
  118OSM   H11B12354   1.540   0.629   6.022 -0.5779  1.2687 -1.0157
  118OSM      P12355   1.338   0.363   6.112 -0.1251 -0.4751 -0.2486
  118OSM    O1312356   1.214   0.396   6.044  0.4253 -0.5643  0.3843
  118OSM    O1412357   1.360   0.221   6.139  0.1433  0.0753  0.2138
  118OSM    O1112358   1.332   0.444   6.250 -0.1964 -0.5063  0.3192
  118OSM    O1212359   1.458   0.440   6.056  0.1788 -0.3127  0.9057
  118OSM    C1S12360   1.421   0.413   6.357  0.6666 -0.1401 -0.1010
  118OSM    H1S12361   1.526   0.442   6.332  0.4525  1.9438  1.1455
  118OSM    H1T12362   1.418   0.305   6.383  0.9621  0.3825  2.3619
  118OSM     NF12363   1.452   0.448   6.597 -1.3358  0.0196  0.0479
  118OSM    HNF12364   1.407   0.399   6.672  0.8686 -0.1363  1.3408
  118OSM    C2S12365   1.375   0.490   6.482 -0.3600 -0.0444 -0.8666
  118OSM    H2S12366   1.411   0.594   6.464  1.0417 -0.0676  1.4488
  118OSM    C3S12367   1.220   0.475   6.504 -1.2500  0.1725  0.1944
  118OSM    H3S12368   1.187   0.369   6.510  2.0372 -0.9022  1.8576
  118OSM     O312369   1.136   0.525   6.406 -0.2576 -0.2559  0.1435
  118OSM    HO312370   1.195   0.535   6.331 -1.5041  0.9135 -0.7115
  118OSM    C4S12371   1.171   0.526   6.632 -0.1168 -0.0624  0.2548
  118OSM    H4S12372   1.181   0.454   6.714  3.3506  0.0297  0.0596
  118OSM    C5S12373   1.130   0.650   6.666  0.6165  0.3000 -0.0908
  118OSM    H5S12374   1.135   0.724   6.585 -2.9975 -1.4039 -2.0658
  118OSM    C6S12375   1.075   0.701   6.800 -0.3382 -0.2702  1.1599
  118OSM    H6S12376   0.969   0.725   6.779 -0.1752  0.6106  1.3100
  118OSM    H6T12377   1.133   0.793   6.825  0.4245  0.1657 -1.8035
  118OSM    C7S12378   1.069   0.616   6.927 -0.4804  0.5097 -0.0502
  118OSM    H7S12379   0.999   0.530   6.919 -1.4473  1.1363  1.3667
  118OSM    H7T12380   1.011   0.679   6.998 -2.0078 -0.4590 -0.4004
  118OSM    C8S12381   1.206   0.566   6.991 -0.2928  0.0193 -0.5119
  118OSM    H8S12382   1.276   0.652   6.982 -0.4709  0.3911  1.3877
  118OSM    H8T12383   1.260   0.490   6.931 -1.0365 -0.0652 -1.0957
  118OSM    C9S12384   1.190   0.517   7.144 -0.9773 -0.5274 -0.4352
  118OSM    H9S12385   1.280   0.462   7.179 -1.2381  0.2109  1.4953
  118OSM    H9T12386   1.107   0.444   7.137 -1.4545  0.1508 -2.6358
  118OSM   C10S12387   1.146   0.629   7.235 -0.1157 -0.4987 -0.4395
  118OSM   H10S12388   1.059   0.688   7.200 -0.2314 -0.3431  0.1085
  118OSM   H10T12389   1.228   0.703   7.239 -2.7184  2.6066 -0.0124
  118OSM   C11S12390   1.138   0.582   7.382  0.4955 -0.3816  0.6192
  118OSM   H11S12391   1.221   0.511   7.403 -0.0609 -1.9520 -2.1075
  118OSM   H11T12392   1.038   0.536   7.395  0.1838  0.9548  4.5029
  118OSM   C12S12393   1.150   0.694   7.489  0.3621  0.8054 -0.3252
  118OSM   H12S12394   1.094   0.789   7.474  1.5552  1.6218  0.1609
  118OSM   H12T12395   1.256   0.726   7.481  0.5082  0.5344  0.3964
  118OSM   C13S12396   1.115   0.639   7.632  0.0041  0.6074 -0.4217
  118OSM   H13S12397   1.178   0.551   7.656  0.4349  1.3612  1.3605
  118OSM   H13T12398   1.007   0.614   7.638  0.3108 -0.6872 -0.1186
  118OSM   C14S12399   1.138   0.737   7.748  0.3577 -0.1537 -0.2446
  118OSM   H14S12400   1.083   0.714   7.842  0.0314 -0.4260 -0.5012
  118OSM   H14T12401   1.102   0.835   7.710 -0.1014 -1.2993 -3.0612
  118OSM   C15S12402   1.288   0.741   7.783  0.3715 -0.0585  0.2197
  118OSM   H15S12403   1.346   0.778   7.696 -0.5508 -0.9460 -0.8017
  118OSM   H15T12404   1.316   0.634   7.789 -0.9400 -0.7514 -3.3041
  118OSM   C16S12405   1.318   0.817   7.919  0.2147 -0.2046 -0.2336
  118OSM   H16S12406   1.270   0.913   7.891  0.5332 -0.1918 -0.7537
  118OSM   H16T12407   1.428   0.824   7.937  0.1365  0.3681  0.0634
  118OSM   C17S12408   1.242   0.776   8.048  0.1908 -0.3191  0.7725
  118OSM   H17S12409   1.259   0.669   8.074 -0.5315 -0.2628  1.5131
  118OSM   H17T12410   1.132   0.788   8.032  0.0879  0.6748  2.1415
  118OSM   C18S12411   1.285   0.858   8.169 -0.6099 -0.7930 -0.0629
  118OSM   H18S12412   1.287   0.965   8.140 -3.4979 -1.2496 -2.3675
  118OSM   H18T12413   1.384   0.818   8.200 -1.3732 -0.0374  3.8401
  118OSM   H18U12414   1.226   0.849   8.262 -0.0964 -2.3545  0.1344
  118OSM    C1F12415   1.582   0.483   6.603 -0.3035 -0.6178  0.4713
  118OSM     OF12416   1.644   0.553   6.516  0.1882  0.2900  0.0379
  118OSM    C2F12417   1.663   0.425   6.725  0.1458  0.7032  0.1833
  118OSM    H2F12418   1.594   0.392   6.806  0.6593  0.2514  0.4420
  118OSM    H2G12419   1.724   0.512   6.757  1.2710 -0.4284  1.1706
  118OSM    C3F12420   1.759   0.314   6.685  0.5161 -0.2059 -0.4107
  118OSM    H3F12421   1.825   0.343   6.600  0.6366  0.2813 -0.1571
  118OSM    H3G12422   1.691   0.239   6.640 -0.8339 -0.5172  2.0049
  118OSM    C4F12423   1.839   0.254   6.803  0.3848  0.0752  0.2437
  118OSM    H4F12424   1.782   0.260   6.898 -1.9932 -1.9705 -0.9534
  118OSM    H4G12425   1.937   0.306   6.804 -0.4312  1.7002  1.9714
  118OSM    C5F12426   1.853   0.101   6.779  0.0591 -0.0263  0.5012
  118OSM    H5F12427   1.911   0.068   6.691 -0.9074  0.4494 -0.3422
  118OSM    H5G12428   1.748   0.063   6.774 -0.3350  1.1397 -1.1661
  118OSM    C6F12429   1.915   0.026   6.901 -0.1657  0.3930  0.8369
  118OSM    H6F12430   1.852   0.039   6.992  0.3660  0.8918  1.1420
  118OSM    H6G12431   2.013   0.077   6.916  0.3407  0.5230 -2.3418
  118OSM    C7F12432   1.940  -0.121   6.878  0.3507  0.3232 -0.0304
  118OSM    H7F12433   1.993  -0.156   6.969  1.1116  0.9914 -0.2038
  118OSM    H7G12434   2.005  -0.128   6.788 -0.0077 -1.1520 -0.1989
  118OSM    C8F12435   1.814  -0.206   6.855  0.0089  0.4540 -0.4125
  118OSM    H8F12436   1.842  -0.313   6.846  0.7632  0.5151  0.9029
  118OSM    H8G12437   1.756  -0.170   6.768  1.3883 -1.0175 -2.0170
  118OSM    C9F12438   1.711  -0.207   6.968  0.2793  0.8335 -0.7395
  118OSM    H9F12439   1.609  -0.185   6.934  0.3147  1.9973 -0.1529
  118OSM   C10F12440   1.738  -0.245   7.093  0.3754 -0.1379  0.3530
  118OSM   H10F12441   1.653  -0.245   7.164 -0.1856 -2.5446 -0.2362
  118OSM   C11F12442   1.867  -0.298   7.139 -0.5239 -0.1837 -0.1364
  118OSM   H11F12443   1.931  -0.210   7.159 -0.5302  0.2207 -1.7526
  118OSM   H11G12444   1.901  -0.371   7.064 -1.6365  0.2869 -1.1324
  118OSM   C12F12445   1.861  -0.378   7.274  0.3313 -0.7899 -0.0793
  118OSM   H12F12446   1.963  -0.414   7.298 -0.5422 -3.3176  0.1104
  118OSM   H12G12447   1.796  -0.467   7.257  2.2020 -2.1575 -0.2776
  118OSM   C13F12448   1.815  -0.304   7.397 -0.2831  0.3426  0.5112
  118OSM   H13F12449   1.718  -0.257   7.369  0.2097  1.2721  0.2939
  118OSM   H13G12450   1.886  -0.221   7.421 -0.4637  1.0987 -1.3806
  118OSM   C14F12451   1.810  -0.402   7.513 -0.5564  0.2694  0.0353
  118OSM   H14F12452   1.890  -0.479   7.504 -0.1058  0.5327  1.4352
  118OSM   H14G12453   1.709  -0.446   7.502 -0.3378 -0.2567  0.0498
  118OSM   C15F12454   1.812  -0.334   7.644  0.3090 -0.7774  0.1362
  118OSM   H15F12455   1.734  -0.255   7.649  0.0737 -1.0746  1.4691
  118OSM   H15G12456   1.910  -0.283   7.656  0.0066  0.2321 -1.4532
  118OSM   C16F12457   1.797  -0.435   7.762 -0.0083  0.4316  0.1336
  118OSM   H16F12458   1.863  -0.515   7.723  2.4481  3.1337 -1.5893
  118OSM   H16G12459   1.689  -0.462   7.765  0.1515 -0.3004 -0.4872
  118OSM   C17F12460   1.854  -0.399   7.900  0.1805 -0.7083  0.4263
  118OSM   H17F12461   1.944  -0.337   7.882 -0.0567 -1.3354 -3.9727
  118OSM   H17G12462   1.873  -0.491   7.958 -2.9569  0.1968  3.2367
  118OSM   C18F12463   1.754  -0.315   7.989 -0.2398 -0.1019 -0.4981
  118OSM   H18F12464   1.659  -0.373   7.994 -1.3331  1.3223 -2.6927
  118OSM   H18G12465   1.733  -0.213   7.949 -0.0864  0.4409  0.7818
  118OSM   H18H12466   1.800  -0.303   8.089 -2.0945  2.0279  0.1825
  119OSM      N12467   1.377   5.624   5.658 -0.2901  0.5835  0.0006
  119OSM    C1512468   1.393   5.501   5.574 -0.3428  0.4452 -0.4242
  119OSM   H15A12469   1.316   5.487   5.500  0.3352 -0.4318 -0.9837
  119OSM   H15B12470   1.387   5.411   5.634  1.0631  1.3589  1.1876
  119OSM   H15C12471   1.488   5.493   5.523  1.6068  3.6941  2.2280
  119OSM    C1412472   1.233   5.618   5.713 -0.0687  0.1661  0.4132
  119OSM   H14A12473   1.213   5.699   5.782 -0.5606  1.5851 -1.3505
  119OSM   H14B12474   1.212   5.522   5.760  2.2982 -0.1386  0.9946
  119OSM   H14C12475   1.162   5.626   5.632  0.6321  1.8113 -0.0754
  119OSM    C1312476   1.468   5.604   5.773 -0.2263 -1.0292 -0.6029
  119OSM   H13A12477   1.459   5.690   5.837  0.7094 -1.0255 -0.4540
  119OSM   H13B12478   1.573   5.592   5.746  0.8698  1.5754  2.0210
  119OSM   H13C12479   1.442   5.519   5.834  1.3581 -1.5254 -0.5621
  119OSM    C1212480   1.405   5.753   5.587 -0.3832 -0.1646 -0.6434
  119OSM   H12A12481   1.316   5.773   5.529 -1.4513  1.9167  1.5085
  119OSM   H12B12482   1.499   5.749   5.534  0.5279  3.5963  0.3796
  119OSM    C1112483   1.424   5.878   5.677 -0.4834 -0.2343  0.1729
  119OSM   H11A12484   1.418   5.969   5.614 -2.3435 -0.8821 -0.6521
  119OSM   H11B12485   1.529   5.878   5.711  0.4966  1.4068 -2.5201
  119OSM      P12486   1.324   6.010   5.889 -0.0145  0.0646  0.2230
  119OSM    O1312487   1.449   6.014   5.962  0.7250  0.2141  0.4427
  119OSM    O1412488   1.269   6.130   5.820  0.1307  0.0918  0.0873
  119OSM    O1112489   1.212   5.955   5.987  0.5409  0.5109 -0.3548
  119OSM    O1212490   1.321   5.889   5.782 -0.1841  0.2639 -0.4642
  119OSM    C1S12491   1.229   5.864   6.094 -0.0545  0.7372  0.4569
  119OSM    H1S12492   1.291   5.779   6.058 -1.7293 -0.2800 -0.1170
  119OSM    H1T12493   1.132   5.819   6.125  0.7103  0.2773  2.3507
  119OSM     NF12494   1.289   5.819   6.331  0.9942 -0.1670 -0.2934
  119OSM    HNF12495   1.228   5.799   6.408  2.9529 -1.5786  1.0006
  119OSM    C2S12496   1.272   5.932   6.233  0.1006  0.3869  0.3922
  119OSM    H2S12497   1.371   5.980   6.214  0.2752  0.6340  1.8414
  119OSM    C3S12498   1.173   6.050   6.271 -0.6254  0.8142 -0.3442
  119OSM    H3S12499   1.077   5.994   6.278  0.8712 -1.8422  0.0304
  119OSM     O312500   1.173   6.157   6.176 -0.0768 -0.2426 -0.0104
  119OSM    HO312501   1.221   6.134   6.095  1.1370  1.1640  0.2552
  119OSM    C4S12502   1.206   6.081   6.415  0.9294 -0.0511  0.5120
  119OSM    H4S12503   1.141   6.022   6.480  0.5115 -1.5280 -1.1926
  119OSM    C5S12504   1.308   6.160   6.463  1.0647  0.8140 -0.1575
  119OSM    H5S12505   1.373   6.224   6.401  1.8033  0.4590  0.2295
  119OSM    C6S12506   1.345   6.173   6.609  0.2865  0.0401 -0.0074
  119OSM    H6S12507   1.410   6.089   6.642  1.8841  1.7389  1.4511
  119OSM    H6T12508   1.252   6.188   6.667  0.1431 -1.8328  0.3087
  119OSM    C7S12509   1.432   6.300   6.647 -0.1562  0.1304 -0.2235
  119OSM    H7S12510   1.523   6.300   6.583 -1.2103 -2.6852 -1.8845
  119OSM    H7T12511   1.456   6.292   6.755 -1.2589 -1.4483 -0.0737
  119OSM    C8S12512   1.344   6.426   6.643  0.8382 -0.2751 -0.7131
  119OSM    H8S12513   1.275   6.441   6.557 -0.8843  0.4607  0.7315
  119OSM    H8T12514   1.417   6.509   6.636 -0.8237  1.4152  1.0927
  119OSM    C9S12515   1.260   6.450   6.767  0.6424 -0.3051 -0.2863
  119OSM    H9S12516   1.195   6.361   6.778 -1.3602  1.2322  0.8459
  119OSM    H9T12517   1.203   6.542   6.745  0.8022  0.5870  2.6465
  119OSM   C10S12518   1.317   6.478   6.907  0.3465 -0.1917 -0.0884
  119OSM   H10S12519   1.377   6.572   6.908  1.1057 -0.6765  0.5116
  119OSM   H10T12520   1.383   6.397   6.945  1.3073  0.7834  0.4034
  119OSM   C11S12521   1.208   6.491   7.014 -0.0413 -0.2157 -0.4762
  119OSM   H11S12522   1.144   6.400   7.007 -1.5271  0.2346  4.0654
  119OSM   H11T12523   1.146   6.581   6.993 -0.7565 -0.5869 -0.0002
  119OSM   C12S12524   1.278   6.499   7.152  0.3859  0.6189 -0.1559
  119OSM   H12S12525   1.349   6.584   7.146 -1.5955  2.2893 -1.4085
  119OSM   H12T12526   1.342   6.409   7.156  1.5201  1.3495 -1.1897
  119OSM   C13S12527   1.170   6.506   7.273  0.9113  0.2372 -0.8097
  119OSM   H13S12528   1.102   6.418   7.276  0.1869  0.7676 -1.3280
  119OSM   H13T12529   1.111   6.600   7.286  1.6344  0.3899  2.0262
  119OSM   C14S12530   1.262   6.494   7.398  0.2828 -0.1574  0.2050
  119OSM   H14S12531   1.350   6.561   7.385 -0.6675  1.9252  3.4273
  119OSM   H14T12532   1.296   6.388   7.392 -1.3564 -0.6587 -1.1978
  119OSM   C15S12533   1.187   6.511   7.531 -0.3245  0.0781  0.5551
  119OSM   H15S12534   1.104   6.439   7.542 -0.9423  0.6990  0.0531
  119OSM   H15T12535   1.144   6.614   7.534 -1.5551 -0.3637 -0.8326
  119OSM   C16S12536   1.284   6.489   7.647 -0.2207  1.3618  0.2936
  119OSM   H16S12537   1.343   6.395   7.653  1.6640  2.4913  0.2322
  119OSM   H16T12538   1.223   6.486   7.740 -0.3967 -0.9527  0.1635
  119OSM   C17S12539   1.385   6.609   7.656 -0.0139  0.1780  0.2077
  119OSM   H17S12540   1.342   6.706   7.626 -0.4887 -0.0568  0.1174
  119OSM   H17T12541   1.463   6.580   7.582 -0.2778  0.5741 -0.2240
  119OSM   C18S12542   1.446   6.631   7.797  0.3396 -0.2908  0.0693
  119OSM   H18S12543   1.493   6.535   7.829  0.0102 -0.0626  1.2948
  119OSM   H18T12544   1.370   6.664   7.871 -0.0542 -2.4767  0.6990
  119OSM   H18U12545   1.533   6.700   7.800  0.5217 -0.5529  1.3264
  119OSM    C1F12546   1.396   5.746   6.324 -0.2950  0.0047 -0.0075
  119OSM     OF12547   1.487   5.765   6.250  0.2256  0.3985 -0.2825
  119OSM    C2F12548   1.403   5.628   6.423 -0.1629  0.1298  0.6547
  119OSM    H2F12549   1.447   5.543   6.367  1.5998 -0.5513  2.9127
  119OSM    H2G12550   1.305   5.609   6.473  0.1370  0.8125  1.5429
  119OSM    C3F12551   1.505   5.655   6.531 -0.2525  0.1137 -0.3246
  119OSM    H3F12552   1.603   5.661   6.479 -1.4613 -1.3176 -2.9605
  119OSM    H3G12553   1.502   5.565   6.597  2.9129  0.3632  0.3463
  119OSM    C4F12554   1.484   5.784   6.608  0.1565 -0.4406  0.0137
  119OSM    H4F12555   1.377   5.796   6.634  0.2776 -0.4747  0.5349
  119OSM    H4G12556   1.516   5.862   6.535 -3.6413 -0.6729 -2.1678
  119OSM    C5F12557   1.558   5.784   6.740 -0.2774 -0.3869 -0.1276
  119OSM    H5F12558   1.661   5.750   6.716 -0.5714 -1.3139 -0.1081
  119OSM    H5G12559   1.524   5.703   6.808  0.5753  0.9297  1.9642
  119OSM    C6F12560   1.548   5.913   6.817  0.1919  0.3318 -0.1661
  119OSM    H6F12561   1.597   5.997   6.765  2.3033 -1.3232 -1.0423
  119OSM    H6G12562   1.620   5.894   6.901 -0.4586 -0.1527  0.2959
  119OSM    C7F12563   1.409   5.932   6.879  0.3470  0.4170  0.7559
  119OSM    H7F12564   1.373   5.840   6.930  0.6180 -0.3015 -0.3245
  119OSM    H7G12565   1.337   5.945   6.795  0.9818 -0.8190  0.0002
  119OSM    C8F12566   1.391   6.057   6.969 -0.0393  0.0869 -0.1762
  119OSM    H8F12567   1.289   6.097   6.952  0.6410  1.6326 -0.7502
  119OSM    H8G12568   1.459   6.133   6.925  1.4783  0.0951  2.0347
  119OSM    C9F12569   1.427   6.033   7.116  0.0316 -0.9461 -0.4317
  119OSM    H9F12570   1.534   6.006   7.118  0.6174  0.9903 -2.1198
  119OSM   C10F12571   1.351   6.030   7.227  0.2803  0.1443 -0.0837
  119OSM   H10F12572   1.386   6.002   7.327 -0.5299 -0.5455  0.0136
  119OSM   C11F12573   1.199   6.053   7.228  0.4755 -0.4132  0.1477
  119OSM   H11F12574   1.137   5.973   7.183  1.0183  0.5698 -2.5084
  119OSM   H11G12575   1.176   6.148   7.177 -1.1761  1.8300  4.5491
  119OSM   C12F12576   1.133   6.084   7.363 -0.3650 -0.3383 -1.3880
  119OSM   H12F12577   1.176   6.180   7.400 -0.7693  0.0160 -1.8353
  119OSM   H12G12578   1.163   6.002   7.432 -1.5413 -0.5196 -1.0783
  119OSM   C13F12579   0.983   6.101   7.356  0.2895  0.4366 -0.4380
  119OSM   H13F12580   0.939   6.012   7.306 -0.0054 -0.2023  0.8943
  119OSM   H13G12581   0.957   6.198   7.309 -0.7758  0.1598 -0.4401
  119OSM   C14F12582   0.922   6.098   7.501 -0.6582  0.6558  0.8725
  119OSM   H14F12583   0.951   6.003   7.550  1.9100 -0.7341 -2.8609
  119OSM   H14G12584   0.812   6.100   7.494 -0.7540 -2.4025  0.2823
  119OSM   C15F12585   0.958   6.210   7.605 -0.8456 -0.0433  0.5312
  119OSM   H15F12586   0.904   6.300   7.566 -1.0117 -0.8155 -1.1326
  119OSM   H15G12587   1.067   6.230   7.609 -1.1696  2.0980  0.0832
  119OSM   C16F12588   0.909   6.186   7.751 -0.4213 -0.4147  0.0250
  119OSM   H16F12589   0.987   6.122   7.796  0.6219 -0.7861 -2.2105
  119OSM   H16G12590   0.812   6.132   7.740 -0.8432  0.3276 -0.0175
  119OSM   C17F12591   0.875   6.317   7.831 -0.5956 -0.1770 -0.3142
  119OSM   H17F12592   0.782   6.363   7.790  0.0731  0.9794 -0.5946
  119OSM   H17G12593   0.954   6.393   7.811  0.4004 -0.6686  1.5441
  119OSM   C18F12594   0.855   6.293   7.981 -0.1440 -0.0644  0.9118
  119OSM   H18F12595   0.759   6.237   7.991 -0.9513  0.9754 -0.5388
  119OSM   H18G12596   0.849   6.392   8.031 -1.3610  0.5229 -0.3121
  119OSM   H18H12597   0.936   6.229   8.020  0.5715 -0.4452 -1.1090
  120OSM      N12598   5.619   3.839   6.405  0.3811  0.7970 -0.1853
  120OSM    C1512599   5.540   3.803   6.291  0.4947 -0.4570 -0.4918
  120OSM   H15A12600   5.433   3.806   6.309  0.5800 -0.8747  0.1107
  120OSM   H15B12601   5.578   3.705   6.265  2.3045 -0.2381  1.1980
  120OSM   H15C12602   5.562   3.871   6.210 -2.3195 -0.1859 -1.1668
  120OSM    C1412603   5.561   3.956   6.459 -0.6249 -0.7673  0.7354
  120OSM   H14A12604   5.512   4.020   6.388  1.8284 -0.9288 -1.2191
  120OSM   H14B12605   5.641   4.014   6.503 -1.0883 -0.6856  1.5004
  120OSM   H14C12606   5.487   3.937   6.537 -1.1149 -3.1165 -0.2017
  120OSM    C1312607   5.605   3.729   6.510 -0.3053 -0.1117  0.2180
  120OSM   H13A12608   5.633   3.637   6.461  3.5926 -0.5744  2.8757
  120OSM   H13B12609   5.505   3.719   6.548  0.0982  1.7610  1.9819
  120OSM   H13C12610   5.664   3.755   6.597  0.3345  1.1074 -0.5555
  120OSM    C1212611   5.763   3.854   6.363  0.2415  0.4074 -0.4058
  120OSM   H12A12612   5.765   3.921   6.279 -1.6757  0.4607 -0.4457
  120OSM   H12B12613   5.795   3.755   6.332 -0.2754 -0.1598  0.7952
  120OSM    C1112614   5.869   3.897   6.461  0.3202  0.2791  0.3911
  120OSM   H11A12615   5.974   3.876   6.429 -0.1534 -2.6695  0.5456
  120OSM   H11B12616   5.846   3.834   6.549 -0.6872 -2.5360 -1.7643
  120OSM      P12617   5.917   4.146   6.404  0.2096  0.2095  0.0377
  120OSM    O1312618   5.927   4.093   6.264  0.2387  0.1851  0.1331
  120OSM    O1412619   5.848   4.274   6.418  0.6035 -0.1891 -0.5294
  120OSM    O1112620   6.059   4.154   6.474 -0.0724  0.4361  0.1439
  120OSM    O1212621   5.851   4.035   6.496 -0.7174  0.0162  0.3076
  120OSM    C1S12622   6.062   4.204   6.611  0.1692 -0.2321 -0.0091
  120OSM    H1S12623   5.974   4.259   6.649  0.7978  0.5397  0.3588
  120OSM    H1T12624   6.149   4.272   6.622 -1.9785  2.6130  0.2671
  120OSM     NF12625   6.111   4.149   6.851  0.7711 -0.2314  0.5762
  120OSM    HNF12626   6.204   4.158   6.885  0.5332 -0.8704  1.4094
  120OSM    C2S12627   6.097   4.091   6.719 -0.2829 -0.2156  1.2772
  120OSM    H2S12628   6.010   4.022   6.713 -1.1452  0.9006 -2.6513
  120OSM    C3S12629   6.211   3.994   6.675  0.6542 -1.0616 -0.2458
  120OSM    H3S12630   6.295   4.058   6.641  0.4320 -2.3947 -3.7961
  120OSM     O312631   6.163   3.902   6.576 -0.1891  0.6452 -0.9585
  120OSM    HO312632   6.069   3.916   6.569 -0.3239 -0.2435 -1.0749
  120OSM    C4S12633   6.255   3.904   6.783 -0.0350  0.5908  0.2247
  120OSM    H4S12634   6.173   3.861   6.843 -0.8210  1.7524  0.0117
  120OSM    C5S12635   6.383   3.884   6.823  0.2752  0.0512 -0.1555
  120OSM    H5S12636   6.453   3.926   6.748  0.9865 -0.4834  0.1970
  120OSM    C6S12637   6.427   3.805   6.944  0.1846  0.6432  0.4692
  120OSM    H6S12638   6.519   3.855   6.980 -0.3200  3.7764 -2.0885
  120OSM    H6T12639   6.454   3.701   6.917 -0.3172  0.6541 -0.0945
  120OSM    C7S12640   6.324   3.800   7.066 -1.2156 -0.0590  0.1865
  120OSM    H7S12641   6.229   3.755   7.031 -0.4013 -0.4350 -1.6639
  120OSM    H7T12642   6.298   3.900   7.106  0.4984 -0.1704  1.7103
  120OSM    C8S12643   6.389   3.722   7.188  0.7600  0.2943  0.5169
  120OSM    H8S12644   6.478   3.778   7.224  1.1594  0.4974 -0.7247
  120OSM    H8T12645   6.423   3.621   7.157  1.1122  0.3261  0.7889
  120OSM    C9S12646   6.288   3.732   7.308 -0.2879 -0.0341 -0.2508
  120OSM    H9S12647   6.201   3.669   7.281  0.6501 -0.9746 -1.1546
  120OSM    H9T12648   6.273   3.839   7.333  1.0188  0.4476 -1.4334
  120OSM   C10S12649   6.341   3.656   7.432  0.3190  0.0452  1.1720
  120OSM   H10S12650   6.445   3.693   7.445 -0.0530  0.5324  3.2696
  120OSM   H10T12651   6.335   3.548   7.409  0.5335  0.4162 -0.7253
  120OSM   C11S12652   6.275   3.684   7.564 -0.1398 -0.3016 -0.1214
  120OSM   H11S12653   6.173   3.639   7.574  0.1555 -1.0583 -0.4235
  120OSM   H11T12654   6.267   3.793   7.579  2.2398 -0.1904  0.7338
  120OSM   C12S12655   6.359   3.642   7.681 -0.1194  0.5926  0.0990
  120OSM   H12S12656   6.456   3.695   7.683 -0.5373  1.3606  2.2969
  120OSM   H12T12657   6.386   3.536   7.660 -1.6500  0.1753  0.1126
  120OSM   C13S12658   6.289   3.668   7.813 -0.6057  0.2342 -0.0521
  120OSM   H13S12659   6.180   3.646   7.809 -0.7992  0.5660  2.2690
  120OSM   H13T12660   6.307   3.775   7.835  0.9023  0.0221 -0.1571
  120OSM   C14S12661   6.350   3.588   7.932  0.0494 -0.1260  0.7920
  120OSM   H14S12662   6.460   3.595   7.931  0.1742 -1.7376  0.0588
  120OSM   H14T12663   6.324   3.482   7.913 -0.4898  0.2868 -0.9402
  120OSM   C15S12664   6.288   3.626   8.071 -0.7180 -0.3843  0.0775
  120OSM   H15S12665   6.177   3.625   8.070 -0.8417  2.3915  0.8626
  120OSM   H15T12666   6.317   3.733   8.080 -3.1229  0.3248  0.1101
  120OSM   C16S12667   6.353   3.542   8.182  0.2714  0.0268 -0.8583
  120OSM   H16S12668   6.464   3.545   8.184  0.2533  0.5990 -0.4552
  120OSM   H16T12669   6.323   3.435   8.172  0.6901 -0.5900  2.8790
  120OSM   C17S12670   6.300   3.583   8.321 -0.1283 -0.2160  0.3624
  120OSM   H17S12671   6.192   3.607   8.328 -0.4689 -1.3719 -0.6520
  120OSM   H17T12672   6.356   3.673   8.355  0.9301 -1.4661  2.1123
  120OSM   C18S12673   6.321   3.484   8.436 -0.7300  0.3944 -0.4971
  120OSM   H18S12674   6.303   3.527   8.537  1.9657  2.4571 -0.7851
  120OSM   H18T12675   6.426   3.452   8.450 -0.6425  0.7485 -0.3265
  120OSM   H18U12676   6.268   3.387   8.428 -1.8870  0.8860  0.8121
  120OSM    C1F12677   6.013   4.208   6.918 -1.1132 -0.1877 -0.1803
  120OSM     OF12678   5.902   4.228   6.874  0.1323 -1.0249  0.1391
  120OSM    C2F12679   6.045   4.252   7.056  0.6019  0.1925  0.3236
  120OSM    H2F12680   6.091   4.353   7.047  1.5533 -0.4181 -3.8921
  120OSM    H2G12681   6.128   4.184   7.086 -1.5611 -1.8866  1.9828
  120OSM    C3F12682   5.930   4.253   7.148  0.4041  0.7819 -0.4934
  120OSM    H3F12683   5.872   4.158   7.149  1.8061 -0.2970  4.0614
  120OSM    H3G12684   5.856   4.335   7.135 -0.1516  0.5022  0.7130
  120OSM    C4F12685   5.978   4.246   7.297 -0.3092 -0.3303 -0.2031
  120OSM    H4F12686   6.048   4.159   7.303 -0.2483 -0.2725 -0.0864
  120OSM    H4G12687   5.892   4.233   7.365  1.0550  1.1661  1.9351
  120OSM    C5F12688   6.044   4.381   7.338  0.1256  1.0040  0.4384
  120OSM    H5F12689   6.017   4.460   7.266  2.1623 -0.1168 -1.6720
  120OSM    H5G12690   6.152   4.360   7.327 -0.3204 -0.8269 -0.9620
  120OSM    C6F12691   6.002   4.420   7.486  0.2277 -0.3877  0.1654
  120OSM    H6F12692   5.892   4.435   7.485 -0.1239 -2.6325 -0.1760
  120OSM    H6G12693   6.041   4.523   7.499 -0.7353  0.3623 -2.2485
  120OSM    C7F12694   6.035   4.320   7.596  0.4847 -0.0236 -0.4500
  120OSM    H7F12695   6.141   4.287   7.586  0.0576 -2.1993  1.3439
  120OSM    H7G12696   5.968   4.232   7.583 -0.1230 -0.1525  2.7849
  120OSM    C8F12697   6.017   4.375   7.738 -0.3092  0.0298  0.1960
  120OSM    H8F12698   6.024   4.282   7.799 -3.3257 -1.5124 -1.6037
  120OSM    H8G12699   5.913   4.406   7.762 -0.7169 -1.4764  0.4650
  120OSM    C9F12700   6.113   4.480   7.789  0.3356 -0.4549 -0.1953
  120OSM    H9F12701   6.085   4.584   7.768 -0.0050 -0.3878  0.5535
  120OSM   C10F12702   6.226   4.463   7.854  0.0460  0.3646 -0.7566
  120OSM   H10F12703   6.272   4.555   7.893 -0.3116 -0.7260  2.5394
  120OSM   C11F12704   6.281   4.335   7.898  0.4540 -0.2378 -0.5395
  120OSM   H11F12705   6.391   4.345   7.896  0.6990 -2.3732  0.1783
  120OSM   H11G12706   6.253   4.255   7.826 -1.3954  0.8112 -1.0732
  120OSM   C12F12707   6.227   4.302   8.033 -0.3342 -0.1631 -0.4228
  120OSM   H12F12708   6.245   4.198   8.069  0.0294 -0.0902 -0.3923
  120OSM   H12G12709   6.116   4.301   8.025 -0.4905  1.3951  1.0608
  120OSM   C13F12710   6.267   4.397   8.143 -0.0306 -0.9176  0.2717
  120OSM   H13F12711   6.258   4.504   8.116  0.8224 -0.5586  1.3750
  120OSM   H13G12712   6.376   4.378   8.151  0.1796  1.0286  3.6455
  120OSM   C14F12713   6.203   4.372   8.276 -0.4141  0.2063 -0.4245
  120OSM   H14F12714   6.227   4.268   8.310 -0.0158  0.4411  0.0210
  120OSM   H14G12715   6.093   4.391   8.270 -0.2690  1.3145  0.1545
  120OSM   C15F12716   6.267   4.461   8.380 -0.5673 -0.0831  0.1653
  120OSM   H15F12717   6.234   4.561   8.344 -0.1641  0.6569  1.7235
  120OSM   H15G12718   6.378   4.462   8.369 -0.6331 -0.3382 -0.5069
  120OSM   C16F12719   6.229   4.455   8.527 -0.2298 -0.0917  0.2967
  120OSM   H16F12720   6.230   4.351   8.566  1.5649  0.2877  1.3367
  120OSM   H16G12721   6.119   4.464   8.516 -0.0396  1.2652 -0.8701
  120OSM   C17F12722   6.287   4.547   8.630 -1.2440 -0.2363 -0.8174
  120OSM   H17F12723   6.394   4.564   8.607 -1.3007  2.2391  0.3870
  120OSM   H17G12724   6.303   4.495   8.727 -0.9242 -0.6959 -1.1136
  120OSM   C18F12725   6.239   4.687   8.642  0.5938 -0.9764 -0.2166
  120OSM   H18F12726   6.270   4.733   8.547  0.8862  1.6839  1.0798
  120OSM   H18G12727   6.278   4.739   8.732 -2.5398  1.1569  0.0898
  120OSM   H18H12728   6.128   4.683   8.644  0.4647  1.1394  2.1286
  121OSM      N12729   0.707   6.143   6.046  0.5694  0.0524 -0.5409
  121OSM    C1512730   0.842   6.212   6.032  0.6451 -0.4212  0.7741
  121OSM   H15A12731   0.927   6.147   6.051  0.5524 -0.5148  0.8682
  121OSM   H15B12732   0.853   6.288   6.107  0.5785  1.1029 -0.6973
  121OSM   H15C12733   0.854   6.257   5.934 -2.0090 -0.9661  0.1365
  121OSM    C1412734   0.600   6.250   6.040  0.1098  0.1766  0.0296
  121OSM   H14A12735   0.604   6.319   6.123 -2.8955  1.8584 -1.0649
  121OSM   H14B12736   0.500   6.208   6.041  0.6715 -1.2312  1.2551
  121OSM   H14C12737   0.610   6.311   5.951  0.6589 -1.2974 -0.9739
  121OSM    C1312738   0.687   6.061   5.927  0.1696 -0.0324  0.5055
  121OSM   H13A12739   0.746   5.972   5.935 -0.1769 -0.4237 -1.0078
  121OSM   H13B12740   0.717   6.114   5.837 -1.5175  1.8669  0.9696
  121OSM   H13C12741   0.584   6.032   5.911 -0.0135  1.1488 -0.6967
  121OSM    C1212742   0.708   6.083   6.179 -0.0515 -0.1880 -0.0498
  121OSM   H12A12743   0.608   6.080   6.220  0.5494 -0.4991  1.4587
  121OSM   H12B12744   0.762   6.145   6.249 -0.3024  0.7188 -0.6465
  121OSM    C1112745   0.768   5.941   6.201  0.0074 -0.2586 -0.4118
  121OSM   H11A12746   0.761   5.922   6.310 -0.1606 -0.1970 -0.4115
  121OSM   H11B12747   0.872   5.942   6.162  0.0304 -1.5244 -0.4008
  121OSM      P12748   0.776   5.695   6.152 -0.0103 -0.4431 -0.5307
  121OSM    O1312749   0.675   5.588   6.137 -0.2414 -0.1883  0.3666
  121OSM    O1412750   0.888   5.687   6.059 -0.0809 -0.1510  0.1497
  121OSM    O1112751   0.825   5.692   6.296  0.2374  0.3421 -0.0071
  121OSM    O1212752   0.697   5.834   6.137  0.0573 -0.2520 -0.4262
  121OSM    C1S12753   0.768   5.618   6.407  0.3847 -0.8281 -0.1712
  121OSM    H1S12754   0.729   5.522   6.367 -1.5548  0.0425 -0.4914
  121OSM    H1T12755   0.675   5.654   6.455  1.1829  1.6034 -0.2931
  121OSM     NF12756   0.806   5.528   6.628  0.2771 -0.0374 -0.2239
  121OSM    HNF12757   0.793   5.568   6.718  0.1787 -1.9511  0.6527
  121OSM    C2S12758   0.863   5.604   6.520 -0.7954  0.0422 -0.0803
  121OSM    H2S12759   0.958   5.560   6.484  0.0035  1.7802 -0.2247
  121OSM    C3S12760   0.920   5.735   6.570 -1.0899 -0.9973 -0.4032
  121OSM    H3S12761   0.832   5.801   6.586 -1.1613 -0.9875 -0.8418
  121OSM     O312762   1.018   5.788   6.475 -0.2611  0.5156  0.6936
  121OSM    HO312763   1.016   5.736   6.395  3.2385  1.5972 -0.2836
  121OSM    C4S12764   0.995   5.726   6.702  0.3930 -0.2436  0.2586
  121OSM    H4S12765   1.093   5.676   6.697  1.7292  2.2927 -1.2598
  121OSM    C5S12766   0.946   5.773   6.816 -0.1820 -0.1476 -0.0128
  121OSM    H5S12767   0.846   5.818   6.803 -0.0915 -0.0810 -0.5104
  121OSM    C6S12768   1.009   5.786   6.961  0.4528  0.1012  0.2752
  121OSM    H6S12769   0.996   5.893   6.988 -0.1268 -0.0760  0.7334
  121OSM    H6T12770   1.113   5.749   6.963  0.7296  0.8974  1.4679
  121OSM    C7S12771   0.935   5.698   7.065  0.3171 -0.8352  0.2681
  121OSM    H7S12772   0.994   5.700   7.160 -1.0896 -0.6611  1.1661
  121OSM    H7T12773   0.923   5.591   7.040 -2.0276 -0.5381 -0.0248
  121OSM    C8S12774   0.798   5.761   7.087  0.6010  0.1591 -0.0471
  121OSM    H8S12775   0.750   5.741   6.988 -0.2420  1.9686 -0.0373
  121OSM    H8T12776   0.805   5.871   7.095 -0.0689  0.1810  0.3451
  121OSM    C9S12777   0.716   5.701   7.206 -0.0512  0.2892  0.5945
  121OSM    H9S12778   0.701   5.591   7.194  0.5503 -0.1331  3.2327
  121OSM    H9T12779   0.616   5.749   7.197  0.2961  1.0197  0.5609
  121OSM   C10S12780   0.771   5.712   7.347  0.5795 -0.0505 -0.4502
  121OSM   H10S12781   0.830   5.806   7.357  1.0750 -0.4283  0.2508
  121OSM   H10T12782   0.838   5.626   7.364  1.2603 -0.0302 -2.7422
  121OSM   C11S12783   0.668   5.714   7.459 -0.2533  0.5481  0.3412
  121OSM   H11S12784   0.599   5.627   7.457  0.1775  0.1893  0.7875
  121OSM   H11T12785   0.609   5.808   7.456 -0.5534  0.3442 -2.9325
  121OSM   C12S12786   0.744   5.718   7.597  0.6229 -0.2414 -0.1999
  121OSM   H12S12787   0.820   5.797   7.579  0.3528 -0.1295 -0.8769
  121OSM   H12T12788   0.799   5.622   7.604  0.1042 -0.5772 -0.6139
  121OSM   C13S12789   0.649   5.739   7.715  0.7357 -0.0771  0.0341
  121OSM   H13S12790   0.581   5.652   7.706 -0.3519  0.7902 -0.4264
  121OSM   H13T12791   0.586   5.830   7.704 -0.1137 -0.6975 -0.3578
  121OSM   C14S12792   0.702   5.741   7.855  0.3012 -0.0345 -0.3527
  121OSM   H14S12793   0.755   5.647   7.881  0.1125 -0.1084 -0.2322
  121OSM   H14T12794   0.620   5.745   7.930  0.6787 -1.6046  0.1649
  121OSM   C15S12795   0.804   5.856   7.882 -0.2759  0.2165 -0.0637
  121OSM   H15S12796   0.754   5.955   7.876  0.3221  0.5466  0.3250
  121OSM   H15T12797   0.876   5.857   7.797 -0.1979  2.1757 -0.0163
  121OSM   C16S12798   0.872   5.839   8.020 -0.2214  0.1230 -0.2602
  121OSM   H16S12799   0.928   5.743   8.011  1.3513  1.1056 -1.6613
  121OSM   H16T12800   0.805   5.824   8.107 -0.1571 -2.2109 -0.5496
  121OSM   C17S12801   0.978   5.946   8.044 -0.3411 -0.1692 -0.3713
  121OSM   H17S12802   0.939   6.042   8.004 -1.6774  0.3018  1.9112
  121OSM   H17T12803   1.072   5.931   7.987 -0.5091  0.2536 -0.7700
  121OSM   C18S12804   1.011   5.958   8.194  0.4186 -0.1483  0.3486
  121OSM   H18S12805   0.922   5.932   8.254 -0.0793 -0.0714 -0.3420
  121OSM   H18T12806   1.055   6.055   8.226  0.8117 -0.9157  2.2219
  121OSM   H18U12807   1.090   5.880   8.202  0.4004 -0.3537 -1.0785
  121OSM    C1F12808   0.768   5.405   6.613 -0.1620 -0.5213 -0.3582
  121OSM     OF12809   0.799   5.337   6.518  0.1087  0.5494  0.3335
  121OSM    C2F12810   0.674   5.368   6.723 -0.7400  0.4952  0.5909
  121OSM    H2F12811   0.580   5.344   6.668 -0.7191 -0.1765  0.8313
  121OSM    H2G12812   0.666   5.452   6.795 -0.2861  0.8336  0.2448
  121OSM    C3F12813   0.725   5.246   6.796  0.3077  0.7767  0.7062
  121OSM    H3F12814   0.754   5.168   6.723  1.6674  3.1928 -1.5477
  121OSM    H3G12815   0.651   5.215   6.873 -1.4436 -0.4969 -1.3775
  121OSM    C4F12816   0.854   5.291   6.871 -0.0102  0.1336  0.1336
  121OSM    H4F12817   0.843   5.390   6.920  0.9468  0.9307 -1.2098
  121OSM    H4G12818   0.939   5.309   6.803  0.7895 -0.5257  0.9289
  121OSM    C5F12819   0.903   5.186   6.977 -0.3789  0.1591  0.0054
  121OSM    H5F12820   0.925   5.094   6.918 -3.4181 -0.9663  0.4428
  121OSM    H5G12821   0.816   5.161   7.041 -0.7433  1.9270  0.2254
  121OSM    C6F12822   1.031   5.237   7.051 -0.2504 -0.0705  0.3258
  121OSM    H6F12823   1.006   5.325   7.115 -1.7977 -1.0896  1.1906
  121OSM    H6G12824   1.108   5.272   6.979  0.2052  4.6819  2.7201
  121OSM    C7F12825   1.075   5.131   7.151 -0.2790  0.4842  0.7103
  121OSM    H7F12826   1.074   5.030   7.104  0.6199  0.2082  1.2718
  121OSM    H7G12827   1.002   5.130   7.234 -1.9926  0.9902 -0.7083
  121OSM    C8F12828   1.217   5.136   7.213 -0.1670  0.3457  0.7187
  121OSM    H8F12829   1.232   5.239   7.251 -0.0570  1.0995 -1.2354
  121OSM    H8G12830   1.282   5.127   7.123 -0.1364 -0.2456  0.7961
  121OSM    C9F12831   1.259   5.028   7.309 -0.1739 -0.8007  0.7737
  121OSM    H9F12832   1.335   4.960   7.268  1.8356  2.9177 -2.4251
  121OSM   C10F12833   1.219   5.011   7.431 -0.5067  0.1154 -0.1758
  121OSM   H10F12834   1.276   4.939   7.492  2.1242  1.0512 -1.4088
  121OSM   C11F12835   1.135   5.104   7.508  0.0117  0.0408 -1.0755
  121OSM   H11F12836   1.052   5.042   7.548 -0.5156  1.1479 -0.3922
  121OSM   H11G12837   1.090   5.180   7.440  1.6555 -0.8298 -3.2774
  121OSM   C12F12838   1.196   5.165   7.638 -0.1718 -0.4214 -0.0473
  121OSM   H12F12839   1.113   5.222   7.684  0.7868  0.4186  0.6858
  121OSM   H12G12840   1.281   5.231   7.610 -0.1801  0.0942  1.1092
  121OSM   C13F12841   1.227   5.065   7.745  0.3622  0.4378  0.8796
  121OSM   H13F12842   1.306   5.001   7.699 -1.2444 -1.7292  0.9672
  121OSM   H13G12843   1.142   4.998   7.770 -0.1228  0.9403  0.6086
  121OSM   C14F12844   1.287   5.131   7.867 -0.1476 -0.7611 -0.3581
  121OSM   H14F12845   1.199   5.155   7.931 -0.0621  0.1998 -0.5836
  121OSM   H14G12846   1.342   5.222   7.835 -1.7673 -0.4599 -2.5241
  121OSM   C15F12847   1.388   5.035   7.937  1.3976 -0.6519 -0.4339
  121OSM   H15F12848   1.466   5.018   7.860 -0.5207  2.8295 -3.4441
  121OSM   H15G12849   1.336   4.940   7.965 -0.4636  0.5321  0.3235
  121OSM   C16F12850   1.439   5.090   8.070 -0.5277 -0.3766  0.1363
  121OSM   H16F12851   1.513   5.021   8.115 -0.5329  0.4201  1.4095
  121OSM   H16G12852   1.363   5.110   8.149  0.1418  0.6144  0.5437
  121OSM   C17F12853   1.510   5.226   8.058 -0.2896 -0.1042 -0.2582
  121OSM   H17F12854   1.436   5.301   8.023 -0.9025 -0.0235  1.1239
  121OSM   H17G12855   1.595   5.220   7.987  0.8998  0.3955  1.0696
  121OSM   C18F12856   1.556   5.277   8.195 -0.1634 -0.1724 -0.3952
  121OSM   H18F12857   1.468   5.290   8.261  0.5554  1.3792  0.3085
  121OSM   H18G12858   1.616   5.370   8.184 -1.0834  0.3535 -1.1223
  121OSM   H18H12859   1.627   5.213   8.250 -1.9961  0.0858  2.4913
  122OSM      N12860   0.426   1.211   5.873  0.1113 -0.4902  0.9718
  122OSM    C1512861   0.559   1.199   5.943  0.1447 -0.0735  0.1736
  122OSM   H15A12862   0.594   1.284   6.001 -1.3648  0.8144 -0.1669
  122OSM   H15B12863   0.631   1.197   5.862 -1.2010  0.1343 -1.0602
  122OSM   H15C12864   0.565   1.110   6.004  1.0066  0.8427  1.5006
  122OSM    C1412865   0.433   1.321   5.769 -0.1789  0.5904  0.5948
  122OSM   H14A12866   0.499   1.290   5.690  0.4569  3.0313  0.0657
  122OSM   H14B12867   0.482   1.411   5.803  1.2352  0.3186 -0.6428
  122OSM   H14C12868   0.335   1.341   5.729 -0.8312  0.6105  2.1549
  122OSM    C1312869   0.396   1.086   5.794  0.1086  0.2353 -0.4468
  122OSM   H13A12870   0.365   1.002   5.855 -1.6171  1.3447  0.2703
  122OSM   H13B12871   0.483   1.057   5.737  1.6498  0.7733  1.5056
  122OSM   H13C12872   0.315   1.105   5.725 -0.3648 -0.3557 -0.0618
  122OSM    C1212873   0.317   1.238   5.977 -0.1813 -0.1043  0.2104
  122OSM   H12A12874   0.335   1.342   6.000 -1.3719  0.9544 -3.1669
  122OSM   H12B12875   0.327   1.187   6.072  0.0378 -0.9291 -0.2406
  122OSM    C1112876   0.168   1.256   5.933  0.3107 -0.1733  0.0242
  122OSM   H11A12877   0.172   1.321   5.844 -1.2532  0.7561  0.6034
  122OSM   H11B12878   0.108   1.317   6.004  0.3430  0.3907 -0.4295
  122OSM      P12879  -0.034   1.118   5.881  0.4868 -0.3296  0.3028
  122OSM    O1312880  -0.064   1.210   5.764 -0.2848  0.4435  0.5545
  122OSM    O1412881  -0.063   0.972   5.860 -0.2327  0.1489  0.1519
  122OSM    O1112882  -0.109   1.168   6.005 -0.4337  0.1262 -0.2175
  122OSM    O1212883   0.118   1.121   5.912 -0.0967  0.2015 -0.2100
  122OSM    C1S12884  -0.088   1.137   6.144 -0.6269  0.7050  0.9599
  122OSM    H1S12885   0.021   1.144   6.166 -0.8056  0.6080  1.8870
  122OSM    H1T12886  -0.134   1.038   6.163  0.2127  0.0654 -0.1621
  122OSM     NF12887  -0.115   1.247   6.378 -0.2385  0.6561  0.1880
  122OSM    HNF12888  -0.181   1.199   6.436  0.3356 -0.5809 -0.1322
  122OSM    C2S12889  -0.148   1.256   6.230  0.3062  1.1161 -0.0495
  122OSM    H2S12890  -0.104   1.348   6.188  1.0162 -0.2742 -2.5567
  122OSM    C3S12891  -0.300   1.254   6.199 -0.5167  0.4044  1.0581
  122OSM    H3S12892  -0.342   1.154   6.225 -0.8893  0.1483 -0.4394
  122OSM     O312893  -0.325   1.284   6.065  0.5060  1.2936  0.0668
  122OSM    HO312894  -0.242   1.260   6.021  0.2280  1.2623 -0.4473
  122OSM    C4S12895  -0.364   1.358   6.283 -0.2534  0.3909  0.9554
  122OSM    H4S12896  -0.307   1.452   6.273 -0.1662  0.1079 -2.1808
  122OSM    C5S12897  -0.473   1.339   6.357 -0.4764 -0.0125 -0.1930
  122OSM    H5S12898  -0.516   1.238   6.362  0.9126 -0.6548 -0.8929
  122OSM    C6S12899  -0.529   1.438   6.453  0.3961  0.4058  0.1446
  122OSM    H6S12900  -0.564   1.386   6.545 -2.2882  0.7380 -0.6173
  122OSM    H6T12901  -0.624   1.479   6.415 -0.3019 -1.2328  0.0869
  122OSM    C7S12902  -0.437   1.556   6.507 -1.0079 -0.6571 -0.0468
  122OSM    H7S12903  -0.400   1.614   6.419 -2.3947  0.6013  0.1573
  122OSM    H7T12904  -0.342   1.516   6.547 -0.8169 -0.3224 -0.1601
  122OSM    C8S12905  -0.501   1.639   6.610  1.0195  0.1795  0.0839
  122OSM    H8S12906  -0.607   1.661   6.585  0.7456  1.6103  2.2411
  122OSM    H8T12907  -0.452   1.739   6.609  0.4793  0.4558 -0.8304
  122OSM    C9S12908  -0.486   1.575   6.747 -0.1890  0.4017  0.3760
  122OSM    H9S12909  -0.385   1.530   6.761 -0.4026 -0.5089 -0.8244
  122OSM    H9T12910  -0.550   1.484   6.747  1.6248 -0.9358  0.6224
  122OSM   C10S12911  -0.519   1.657   6.876 -0.1099  1.0724  0.4576
  122OSM   H10S12912  -0.620   1.691   6.847 -1.8386 -3.3418  0.5130
  122OSM   H10T12913  -0.447   1.740   6.886  1.7746 -0.6681  2.5134
  122OSM   C11S12914  -0.526   1.562   7.003  0.3404 -0.5740 -0.1358
  122OSM   H11S12915  -0.429   1.508   7.005  1.9812  2.2325  0.5822
  122OSM   H11T12916  -0.608   1.487   6.989 -0.1881 -0.3373  1.5173
  122OSM   C12S12917  -0.557   1.651   7.121  0.7713  0.0321  0.4718
  122OSM   H12S12918  -0.628   1.727   7.081  0.8036  0.0608  0.4684
  122OSM   H12T12919  -0.466   1.714   7.129  0.1009  1.2007 -0.5782
  122OSM   C13S12920  -0.584   1.576   7.250 -0.4445  0.2343 -0.2914
  122OSM   H13S12921  -0.522   1.484   7.254  1.2784  1.3741  0.0631
  122OSM   H13T12922  -0.690   1.540   7.253 -0.0549 -0.9326  1.9525
  122OSM   C14S12923  -0.555   1.666   7.375  0.2839  0.2090  0.6145
  122OSM   H14S12924  -0.594   1.769   7.362 -0.4337  0.2481  2.6759
  122OSM   H14T12925  -0.445   1.655   7.392  0.2388 -0.7154  0.3596
  122OSM   C15S12926  -0.640   1.615   7.492  0.0396 -0.5315 -0.1343
  122OSM   H15S12927  -0.629   1.508   7.519  1.9693  0.3192  2.8980
  122OSM   H15T12928  -0.749   1.634   7.476 -0.1510 -1.4041  0.0727
  122OSM   C16S12929  -0.625   1.691   7.624 -0.4564 -0.2349  0.5366
  122OSM   H16S12930  -0.713   1.675   7.690 -0.6973  1.6895  0.7511
  122OSM   H16T12931  -0.627   1.802   7.612  0.6279  0.1118  2.8500
  122OSM   C17S12932  -0.494   1.645   7.705  0.0855  0.1598  0.8747
  122OSM   H17S12933  -0.404   1.681   7.651  0.0346 -0.1203  0.5945
  122OSM   H17T12934  -0.499   1.534   7.698 -0.0456  0.1907  0.4214
  122OSM   C18S12935  -0.488   1.690   7.844 -0.5983 -0.1114  0.1666
  122OSM   H18S12936  -0.393   1.669   7.898  0.8495 -2.4772 -2.9771
  122OSM   H18T12937  -0.559   1.643   7.914  0.1073  1.8698  2.3552
  122OSM   H18U12938  -0.509   1.800   7.845 -1.6344 -0.2939 -0.3330
  122OSM    C1F12939   0.010   1.263   6.427 -0.0563  0.0171 -0.6183
  122OSM     OF12940   0.100   1.285   6.349 -0.4344 -0.1036  0.1105
  122OSM    C2F12941   0.033   1.239   6.574 -0.3446 -0.1518  0.1368
  122OSM    H2F12942  -0.003   1.134   6.581 -0.5600 -0.1893 -1.2385
  122OSM    H2G12943  -0.036   1.300   6.635 -0.7180 -1.8668  1.5248
  122OSM    C3F12944   0.181   1.268   6.612  0.1104 -0.0805 -0.4115
  122OSM    H3F12945   0.209   1.365   6.566  0.2763  0.3689  0.6191
  122OSM    H3G12946   0.238   1.181   6.574  1.5650  1.2475 -1.3980
  122OSM    C4F12947   0.205   1.296   6.766 -0.3615  0.3476 -0.4776
  122OSM    H4F12948   0.120   1.365   6.787 -1.5411 -1.4572  1.0422
  122OSM    H4G12949   0.304   1.340   6.792 -0.6461  0.5804  0.2516
  122OSM    C5F12950   0.180   1.180   6.852  0.0298  0.4902  0.2272
  122OSM    H5F12951   0.266   1.110   6.852  0.0789  0.5482  0.3761
  122OSM    H5G12952   0.097   1.121   6.808  2.0329 -2.3100 -0.0248
  122OSM    C6F12953   0.160   1.211   7.001 -0.0538  0.0559 -0.0130
  122OSM    H6F12954   0.149   1.112   7.049 -2.5274  0.6447  0.7436
  122OSM    H6G12955   0.065   1.266   7.012 -1.0533 -1.0713 -2.2621
  122OSM    C7F12956   0.280   1.289   7.060  0.2004  0.5817  0.3440
  122OSM    H7F12957   0.288   1.389   7.012  1.0025  0.2464 -0.2502
  122OSM    H7G12958   0.374   1.233   7.040 -1.4389 -2.5581  0.7606
  122OSM    C8F12959   0.259   1.326   7.202  0.2232  0.1902  0.2852
  122OSM    H8F12960   0.155   1.362   7.215  0.6701  1.8785 -0.5712
  122OSM    H8G12961   0.336   1.400   7.233  1.1843 -0.7509  0.1966
  122OSM    C9F12962   0.287   1.205   7.288  0.0265  0.3129 -0.0638
  122OSM    H9F12963   0.216   1.120   7.288  1.6035 -1.0504  0.0991
  122OSM   C10F12964   0.397   1.180   7.362 -0.3449  0.1574  0.5213
  122OSM   H10F12965   0.399   1.078   7.403  2.1993 -0.0548  0.0393
  122OSM   C11F12966   0.523   1.259   7.385 -0.1592 -0.5924 -0.9173
  122OSM   H11F12967   0.546   1.329   7.302 -0.2738  1.7918  0.9601
  122OSM   H11G12968   0.615   1.196   7.389  0.1328 -0.3429 -2.8102
  122OSM   C12F12969   0.511   1.343   7.520 -0.1088 -0.3114  0.9797
  122OSM   H12F12970   0.425   1.413   7.509 -0.6193 -0.9832  0.5867
  122OSM   H12G12971   0.598   1.412   7.517 -2.3066  2.7591  2.2237
  122OSM   C13F12972   0.501   1.264   7.648 -0.8153  0.0675  0.8076
  122OSM   H13F12973   0.590   1.199   7.660 -0.4859  0.0150 -1.5688
  122OSM   H13G12974   0.408   1.206   7.671 -1.3578  0.7501  0.3834
  122OSM   C14F12975   0.513   1.368   7.764 -0.5154  0.1113  0.3285
  122OSM   H14F12976   0.422   1.433   7.760  0.2006  1.3947  2.7510
  122OSM   H14G12977   0.607   1.426   7.760 -2.3961  3.3549 -1.8306
  122OSM   C15F12978   0.495   1.288   7.892 -0.6459 -0.2339 -0.2781
  122OSM   H15F12979   0.585   1.224   7.901 -0.1107  0.2246 -2.0221
  122OSM   H15G12980   0.417   1.209   7.886  0.3488 -1.3205  0.5833
  122OSM   C16F12981   0.474   1.375   8.015 -1.1021 -0.7875  0.6959
  122OSM   H16F12982   0.377   1.425   7.997  0.2200  1.7984  0.3032
  122OSM   H16G12983   0.553   1.452   8.008  1.1414 -3.0554 -0.4462
  122OSM   C17F12984   0.472   1.300   8.145  0.0156  0.9033 -0.2219
  122OSM   H17F12985   0.545   1.217   8.156 -0.5823 -0.0662 -2.7452
  122OSM   H17G12986   0.370   1.257   8.152 -0.7750  2.8722  1.1621
  122OSM   C18F12987   0.489   1.389   8.271  0.0954 -0.3602  0.0666
  122OSM   H18F12988   0.493   1.340   8.371  2.6177  2.2838  1.4096
  122OSM   H18G12989   0.410   1.466   8.284  0.8342  0.5061 -0.4857
  122OSM   H18H12990   0.584   1.446   8.266  0.4696 -0.9444  0.3069
  123OSM      N12991   5.371   2.012   6.503 -0.4647  0.4390  0.1468
  123OSM    C1512992   5.228   1.972   6.540 -0.4644 -0.5687 -0.4378
  123OSM   H15A12993   5.157   2.040   6.496 -1.4991  0.3053  2.3555
  123OSM   H15B12994   5.218   1.986   6.647  3.4470  2.2424 -0.1924
  123OSM   H15C12995   5.203   1.873   6.508  1.3059 -1.0581 -0.4052
  123OSM    C1412996   5.480   1.933   6.576  0.7217 -0.0876  0.1300
  123OSM   H14A12997   5.466   1.938   6.683 -0.9171  0.0773 -0.0634
  123OSM   H14B12998   5.578   1.976   6.561  0.5321  0.6812  0.9354
  123OSM   H14C12999   5.484   1.830   6.545  0.9046 -0.1590  0.3867
  123OSM    C1313000   5.388   2.000   6.354 -1.0120 -0.1838 -0.6325
  123OSM   H13A13001   5.350   1.904   6.322 -0.0445 -1.3644  1.5549
  123OSM   H13B13002   5.493   2.004   6.329 -0.7576 -0.2435  0.3688
  123OSM   H13C13003   5.346   2.080   6.295  0.4588 -0.1946 -1.7353
  123OSM    C1213004   5.383   2.170   6.528 -0.3490  0.2244  0.8331
  123OSM   H12A13005   5.313   2.220   6.462 -2.0516 -0.0096  2.3580
  123OSM   H12B13006   5.478   2.203   6.491 -0.2789 -0.8415  0.0047
  123OSM    C1113007   5.351   2.219   6.673  0.3439 -0.1946  0.1284
  123OSM   H11A13008   5.399   2.317   6.691  1.9230 -0.9747  0.2645
  123OSM   H11B13009   5.393   2.158   6.756 -1.7172 -0.1014  1.3092
  123OSM      P13010   5.119   2.334   6.621 -0.0987 -0.2245  0.1403
  123OSM    O1313011   5.166   2.370   6.486 -0.1119 -0.0567  0.8644
  123OSM    O1413012   4.971   2.303   6.636  0.2291  0.6934  0.2103
  123OSM    O1113013   5.150   2.462   6.713  0.1062  0.0533 -0.3229
  123OSM    O1213014   5.208   2.216   6.685  0.4098  0.1901 -0.5335
  123OSM    C1S13015   5.142   2.478   6.854  0.1995 -0.3788 -0.2149
  123OSM    H1S13016   5.238   2.496   6.906  0.2249 -1.0331 -0.0280
  123OSM    H1T13017   5.085   2.394   6.899 -1.5652  0.5243 -0.6617
  123OSM     NF13018   5.013   2.599   7.030 -0.0520 -0.4484  0.9537
  123OSM    HNF13019   4.915   2.587   7.038 -0.0955 -0.2042  0.8160
  123OSM    C2S13020   5.060   2.611   6.892 -0.1899 -0.8344 -0.0544
  123OSM    H2S13021   5.133   2.694   6.885 -0.3192 -0.6755  0.4967
  123OSM    C3S13022   4.942   2.657   6.797  0.0476  0.0330  0.0951
  123OSM    H3S13023   4.861   2.581   6.800 -1.7766  1.7267 -2.6362
  123OSM     O313024   4.989   2.659   6.665  0.3527 -0.3709 -0.1874
  123OSM    HO313025   5.064   2.602   6.678  0.1938 -0.2940  1.2109
  123OSM    C4S13026   4.892   2.793   6.839  0.5934 -0.0470  0.1328
  123OSM    H4S13027   4.965   2.871   6.816 -0.9739  1.2831 -0.5462
  123OSM    C5S13028   4.772   2.819   6.893  0.2694  0.2421  0.5229
  123OSM    H5S13029   4.703   2.734   6.904  0.4014  0.0675  0.0282
  123OSM    C6S13030   4.715   2.952   6.943  0.1730  0.6231 -0.0138
  123OSM    H6S13031   4.615   2.972   6.899  0.4962 -0.9965 -1.6209
  123OSM    H6T13032   4.786   3.036   6.926  0.8084  0.5982  2.1845
  123OSM    C7S13033   4.690   2.950   7.100  0.4023  0.1150  0.4706
  123OSM    H7S13034   4.793   2.938   7.140  0.6256  0.1593 -0.0776
  123OSM    H7T13035   4.644   2.855   7.133  0.5559 -0.4296 -0.8162
  123OSM    C8S13036   4.628   3.070   7.164 -0.0572 -0.1244 -0.2316
  123OSM    H8S13037   4.518   3.067   7.175 -0.0619  1.7799  0.6689
  123OSM    H8T13038   4.653   3.161   7.105  2.2155  0.2017  1.1111
  123OSM    C9S13039   4.673   3.104   7.310 -1.3532 -0.0914  0.3182
  123OSM    H9S13040   4.781   3.129   7.320 -0.6633 -3.1120  1.4788
  123OSM    H9T13041   4.661   3.013   7.372  0.7286 -0.9852 -0.4970
  123OSM   C10S13042   4.584   3.209   7.383 -0.5120  0.5217 -0.2488
  123OSM   H10S13043   4.483   3.164   7.394 -0.6355  1.1456  1.4565
  123OSM   H10T13044   4.589   3.301   7.321  0.5420 -1.2427 -2.9798
  123OSM   C11S13045   4.645   3.257   7.515  0.3197 -0.2568 -0.2569
  123OSM   H11S13046   4.593   3.355   7.530 -0.3849 -0.7120  0.3639
  123OSM   H11T13047   4.752   3.277   7.495 -0.0864  1.3894 -1.0413
  123OSM   C12S13048   4.622   3.165   7.630  0.4394  0.0571  0.2301
  123OSM   H12S13049   4.667   3.069   7.598  0.7234  0.8109 -1.7087
  123OSM   H12T13050   4.511   3.152   7.632  0.4081 -0.2079 -1.5653
  123OSM   C13S13051   4.674   3.219   7.760  0.5390  0.1571 -0.7862
  123OSM   H13S13052   4.656   3.146   7.842 -0.8361  2.3648  1.0014
  123OSM   H13T13053   4.618   3.311   7.787  0.1491 -0.2472 -0.2103
  123OSM   C14S13054   4.824   3.257   7.754  0.0915 -0.3660  0.1494
  123OSM   H14S13055   4.842   3.350   7.695  1.5432  1.1052  2.7238
  123OSM   H14T13056   4.882   3.176   7.705 -0.5875 -0.3923 -0.6495
  123OSM   C15S13057   4.879   3.295   7.893 -0.5822  0.0551 -0.4984
  123OSM   H15S13058   4.795   3.348   7.943 -1.2073  0.9159 -2.3408
  123OSM   H15T13059   4.952   3.377   7.874 -0.2961 -0.6581 -2.8216
  123OSM   C16S13060   4.939   3.195   7.986 -0.0544  0.2948  0.9280
  123OSM   H16S13061   5.016   3.137   7.930  4.0022  2.2002  4.0841
  123OSM   H16T13062   4.870   3.116   8.023 -2.1361  1.2308 -0.6974
  123OSM   C17S13063   5.004   3.258   8.111  0.1816  0.5779  0.0085
  123OSM   H17S13064   5.013   3.180   8.189 -0.4020  0.8108  0.3086
  123OSM   H17T13065   4.936   3.339   8.146  0.5832  1.8051 -1.8872
  123OSM   C18S13066   5.141   3.318   8.089  0.4642  0.3234 -0.2893
  123OSM   H18S13067   5.205   3.239   8.044 -0.4537 -0.9828  0.5983
  123OSM   H18T13068   5.190   3.342   8.186  0.0079  1.7971 -0.4001
  123OSM   H18U13069   5.135   3.401   8.016 -0.9775 -0.3984 -1.0392
  123OSM    C1F13070   5.099   2.602   7.138  0.3670  0.0754 -0.6260
  123OSM     OF13071   5.218   2.596   7.129 -0.0289  0.2025 -0.1673
  123OSM    C2F13072   5.025   2.594   7.274 -0.6311 -0.3351  0.2940
  123OSM    H2F13073   4.973   2.496   7.286 -2.0830 -0.0786 -2.8120
  123OSM    H2G13074   4.956   2.681   7.280 -0.0326  0.0714  1.4809
  123OSM    C3F13075   5.126   2.590   7.387  0.1804  0.7291  0.1967
  123OSM    H3F13076   5.209   2.663   7.375  1.3938 -0.0498  2.9568
  123OSM    H3G13077   5.184   2.496   7.376 -1.0682 -0.4604  2.9792
  123OSM    C4F13078   5.078   2.604   7.527 -0.8475 -0.9859 -0.9381
  123OSM    H4F13079   4.992   2.537   7.551 -1.5937  0.2320 -0.1437
  123OSM    H4G13080   5.038   2.704   7.553 -1.6412 -1.7630  1.0006
  123OSM    C5F13081   5.180   2.560   7.640  0.4179 -0.9133 -0.3186
  123OSM    H5F13082   5.269   2.626   7.632 -0.4990  0.0983 -4.1687
  123OSM    H5G13083   5.218   2.457   7.621  0.5096 -1.1017  0.8043
  123OSM    C6F13084   5.120   2.568   7.781  0.2819  0.1161 -0.1929
  123OSM    H6F13085   5.023   2.520   7.804  1.8733 -2.3154  1.9603
  123OSM    H6G13086   5.115   2.678   7.800  2.1772  0.0998  0.7064
  123OSM    C7F13087   5.207   2.497   7.890 -0.6581 -0.3044  0.0717
  123OSM    H7F13088   5.307   2.544   7.873  0.0260 -2.4800 -2.6083
  123OSM    H7G13089   5.198   2.386   7.888 -1.2967 -0.3149  1.8797
  123OSM    C8F13090   5.159   2.527   8.039 -0.2562 -0.1408  0.2025
  123OSM    H8F13091   5.056   2.485   8.042 -0.0650 -0.7864 -1.4816
  123OSM    H8G13092   5.165   2.637   8.055 -0.2254  0.0864 -1.2189
  123OSM    C9F13093   5.250   2.463   8.134  0.3641  0.6366 -0.1238
  123OSM    H9F13094   5.350   2.430   8.101 -0.2151 -0.2429 -1.0719
  123OSM   C10F13095   5.214   2.425   8.258 -0.3806  0.4764 -0.9939
  123OSM   H10F13096   5.279   2.354   8.310  0.9171  0.6058 -2.3417
  123OSM   C11F13097   5.079   2.438   8.329 -0.9882 -0.0844 -0.0240
  123OSM   H11F13098   5.001   2.478   8.261 -0.5534  1.2614  0.2410
  123OSM   H11G13099   5.084   2.516   8.408  2.2763 -1.7987  1.6754
  123OSM   C12F13100   5.027   2.307   8.391 -0.8799 -0.4914 -0.0216
  123OSM   H12F13101   5.037   2.222   8.321 -2.8536 -0.8713  0.1085
  123OSM   H12G13102   4.923   2.311   8.431 -0.2359 -0.6763  1.7682
  123OSM   C13F13103   5.103   2.258   8.517  0.3841  0.0887 -0.0362
  123OSM   H13F13104   5.069   2.314   8.607 -1.9868 -0.1577 -0.7189
  123OSM   H13G13105   5.214   2.248   8.517  0.3170 -1.7794 -2.3208
  123OSM   C14F13106   5.061   2.109   8.541  0.1445  0.3213  0.6308
  123OSM   H14F13107   5.114   2.043   8.469 -0.1053 -0.0267  0.7618
  123OSM   H14G13108   4.952   2.113   8.519  0.1532 -0.1868  0.4798
  123OSM   C15F13109   5.103   2.057   8.677  0.2574  0.4199  0.4542
  123OSM   H15F13110   5.020   2.077   8.749 -1.7078  0.7696 -1.8074
  123OSM   H15G13111   5.199   2.093   8.721  1.2354 -2.8500  1.2583
  123OSM   C16F13112   5.133   1.912   8.681  0.7833 -0.4765 -0.4700
  123OSM   H16F13113   5.211   1.883   8.608  2.7662  1.5466  0.7191
  123OSM   H16G13114   5.034   1.864   8.664  0.3775 -0.4058  1.4480
  123OSM   C17F13115   5.189   1.881   8.829  0.4901  0.3708  0.1697
  123OSM   H17F13116   5.119   1.924   8.903 -0.5423  0.6736 -0.9518
  123OSM   H17G13117   5.284   1.936   8.842  0.0263  0.8157  1.8404
  123OSM   C18F13118   5.194   1.725   8.855 -0.2990 -1.0528  0.3641
  123OSM   H18F13119   5.228   1.698   8.957  0.0907  0.0042  0.5331
  123OSM   H18G13120   5.272   1.677   8.792  1.7992 -1.0552  2.7874
  123OSM   H18H13121   5.090   1.690   8.842 -0.5183 -0.1244 -0.5786
  124OSM      N13122   0.183   0.512   6.273  0.2241 -0.4254  0.3204
  124OSM    C1513123   0.043   0.537   6.232  0.4231 -0.8744  0.1826
  124OSM   H15A13124  -0.029   0.466   6.270  1.0025 -0.9544  1.1901
  124OSM   H15B13125   0.030   0.531   6.125  3.5635  1.5863 -0.5025
  124OSM   H15C13126   0.010   0.636   6.261  0.3875 -0.5360 -0.9844
  124OSM    C1413127   0.267   0.626   6.217  0.2927 -0.8744  0.5767
  124OSM   H14A13128   0.208   0.714   6.238  1.7978  0.4998 -0.6382
  124OSM   H14B13129   0.284   0.640   6.111  1.6603  1.1214  0.9883
  124OSM   H14C13130   0.363   0.632   6.267  0.2857 -0.4258  0.5407
  124OSM    C1313131   0.180   0.518   6.422  0.0493  0.2506 -0.3004
  124OSM   H13A13132   0.272   0.492   6.472 -0.6208  0.5118  1.1131
  124OSM   H13B13133   0.098   0.456   6.456  1.1132 -0.2657  1.4185
  124OSM   H13C13134   0.159   0.617   6.462  1.7635 -0.2353  1.9588
  124OSM    C1213135   0.235   0.382   6.234 -0.3111  0.6626  0.2132
  124OSM   H12A13136   0.323   0.362   6.293 -0.9638 -1.8964  0.4053
  124OSM   H12B13137   0.268   0.388   6.132  1.1075  0.5270  0.6386
  124OSM    C1113138   0.140   0.257   6.260 -0.3090  0.3299  0.1739
  124OSM   H11A13139   0.108   0.258   6.367  2.0103 -0.2487  0.9517
  124OSM   H11B13140   0.184   0.159   6.231 -0.8529  0.1969 -0.2007
  124OSM      P13141  -0.090   0.159   6.187 -0.0766 -0.3952  0.0203
  124OSM    O1313142  -0.233   0.213   6.162 -0.0977  0.7885 -0.0113
  124OSM    O1413143  -0.034   0.053   6.105 -0.0981  0.1096  0.0923
  124OSM    O1113144  -0.082   0.100   6.331  0.2611 -0.1967  0.2058
  124OSM    O1213145   0.019   0.270   6.191 -0.4353  0.2218  0.0451
  124OSM    C1S13146  -0.140   0.156   6.447  0.1333 -0.6883 -0.6766
  124OSM    H1S13147  -0.249   0.164   6.430  0.3498 -1.3972 -2.6664
  124OSM    H1T13148  -0.099   0.255   6.476  1.5384 -1.9441  2.0170
  124OSM     NF13149  -0.213   0.101   6.679  0.7465 -0.5347  0.4937
  124OSM    HNF13150  -0.187   0.156   6.758 -0.0125  0.8758 -0.1954
  124OSM    C2S13151  -0.122   0.062   6.567 -0.7128  0.7340 -0.6669
  124OSM    H2S13152  -0.143  -0.042   6.535 -1.4868  0.1633  1.5470
  124OSM    C3S13153   0.033   0.057   6.604  0.1054 -0.0568  0.8961
  124OSM    H3S13154   0.070   0.157   6.634  1.1173  0.2535 -1.1406
  124OSM     O313155   0.119   0.006   6.501 -0.1713 -0.4093 -0.5513
  124OSM    HO313156   0.066   0.042   6.430 -2.3449  2.5340  2.2827
  124OSM    C4S13157   0.044  -0.033   6.722  0.2098  0.8502 -0.1189
  124OSM    H4S13158   0.022  -0.139   6.701  2.7720  0.7228 -2.8222
  124OSM    C5S13159   0.098   0.004   6.842  0.0369  0.5619  0.3521
  124OSM    H5S13160   0.119   0.110   6.863 -0.7340  0.9179 -0.5902
  124OSM    C6S13161   0.099  -0.093   6.954  0.1687  0.7200 -0.5318
  124OSM    H6S13162   0.050  -0.188   6.926 -0.9230  1.4409 -1.1452
  124OSM    H6T13163   0.043  -0.051   7.041 -0.2255 -1.6156  0.3996
  124OSM    C7S13164   0.245  -0.141   6.988 -0.2836 -0.4417 -0.8154
  124OSM    H7S13165   0.296  -0.049   7.022 -1.9127 -0.0230  0.6485
  124OSM    H7T13166   0.298  -0.176   6.898  0.9417 -1.1925  0.1673
  124OSM    C8S13167   0.267  -0.252   7.092  0.5295 -0.4130 -0.0301
  124OSM    H8S13168   0.376  -0.274   7.093  1.1987  2.3872  2.3317
  124OSM    H8T13169   0.201  -0.339   7.071  1.1608 -0.9054 -0.0030
  124OSM    C9S13170   0.230  -0.203   7.234 -0.6522  0.1557 -0.7364
  124OSM    H9S13171   0.273  -0.286   7.292 -3.6891 -1.3428 -0.4315
  124OSM    H9T13172   0.119  -0.211   7.241 -0.6933 -2.6660 -2.9319
  124OSM   C10S13173   0.279  -0.063   7.273 -0.7696  0.5148 -0.7794
  124OSM   H10S13174   0.242   0.022   7.212  3.1615  1.6973 -1.8266
  124OSM   H10T13175   0.389  -0.045   7.276 -1.0641  2.4432 -0.4950
  124OSM   C11S13176   0.234  -0.038   7.425  0.2909 -0.9119 -0.0082
  124OSM   H11S13177   0.137  -0.092   7.424  2.1056 -4.4848  0.9107
  124OSM   H11T13178   0.225   0.071   7.447  1.0835 -0.2809 -2.4234
  124OSM   C12S13179   0.329  -0.116   7.510 -0.3555  0.0705  0.0714
  124OSM   H12S13180   0.429  -0.070   7.498 -0.6194  0.3518 -1.2306
  124OSM   H12T13181   0.326  -0.223   7.481  0.0826 -0.0441  0.4422
  124OSM   C13S13182   0.286  -0.118   7.661  0.1082 -0.6789  0.2483
  124OSM   H13S13183   0.176  -0.118   7.680  0.1555 -1.0244  0.5311
  124OSM   H13T13184   0.313  -0.016   7.695  0.0734  1.3991 -4.9714
  124OSM   C14S13185   0.349  -0.227   7.747 -0.2860 -0.0015 -0.7317
  124OSM   H14S13186   0.458  -0.218   7.733  0.1178 -1.1230  1.3049
  124OSM   H14T13187   0.319  -0.332   7.723 -1.8044 -0.1386  1.4893
  124OSM   C15S13188   0.307  -0.201   7.895 -0.5487 -0.3615  0.1687
  124OSM   H15S13189   0.197  -0.216   7.904 -0.8497  1.3106 -0.2523
  124OSM   H15T13190   0.319  -0.092   7.912 -1.4238 -0.2036 -0.1643
  124OSM   C16S13191   0.390  -0.296   7.984  0.0088 -0.7107 -0.1017
  124OSM   H16S13192   0.500  -0.282   7.972 -0.0090  1.8732  1.8194
  124OSM   H16T13193   0.372  -0.405   7.970 -5.0059 -0.2198  0.5780
  124OSM   C17S13194   0.369  -0.264   8.138  0.0731  0.2089  0.7901
  124OSM   H17S13195   0.366  -0.153   8.146 -2.4198  0.1927  0.7576
  124OSM   H17T13196   0.458  -0.303   8.192  0.3631  0.1677  0.2877
  124OSM   C18S13197   0.233  -0.311   8.190  0.3948  0.4574  0.1037
  124OSM   H18S13198   0.157  -0.249   8.138  0.6528 -0.3126 -1.2535
  124OSM   H18T13199   0.225  -0.304   8.300  4.1995  0.1962  0.5154
  124OSM   H18U13200   0.223  -0.418   8.159 -1.3598  1.0484 -1.5736
  124OSM    C1F13201  -0.344   0.086   6.661 -0.1155 -0.0800 -0.5856
  124OSM     OF13202  -0.391   0.014   6.580 -0.2511  0.8476  0.4781
  124OSM    C2F13203  -0.437   0.165   6.747  0.3342 -0.3535 -0.3956
  124OSM    H2F13204  -0.545   0.159   6.722  0.1041 -0.1132  0.4998
  124OSM    H2G13205  -0.411   0.272   6.727  3.5930 -0.9930 -0.1460
  124OSM    C3F13206  -0.420   0.125   6.900  0.2774  0.1843  0.1536
  124OSM    H3F13207  -0.447   0.017   6.905 -0.9302  0.5141  2.0819
  124OSM    H3G13208  -0.507   0.176   6.948 -0.6085 -1.5107  0.4218
  124OSM    C4F13209  -0.293   0.165   6.968  0.0162  0.6415  0.0322
  124OSM    H4F13210  -0.274   0.269   6.934  2.9897 -0.0295 -0.6665
  124OSM    H4G13211  -0.209   0.102   6.931 -2.3526 -1.8886 -1.4315
  124OSM    C5F13212  -0.300   0.177   7.116  0.3705 -0.1395 -0.5040
  124OSM    H5F13213  -0.313   0.078   7.163  3.3328 -0.3820  0.0241
  124OSM    H5G13214  -0.390   0.236   7.143  1.0090  1.0066 -0.7998
  124OSM    C6F13215  -0.175   0.247   7.178 -0.3123  0.3013  0.1944
  124OSM    H6F13216  -0.161   0.340   7.118 -2.6759  0.5849 -0.0159
  124OSM    H6G13217  -0.079   0.193   7.166 -1.0659 -0.7278 -1.7605
  124OSM    C7F13218  -0.188   0.299   7.318  0.2526 -0.1265 -1.0357
  124OSM    H7F13219  -0.270   0.374   7.314 -1.0519 -1.5548 -2.1417
  124OSM    H7G13220  -0.094   0.350   7.349 -1.5813  3.1749 -0.3987
  124OSM    C8F13221  -0.226   0.198   7.428 -0.1300 -0.3914 -0.2420
  124OSM    H8F13222  -0.129   0.147   7.450  0.7621  1.5661  0.5077
  124OSM    H8G13223  -0.288   0.121   7.377 -0.7163 -0.4356  0.5237
  124OSM    C9F13224  -0.309   0.258   7.542 -0.4605  0.1167 -0.2131
  124OSM    H9F13225  -0.418   0.265   7.534 -0.4386  0.5309 -0.1975
  124OSM   C10F13226  -0.249   0.326   7.644  0.5432 -0.9173 -0.1455
  124OSM   H10F13227  -0.307   0.370   7.727 -0.0733  1.7893 -1.8962
  124OSM   C11F13228  -0.102   0.345   7.658  0.3607 -0.1231  0.3516
  124OSM   H11F13229  -0.082   0.448   7.697 -0.3274  0.7474 -1.4733
  124OSM   H11G13230  -0.046   0.349   7.562  1.6515  1.7121  1.1296
  124OSM   C12F13231  -0.040   0.244   7.750  1.1603 -0.1445  0.1959
  124OSM   H12F13232   0.070   0.242   7.736  1.1053  2.1115 -0.8499
  124OSM   H12G13233  -0.074   0.140   7.728  2.1299  0.0051 -2.3434
  124OSM   C13F13234  -0.069   0.251   7.899  0.4307  0.0466  0.3812
  124OSM   H13F13235  -0.174   0.221   7.917  0.1632  0.9563  0.3701
  124OSM   H13G13236  -0.058   0.357   7.929 -0.7232  0.7308 -1.4605
  124OSM   C14F13237   0.016   0.155   7.980 -0.7479  0.1878 -0.2535
  124OSM   H14F13238   0.105   0.221   7.991 -0.8744  0.2736  0.2793
  124OSM   H14G13239   0.036   0.065   7.918  1.1615  2.1569 -2.7062
  124OSM   C15F13240  -0.037   0.141   8.123 -0.8024 -0.2479  0.2132
  124OSM   H15F13241  -0.072   0.242   8.153  1.4525  0.0849  2.0866
  124OSM   H15G13242   0.048   0.127   8.194 -0.0501  1.4740 -0.2723
  124OSM   C16F13243  -0.153   0.047   8.140 -0.0824 -0.2490 -1.0613
  124OSM   H16F13244  -0.236   0.080   8.075  1.8826 -1.1563 -4.2355
  124OSM   H16G13245  -0.184   0.048   8.247  2.7957  0.1848 -0.1410
  124OSM   C17F13246  -0.122  -0.103   8.114  0.8161  0.6742 -0.0042
  124OSM   H17F13247  -0.016  -0.126   8.138  1.1285  1.3034 -0.7455
  124OSM   H17G13248  -0.142  -0.128   8.008  0.0115  1.0625  0.0459
  124OSM   C18F13249  -0.218  -0.209   8.190 -0.3419 -0.9516  0.2758
  124OSM   H18F13250  -0.225  -0.182   8.298 -2.5344 -0.2736  0.0143
  124OSM   H18G13251  -0.186  -0.314   8.172 -1.2694 -1.0446 -0.9355
  124OSM   H18H13252  -0.324  -0.213   8.156 -0.2107  0.9803 -0.4944
  125OSM      N13253   2.383   5.974   6.066 -0.2193 -0.1590 -0.0704
  125OSM    C1513254   2.275   5.898   5.993 -1.0443 -0.1954  0.1368
  125OSM   H15A13255   2.231   5.809   6.036 -2.1440  1.2279  2.1072
  125OSM   H15B13256   2.306   5.864   5.895 -0.0237  1.5155 -0.1549
  125OSM   H15C13257   2.192   5.965   5.977 -0.5711  0.1872 -0.7567
  125OSM    C1413258   2.420   6.094   5.982 -0.1069  0.5442  0.8684
  125OSM   H14A13259   2.333   6.155   5.965 -0.2259 -0.0407 -0.8475
  125OSM   H14B13260   2.453   6.064   5.883  1.9838 -0.0653  1.7032
  125OSM   H14C13261   2.497   6.158   6.023 -1.5504  2.8984  0.0986
  125OSM    C1313262   2.338   6.040   6.192 -0.1588 -0.1105 -0.0651
  125OSM   H13A13263   2.255   6.107   6.174 -0.5059  0.2900  2.5463
  125OSM   H13B13264   2.415   6.109   6.224  1.0101 -0.8737 -1.1400
  125OSM   H13C13265   2.322   5.970   6.273 -3.4593  0.6817  0.1167
  125OSM    C1213266   2.505   5.888   6.098 -0.1756  0.1185 -0.5016
  125OSM   H12A13267   2.593   5.947   6.118  0.9808 -1.6249 -0.2256
  125OSM   H12B13268   2.528   5.832   6.008  1.2721  3.4556 -2.3957
  125OSM    C1113269   2.495   5.788   6.220 -0.3937  0.0986  0.5667
  125OSM   H11A13270   2.467   5.837   6.315 -1.8529  1.0353 -0.3258
  125OSM   H11B13271   2.599   5.756   6.244 -1.1342 -1.6239  1.7148
  125OSM      P13272   2.460   5.525   6.206  0.0378 -0.2191  0.0779
  125OSM    O1313273   2.349   5.424   6.180  0.1479 -0.5466  0.6935
  125OSM    O1413274   2.578   5.512   6.122 -0.2507 -0.7910  0.0783
  125OSM    O1113275   2.511   5.518   6.359  0.3620  0.2102  0.2855
  125OSM    O1213276   2.404   5.675   6.187 -0.2613  0.1394  0.1364
  125OSM    C1S13277   2.407   5.533   6.451  0.2294 -0.1000  1.2261
  125OSM    H1S13278   2.348   5.439   6.458 -0.1042  0.0189  0.1924
  125OSM    H1T13279   2.340   5.621   6.438 -2.0766 -1.7417  1.4134
  125OSM     NF13280   2.367   5.561   6.704  0.2626  0.0330 -0.0306
  125OSM    HNF13281   2.351   5.645   6.755 -1.1429 -1.2708  1.8006
  125OSM    C2S13282   2.471   5.567   6.595  0.2344 -0.0351  0.2197
  125OSM    H2S13283   2.548   5.491   6.619  0.2280  0.6643  2.7431
  125OSM    C3S13284   2.554   5.701   6.587  0.6305  0.5286 -0.1680
  125OSM    H3S13285   2.494   5.784   6.543  1.7101  0.9709 -0.8438
  125OSM     O313286   2.661   5.691   6.498  0.3312  0.4159  0.0956
  125OSM    HO313287   2.641   5.616   6.441  2.7546 -1.6326  1.7105
  125OSM    C4S13288   2.609   5.725   6.720  0.4972  0.3818 -0.5153
  125OSM    H4S13289   2.672   5.649   6.768  2.8518  2.2094 -0.5107
  125OSM    C5S13290   2.583   5.837   6.789 -0.4475 -0.0887 -0.6338
  125OSM    H5S13291   2.512   5.914   6.754 -0.9973  0.1784  0.9724
  125OSM    C6S13292   2.626   5.856   6.935 -0.0670  0.1052 -0.3854
  125OSM    H6S13293   2.678   5.954   6.945 -0.3048  0.0529  2.1707
  125OSM    H6T13294   2.706   5.782   6.956  0.6008  1.0749  0.6595
  125OSM    C7S13295   2.514   5.819   7.037  0.2682  0.2499 -0.0785
  125OSM    H7S13296   2.491   5.711   7.025  1.3024  0.0988 -0.8081
  125OSM    H7T13297   2.418   5.869   7.010 -0.9177 -2.0436 -0.3134
  125OSM    C8S13298   2.551   5.852   7.177 -0.2109 -0.2414 -0.0731
  125OSM    H8S13299   2.616   5.942   7.173 -0.6455  0.2067  2.1107
  125OSM    H8T13300   2.617   5.767   7.207  2.2534  1.5768 -0.0255
  125OSM    C9S13301   2.429   5.851   7.276  0.5240 -0.2211 -0.7279
  125OSM    H9S13302   2.357   5.922   7.231  0.6352  0.7909  0.6189
  125OSM    H9T13303   2.458   5.897   7.373  1.4574  0.8358 -1.4688
  125OSM   C10S13304   2.357   5.720   7.288 -0.7081 -0.1141 -0.3675
  125OSM   H10S13305   2.438   5.651   7.320  0.4058  1.2221 -0.2349
  125OSM   H10T13306   2.309   5.676   7.198 -0.7528 -2.2309  0.6290
  125OSM   C11S13307   2.251   5.720   7.392  0.1556 -0.0086 -0.4868
  125OSM   H11S13308   2.170   5.793   7.369 -0.5652 -0.2415  1.2099
  125OSM   H11T13309   2.298   5.735   7.491 -0.5844 -1.9132  0.2049
  125OSM   C12S13310   2.181   5.580   7.411 -0.4122  0.0862 -0.4612
  125OSM   H12S13311   2.250   5.514   7.468 -2.2911  0.2495  2.1583
  125OSM   H12T13312   2.145   5.526   7.321  0.1967  1.6072 -1.6694
  125OSM   C13S13313   2.066   5.600   7.511  0.1312 -0.1002 -0.6483
  125OSM   H13S13314   1.999   5.512   7.519  1.1705 -0.8774 -0.3147
  125OSM   H13T13315   2.016   5.687   7.463  2.1670  0.2117 -2.2969
  125OSM   C14S13316   2.106   5.634   7.654 -0.0377 -0.3888 -0.7368
  125OSM   H14S13317   2.177   5.719   7.659  0.3062 -0.5559 -2.1857
  125OSM   H14T13318   2.154   5.545   7.700  2.7249  0.7685 -1.1534
  125OSM   C15S13319   1.982   5.683   7.735  0.0972  0.6768  0.1275
  125OSM   H15S13320   1.899   5.608   7.728  0.5177  0.3182 -1.4120
  125OSM   H15T13321   1.942   5.769   7.678 -0.0588  0.3044 -0.3391
  125OSM   C16S13322   2.000   5.704   7.892  0.2972  0.0432  0.2288
  125OSM   H16S13323   2.100   5.751   7.899  1.3475 -2.2426  1.2760
  125OSM   H16T13324   2.008   5.601   7.932 -0.3583 -0.5707 -1.1445
  125OSM   C17S13325   1.879   5.783   7.955 -0.0919  0.5163  0.2643
  125OSM   H17S13326   1.784   5.738   7.920 -0.1729  1.8734 -1.4182
  125OSM   H17T13327   1.886   5.886   7.914 -0.2943  0.2257 -0.5153
  125OSM   C18S13328   1.890   5.808   8.104  0.2172 -0.6683  0.1544
  125OSM   H18S13329   1.812   5.872   8.151  0.1817  0.1262 -0.9438
  125OSM   H18T13330   1.985   5.865   8.112  0.9324 -1.6796 -0.8797
  125OSM   H18U13331   1.921   5.719   8.163  1.6298  0.4339  1.1457
  125OSM    C1F13332   2.299   5.445   6.741 -0.3663 -0.5129  0.3274
  125OSM     OF13333   2.328   5.338   6.698 -0.3830  0.9345 -0.0504
  125OSM    C2F13334   2.198   5.479   6.843  0.1863 -0.5737  0.5002
  125OSM    H2F13335   2.109   5.514   6.787 -0.7688  1.1126  2.9210
  125OSM    H2G13336   2.236   5.563   6.906 -0.9405  0.2717  0.0885
  125OSM    C3F13337   2.149   5.365   6.927  0.1082  0.4535  0.1159
  125OSM    H3F13338   2.122   5.277   6.866  0.4983  1.1825 -1.1405
  125OSM    H3G13339   2.061   5.398   6.986 -1.0850 -0.6067 -0.9971
  125OSM    C4F13340   2.246   5.321   7.033  0.0315 -0.7041  0.6031
  125OSM    H4F13341   2.263   5.405   7.103  0.9336  0.9381 -1.4847
  125OSM    H4G13342   2.336   5.286   6.976 -1.0143  0.4384 -1.8989
  125OSM    C5F13343   2.189   5.207   7.112 -0.8604 -0.0680  0.4603
  125OSM    H5F13344   2.271   5.136   7.139 -0.3817 -0.4939 -1.8543
  125OSM    H5G13345   2.131   5.139   7.045  0.5595 -0.0093 -0.9187
  125OSM    C6F13346   2.107   5.248   7.234  0.3726 -0.0370  0.3647
  125OSM    H6F13347   2.016   5.292   7.189  1.1008  1.0922 -0.0627
  125OSM    H6G13348   2.157   5.334   7.284 -1.0622  1.0300  0.0325
  125OSM    C7F13349   2.072   5.140   7.339  0.4888  0.6271 -0.5267
  125OSM    H7F13350   2.162   5.075   7.346 -0.2146 -0.2670  0.4893
  125OSM    H7G13351   1.993   5.072   7.301 -0.5588  0.3016  2.0806
  125OSM    C8F13352   2.039   5.193   7.473 -0.2175 -0.1509  0.8033
  125OSM    H8F13353   1.953   5.263   7.466 -0.9132 -1.0305  0.3045
  125OSM    H8G13354   2.128   5.256   7.495 -1.5619  1.7824  0.8894
  125OSM    C9F13355   2.015   5.084   7.568  0.0767 -0.1611  0.2262
  125OSM    H9F13356   2.049   4.982   7.547 -3.5338 -1.4383 -0.1955
  125OSM   C10F13357   1.941   5.097   7.678 -0.1338  0.9192  0.1520
  125OSM   H10F13358   1.918   5.014   7.747 -1.7152 -0.4673 -1.9065
  125OSM   C11F13359   1.870   5.220   7.731 -0.2751  0.1083  0.2368
  125OSM   H11F13360   1.929   5.314   7.725 -1.1334  0.6710  0.4629
  125OSM   H11G13361   1.848   5.197   7.837 -0.6456 -0.3525  0.0603
  125OSM   C12F13362   1.734   5.250   7.661  0.2388 -0.5309  0.5836
  125OSM   H12F13363   1.653   5.187   7.705  0.7329 -2.0078 -0.5465
  125OSM   H12G13364   1.743   5.226   7.553  0.6950  0.6512  0.3409
  125OSM   C13F13365   1.682   5.395   7.674 -0.2792 -0.5103 -0.6321
  125OSM   H13F13366   1.761   5.465   7.640 -0.2980 -0.0400  0.2700
  125OSM   H13G13367   1.665   5.422   7.780 -1.7601 -1.4318 -0.6102
  125OSM   C14F13368   1.566   5.422   7.582  0.3947  0.0746  0.2798
  125OSM   H14F13369   1.531   5.525   7.605 -1.9584 -1.1495  2.6404
  125OSM   H14G13370   1.487   5.351   7.613 -0.9454  1.0858 -0.7217
  125OSM   C15F13371   1.598   5.407   7.434  0.8941 -0.3324 -0.4035
  125OSM   H15F13372   1.510   5.428   7.369  0.8725 -0.3637 -0.3846
  125OSM   H15G13373   1.620   5.300   7.412  0.6550 -1.0063  2.2654
  125OSM   C16F13374   1.709   5.501   7.379  0.0472  0.6625 -0.2741
  125OSM   H16F13375   1.802   5.464   7.426 -0.5753 -2.0490 -0.9617
  125OSM   H16G13376   1.693   5.607   7.406 -1.9313 -0.1739  2.2902
  125OSM   C17F13377   1.724   5.501   7.224 -0.2669  0.2549 -0.2947
  125OSM   H17F13378   1.624   5.525   7.181 -2.9364 -1.8053  4.0566
  125OSM   H17G13379   1.760   5.399   7.197  2.4210  1.0274  0.1132
  125OSM   C18F13380   1.823   5.603   7.183  0.6209  0.8024 -0.1788
  125OSM   H18F13381   1.832   5.597   7.072 -2.3319  0.2896 -0.4529
  125OSM   H18G13382   1.921   5.592   7.235 -0.1194 -1.1457  0.9007
  125OSM   H18H13383   1.777   5.699   7.217  2.5826  0.8819  2.6450
  126OSM      N13384   5.323   2.651   6.301 -0.1353  0.5759 -0.3099
  126OSM    C1513385   5.389   2.774   6.263 -0.6415 -0.3331  0.2305
  126OSM   H15A13386   5.324   2.860   6.258  0.5119  0.8360  3.1175
  126OSM   H15B13387   5.429   2.762   6.163  0.8515 -1.2428  0.8898
  126OSM   H15C13388   5.470   2.798   6.330 -1.6549 -1.4176  1.9338
  126OSM    C1413389   5.210   2.626   6.210 -0.5720  0.6968  0.5911
  126OSM   H14A13390   5.155   2.718   6.197  0.8179  1.8270  2.3352
  126OSM   H14B13391   5.164   2.535   6.245  0.0912  0.0003 -0.2685
  126OSM   H14C13392   5.248   2.610   6.110 -1.0428  0.4315  0.4493
  126OSM    C1313393   5.421   2.539   6.288 -0.1648 -0.3644 -0.0106
  126OSM   H13A13394   5.379   2.440   6.297 -1.4471  0.1647  0.0335
  126OSM   H13B13395   5.497   2.548   6.364 -1.3664 -2.2953  1.5324
  126OSM   H13C13396   5.471   2.535   6.193  1.1494 -1.9371  0.7158
  126OSM    C1213397   5.263   2.650   6.443  0.3905  0.1896  0.7810
  126OSM   H12A13398   5.195   2.566   6.449  0.3045  0.3039  1.5250
  126OSM   H12B13399   5.218   2.748   6.450 -0.3208  0.2472 -2.8011
  126OSM    C1113400   5.361   2.644   6.559 -0.1475  0.1483  0.2002
  126OSM   H11A13401   5.413   2.546   6.569 -0.9552 -0.1121  2.4532
  126OSM   H11B13402   5.297   2.643   6.650  0.6326 -2.4650  0.8260
  126OSM      P13403   5.598   2.749   6.605 -0.6534  0.0311  0.1665
  126OSM    O1313404   5.664   2.639   6.530 -0.0878  0.4870 -0.9070
  126OSM    O1413405   5.645   2.885   6.577 -0.1330  0.5244  0.1264
  126OSM    O1113406   5.602   2.716   6.764 -0.0695 -0.6576  0.0095
  126OSM    O1213407   5.443   2.758   6.566  0.0238 -0.2957  0.2389
  126OSM    C1S13408   5.515   2.631   6.842  0.3881  0.4260 -0.4057
  126OSM    H1S13409   5.523   2.526   6.806 -0.8245  0.4959 -0.9266
  126OSM    H1T13410   5.415   2.677   6.833  1.0372  2.2706  1.1331
  126OSM     NF13411   5.493   2.510   7.053  0.0054  0.4658  0.1729
  126OSM    HNF13412   5.408   2.527   7.101 -2.0482 -3.3236 -1.6923
  126OSM    C2S13413   5.554   2.625   6.988 -0.1196  0.2034 -1.0350
  126OSM    H2S13414   5.664   2.613   7.002 -0.6037 -2.1505  1.5388
  126OSM    C3S13415   5.517   2.757   7.063 -0.4615 -0.2492  0.2999
  126OSM    H3S13416   5.407   2.774   7.054 -0.8493 -1.9958  1.3382
  126OSM     O313417   5.577   2.872   7.001 -0.3419 -0.3013  0.1710
  126OSM    HO313418   5.597   2.838   6.913 -3.3215 -1.6521 -0.1248
  126OSM    C4S13419   5.572   2.758   7.200  1.0003 -0.2736 -0.2545
  126OSM    H4S13420   5.674   2.792   7.218  0.4317  0.5136  1.6431
  126OSM    C5S13421   5.493   2.723   7.296 -0.1570 -0.2276 -0.5778
  126OSM    H5S13422   5.393   2.692   7.264  0.2244 -1.4751 -0.6539
  126OSM    C6S13423   5.522   2.721   7.443  0.1794  0.2708 -0.0351
  126OSM    H6S13424   5.493   2.623   7.486 -2.0338  0.5723 -0.7187
  126OSM    H6T13425   5.464   2.797   7.501  0.9884  0.6314  0.3244
  126OSM    C7S13426   5.669   2.755   7.478  0.6651 -0.2286 -0.0629
  126OSM    H7S13427   5.697   2.852   7.431 -2.9600  0.8563 -0.3175
  126OSM    H7T13428   5.741   2.678   7.445  0.8936  0.3752 -1.0108
  126OSM    C8S13429   5.702   2.778   7.623 -0.2629  0.1290  0.0414
  126OSM    H8S13430   5.637   2.856   7.668 -0.6117 -0.3074  0.3001
  126OSM    H8T13431   5.810   2.803   7.634  0.0012 -0.7278 -0.5375
  126OSM    C9S13432   5.674   2.646   7.707 -0.5820 -0.1654 -0.1525
  126OSM    H9S13433   5.711   2.559   7.649 -2.3069 -1.0432  0.0093
  126OSM    H9T13434   5.565   2.646   7.728 -0.5479 -0.5089  0.0296
  126OSM   C10S13435   5.753   2.652   7.845  0.2148  0.2658  0.6850
  126OSM   H10S13436   5.864   2.650   7.835  0.0793  1.2545 -1.7030
  126OSM   H10T13437   5.722   2.560   7.898 -0.8453  0.1988 -0.0246
  126OSM   C11S13438   5.719   2.784   7.913 -0.0774  0.0171 -0.8934
  126OSM   H11S13439   5.619   2.780   7.962  0.5608 -2.3306  0.3353
  126OSM   H11T13440   5.714   2.876   7.851  0.5537  0.0314 -0.9240
  126OSM   C12S13441   5.812   2.811   8.035 -0.0646 -0.7805 -0.6325
  126OSM   H12S13442   5.806   2.723   8.103 -1.6631  1.3094  2.1162
  126OSM   H12T13443   5.787   2.896   8.101  2.7504 -0.9862  0.8608
  126OSM   C13S13444   5.959   2.846   7.992 -0.2257 -0.2817  0.1328
  126OSM   H13S13445   5.956   2.945   7.941 -2.2238  0.9812  2.4564
  126OSM   H13T13446   6.003   2.771   7.923  0.5260 -0.9005  1.2487
  126OSM   C14S13447   6.054   2.865   8.109 -0.0030  0.8178 -0.2210
  126OSM   H14S13448   6.085   2.764   8.144 -0.7962  0.9805  1.0095
  126OSM   H14T13449   5.994   2.911   8.190 -0.9341  0.3605 -0.6404
  126OSM   C15S13450   6.173   2.958   8.083 -0.6716  0.5963  0.3326
  126OSM   H15S13451   6.136   3.044   8.024  3.1696  0.1156 -3.3086
  126OSM   H15T13452   6.244   2.904   8.017  0.2759 -0.1415  1.8850
  126OSM   C16S13453   6.245   3.006   8.206  0.3140  0.3098  0.0431
  126OSM   H16S13454   6.298   2.917   8.246 -0.9287 -0.9647 -1.0046
  126OSM   H16T13455   6.167   3.034   8.281  0.7626 -3.3317  2.1058
  126OSM   C17S13456   6.339   3.122   8.176 -0.2294 -0.4272  0.1004
  126OSM   H17S13457   6.277   3.205   8.137  0.7337  0.7433  0.9562
  126OSM   H17T13458   6.416   3.088   8.104  1.6313  0.6885  1.4656
  126OSM   C18S13459   6.430   3.150   8.297 -0.1919  0.7646 -0.9054
  126OSM   H18S13460   6.371   3.182   8.386 -0.1833 -2.2740  0.3196
  126OSM   H18T13461   6.499   3.236   8.285  0.9828  0.4007  2.2707
  126OSM   H18U13462   6.487   3.062   8.333 -1.8816  1.2263  3.5715
  126OSM    C1F13463   5.514   2.374   7.017 -0.2381 -0.0815  0.7103
  126OSM     OF13464   5.616   2.336   6.963  0.1801  0.5709  0.7345
  126OSM    C2F13465   5.396   2.286   7.050 -0.3070 -0.7771 -0.2226
  126OSM    H2F13466   5.361   2.224   6.965 -1.8568 -1.5086  0.9128
  126OSM    H2G13467   5.305   2.350   7.057  0.4750  0.4442 -0.8334
  126OSM    C3F13468   5.409   2.213   7.187 -0.3506  0.2706 -0.3814
  126OSM    H3F13469   5.478   2.126   7.178 -0.9031 -0.1208 -0.9286
  126OSM    H3G13470   5.308   2.172   7.209  0.2459 -0.8005  0.4667
  126OSM    C4F13471   5.454   2.295   7.312 -0.5388  0.0565  0.1402
  126OSM    H4F13472   5.404   2.393   7.327  2.5113  2.1443 -1.9394
  126OSM    H4G13473   5.561   2.321   7.296 -0.7992  1.4618  0.5376
  126OSM    C5F13474   5.455   2.215   7.441 -0.3932  0.0160 -0.5334
  126OSM    H5F13475   5.519   2.125   7.433 -1.2495 -1.2528  4.0226
  126OSM    H5G13476   5.352   2.176   7.462 -0.4818  1.5424  2.4427
  126OSM    C6F13477   5.504   2.298   7.562  0.5775  0.0069  0.9206
  126OSM    H6F13478   5.454   2.397   7.553  2.9384  1.1476 -0.3004
  126OSM    H6G13479   5.612   2.313   7.546  0.4557 -0.4957 -0.5274
  126OSM    C7F13480   5.479   2.231   7.698 -0.3649  0.0443  0.9196
  126OSM    H7F13481   5.548   2.145   7.704 -0.7405 -0.3449 -0.1911
  126OSM    H7G13482   5.376   2.190   7.712 -0.9730  1.8030  1.9668
  126OSM    C8F13483   5.518   2.318   7.818 -0.9156  0.1409  0.7232
  126OSM    H8F13484   5.464   2.415   7.812  0.3671  0.8043 -0.7274
  126OSM    H8G13485   5.625   2.347   7.804 -1.1575 -0.0634 -1.9951
  126OSM    C9F13486   5.480   2.248   7.940  0.2155  0.1512 -0.4244
  126OSM    H9F13487   5.371   2.232   7.937  0.4961 -1.7348 -1.8973
  126OSM   C10F13488   5.554   2.216   8.044 -0.6091 -0.1895  0.6222
  126OSM   H10F13489   5.515   2.146   8.119 -0.5430  0.0823  0.9155
  126OSM   C11F13490   5.701   2.252   8.063  0.1218  0.0020  0.0632
  126OSM   H11F13491   5.744   2.266   7.962 -1.2061 -1.0501 -0.6928
  126OSM   H11G13492   5.755   2.175   8.122  2.8728  0.5373 -1.5917
  126OSM   C12F13493   5.709   2.380   8.143  0.4613  0.4087  0.0632
  126OSM   H12F13494   5.661   2.462   8.084  0.7787 -0.8150 -1.9839
  126OSM   H12G13495   5.813   2.418   8.152  0.5537 -0.3396  2.7699
  126OSM   C13F13496   5.643   2.384   8.277  0.5626 -0.2102  0.1778
  126OSM   H13F13497   5.704   2.325   8.348 -0.6474 -0.6175  0.9114
  126OSM   H13G13498   5.538   2.347   8.275  0.2669  0.6387 -0.3433
  126OSM   C14F13499   5.653   2.529   8.334  0.1173 -0.8291 -0.0131
  126OSM   H14F13500   5.557   2.578   8.309  0.9688  1.0121  0.1802
  126OSM   H14G13501   5.739   2.581   8.288  0.0366 -0.9703 -0.3235
  126OSM   C15F13502   5.659   2.530   8.486  0.1241 -0.9846  0.1418
  126OSM   H15F13503   5.763   2.504   8.517  0.6672 -1.5125 -1.9654
  126OSM   H15G13504   5.589   2.450   8.517 -0.5220  0.3408  2.3443
  126OSM   C16F13505   5.605   2.663   8.547 -0.5574  0.2675 -0.0165
  126OSM   H16F13506   5.599   2.667   8.658  0.2683  0.8576  0.0138
  126OSM   H16G13507   5.497   2.677   8.523 -0.3728 -0.3341 -1.2282
  126OSM   C17F13508   5.680   2.794   8.512 -0.2925  0.3988  0.2592
  126OSM   H17F13509   5.666   2.827   8.407  2.1004  0.3732 -0.1282
  126OSM   H17G13510   5.787   2.764   8.506  0.1357  1.5313  1.4741
  126OSM   C18F13511   5.657   2.908   8.607 -0.2039 -0.4498  0.0423
  126OSM   H18F13512   5.707   2.999   8.568 -0.3478 -1.6836 -3.3627
  126OSM   H18G13513   5.692   2.873   8.706  0.1389 -0.9319 -0.2437
  126OSM   H18H13514   5.547   2.927   8.616 -0.0189  0.1104  1.4444
  127OSM      N13515   3.799   2.918   6.354  0.4447 -0.5803  0.3136
  127OSM    C1513516   3.700   2.957   6.248 -1.1476  0.4672 -0.4560
  127OSM   H15A13517   3.683   3.062   6.263  1.5396  0.7967  0.8186
  127OSM   H15B13518   3.606   2.903   6.254 -0.0645 -1.6552 -1.4782
  127OSM   H15C13519   3.739   2.942   6.149  1.3603  1.4154  0.3094
  127OSM    C1413520   3.738   2.936   6.491 -0.0068  0.0672  0.8756
  127OSM   H14A13521   3.697   3.035   6.501 -0.8040 -0.1452 -0.1868
  127OSM   H14B13522   3.818   2.924   6.563  1.6192  1.1176 -0.6691
  127OSM   H14C13523   3.654   2.869   6.497  0.7657 -1.0828 -0.3606
  127OSM    C1313524   3.843   2.773   6.332  0.6916 -0.8897 -0.0962
  127OSM   H13A13525   3.890   2.746   6.239  0.1860  1.4395 -1.1097
  127OSM   H13B13526   3.758   2.707   6.330  0.0309 -0.0389 -0.7436
  127OSM   H13C13527   3.894   2.743   6.423 -1.5970 -0.1245  1.5358
  127OSM    C1213528   3.920   3.006   6.333 -0.3628 -0.8873  0.5001
  127OSM   H12A13529   3.964   2.994   6.235 -1.2072  2.2407 -0.3696
  127OSM   H12B13530   3.992   2.995   6.412 -1.1779  0.0602  1.4115
  127OSM    C1113531   3.888   3.164   6.344 -0.4494  1.0568  0.1332
  127OSM   H11A13532   3.830   3.164   6.439  1.0132 -1.8731  1.1729
  127OSM   H11B13533   3.836   3.204   6.255  2.3373  0.7859 -1.7376
  127OSM      P13534   3.999   3.387   6.379  0.5539  0.7064  0.3135
  127OSM    O1313535   4.125   3.447   6.344 -0.1168 -0.3049 -0.1693
  127OSM    O1413536   3.883   3.416   6.296  0.6307 -0.3883 -0.0456
  127OSM    O1113537   3.968   3.407   6.544 -0.4111  0.1821 -0.3601
  127OSM    O1213538   4.014   3.226   6.367  0.3251  0.2923  0.2015
  127OSM    C1S13539   4.073   3.359   6.626 -0.3200  0.0795 -0.1668
  127OSM    H1S13540   4.169   3.392   6.579 -1.5325  0.8387 -2.2502
  127OSM    H1T13541   4.063   3.248   6.630 -3.0029  0.2350 -0.9851
  127OSM     NF13542   4.170   3.366   6.862  0.6372 -0.0915 -0.3042
  127OSM    HNF13543   4.154   3.289   6.923  2.1216 -1.3929 -1.4675
  127OSM    C2S13544   4.056   3.400   6.777  0.7375 -0.4515  0.0660
  127OSM    H2S13545   4.049   3.511   6.777 -1.3372 -0.5488  0.9532
  127OSM    C3S13546   3.924   3.350   6.841  0.4651  0.4757 -0.0406
  127OSM    H3S13547   3.924   3.239   6.849 -1.2331  0.4358 -0.2666
  127OSM     O313548   3.807   3.379   6.754 -0.3289  0.0905 -0.7025
  127OSM    HO313549   3.844   3.406   6.670  1.9473  1.3481  0.6193
  127OSM    C4S13550   3.905   3.410   6.976  0.6900 -0.0920 -0.3325
  127OSM    H4S13551   3.853   3.507   6.970 -0.2786 -0.5898 -0.1858
  127OSM    C5S13552   3.913   3.353   7.102 -0.9984 -0.1029  0.2372
  127OSM    H5S13553   3.917   3.243   7.108  2.1349 -0.0768  0.5259
  127OSM    C6S13554   3.876   3.422   7.231  0.4081 -0.2027 -0.6321
  127OSM    H6S13555   3.947   3.373   7.301 -0.9832 -0.2697  0.8126
  127OSM    H6T13556   3.773   3.410   7.272  0.5628  0.2925 -0.0776
  127OSM    C7S13557   3.904   3.572   7.236  0.2172  0.6099  0.3153
  127OSM    H7S13558   3.837   3.630   7.170 -0.6472  0.5513  1.1290
  127OSM    H7T13559   4.009   3.588   7.201 -0.2993 -0.0316 -1.6555
  127OSM    C8S13560   3.915   3.629   7.374 -0.2257  0.1641  0.1766
  127OSM    H8S13561   3.966   3.728   7.372  3.4672 -1.5655 -0.4490
  127OSM    H8T13562   3.989   3.569   7.431 -1.0364 -1.4673 -0.4303
  127OSM    C9S13563   3.786   3.622   7.460  0.7162 -0.8811 -0.5288
  127OSM    H9S13564   3.741   3.523   7.485 -0.2219  0.3515  3.4807
  127OSM    H9T13565   3.715   3.682   7.399  2.3962  0.2291 -1.4718
  127OSM   C10S13566   3.797   3.692   7.596 -0.7853  0.3874  0.1284
  127OSM   H10S13567   3.700   3.700   7.651 -1.8397  2.5076 -1.8849
  127OSM   H10T13568   3.823   3.798   7.578  0.0488  0.4043  1.2670
  127OSM   C11S13569   3.902   3.644   7.696  0.6520  0.1572 -0.2250
  127OSM   H11S13570   4.001   3.691   7.680  1.3868 -0.6228  1.7867
  127OSM   H11T13571   3.932   3.540   7.671  0.4281  0.5811 -2.4525
  127OSM   C12S13572   3.875   3.647   7.847 -0.3414  0.4661  0.2083
  127OSM   H12S13573   3.777   3.606   7.879  0.6015 -1.5305  0.6906
  127OSM   H12T13574   3.868   3.756   7.865 -0.1846  0.4311  0.4817
  127OSM   C13S13575   3.995   3.605   7.933  0.4464 -0.6731 -0.0630
  127OSM   H13S13576   3.984   3.644   8.036 -0.2202  0.6862 -0.6334
  127OSM   H13T13577   4.087   3.641   7.882 -0.7897 -0.1708 -2.0457
  127OSM   C14S13578   4.006   3.452   7.961 -0.0403 -0.2512  0.3231
  127OSM   H14S13579   4.112   3.431   7.984 -0.0426 -1.9164 -0.9648
  127OSM   H14T13580   3.972   3.393   7.873  0.4337  1.3304 -0.9783
  127OSM   C15S13581   3.916   3.415   8.084 -0.5465 -0.2127  0.2089
  127OSM   H15S13582   3.886   3.308   8.079 -0.3722 -0.2750  0.5017
  127OSM   H15T13583   3.819   3.470   8.078 -0.2079  0.4873  1.0509
  127OSM   C16S13584   3.986   3.439   8.219 -0.7983 -0.3700 -0.3250
  127OSM   H16S13585   4.029   3.541   8.230 -1.3551 -0.1770  0.0608
  127OSM   H16T13586   4.075   3.373   8.212  1.0611  1.5440  2.6183
  127OSM   C17S13587   3.894   3.410   8.343 -0.3829  0.6746  0.4298
  127OSM   H17S13588   3.956   3.362   8.422  0.8385 -0.4084 -1.1172
  127OSM   H17T13589   3.824   3.339   8.294  0.8175  0.1998 -0.6643
  127OSM   C18S13590   3.827   3.529   8.403 -0.1417  0.1397 -0.2387
  127OSM   H18S13591   3.903   3.608   8.417  0.0379  0.4109 -2.4206
  127OSM   H18T13592   3.782   3.506   8.502 -0.0678  1.9380  0.2431
  127OSM   H18U13593   3.749   3.570   8.336 -1.2143  2.7710  2.3856
  127OSM    C1F13594   4.292   3.414   6.853  0.0699 -0.1818  0.4813
  127OSM     OF13595   4.333   3.499   6.774  0.2896 -0.2578 -0.0787
  127OSM    C2F13596   4.389   3.353   6.950  0.1795  0.4428  1.1096
  127OSM    H2F13597   4.483   3.363   6.891 -0.7298  1.8592 -0.1713
  127OSM    H2G13598   4.361   3.248   6.975  0.9192  0.0912  0.5424
  127OSM    C3F13599   4.415   3.440   7.077  0.0781 -0.5521 -0.5661
  127OSM    H3F13600   4.434   3.544   7.044  0.1915 -0.0035  1.1502
  127OSM    H3G13601   4.506   3.395   7.123  0.9530  0.7034 -1.0156
  127OSM    C4F13602   4.300   3.431   7.172  0.5232 -0.0376 -0.3735
  127OSM    H4F13603   4.300   3.338   7.233  3.4854 -1.8639 -2.8606
  127OSM    H4G13604   4.207   3.459   7.119 -0.5557 -0.3818  1.2599
  127OSM    C5F13605   4.306   3.548   7.276  0.3177  0.6996  0.1463
  127OSM    H5F13606   4.215   3.545   7.340  0.2954 -1.6301  0.0843
  127OSM    H5G13607   4.315   3.645   7.223  1.2267  0.1720 -0.6859
  127OSM    C6F13608   4.420   3.529   7.377 -0.4356 -0.6521  0.3034
  127OSM    H6F13609   4.516   3.508   7.326  0.4954  3.3332  0.0769
  127OSM    H6G13610   4.396   3.438   7.436  2.2690 -1.3328  0.4750
  127OSM    C7F13611   4.440   3.651   7.467 -0.5488 -0.4578 -0.4359
  127OSM    H7F13612   4.453   3.749   7.417 -1.9257 -0.1077 -0.1699
  127OSM    H7G13613   4.533   3.624   7.522 -1.5545 -0.5917  1.2886
  127OSM    C8F13614   4.318   3.666   7.569  0.6378 -0.4250 -0.0989
  127OSM    H8F13615   4.227   3.682   7.506  1.6195  2.4443 -0.9772
  127OSM    H8G13616   4.338   3.757   7.629  0.4143 -0.3904 -0.0761
  127OSM    C9F13617   4.326   3.547   7.654  0.1363  0.3629  0.5314
  127OSM    H9F13618   4.293   3.450   7.613 -0.2295 -0.5580  2.8018
  127OSM   C10F13619   4.341   3.531   7.786 -0.8113 -0.2009 -0.3621
  127OSM   H10F13620   4.349   3.429   7.826 -1.1741 -0.7145 -1.5729
  127OSM   C11F13621   4.364   3.648   7.883  0.2713 -0.1517  0.5076
  127OSM   H11F13622   4.285   3.648   7.961 -0.6318 -0.4352 -0.3855
  127OSM   H11G13623   4.356   3.744   7.827 -0.7039  1.0442  2.6026
  127OSM   C12F13624   4.502   3.643   7.949 -0.1844  0.5122 -1.1830
  127OSM   H12F13625   4.509   3.725   8.023 -1.6575 -0.7650  0.4632
  127OSM   H12G13626   4.581   3.657   7.872  0.4449 -0.9025 -0.8347
  127OSM   C13F13627   4.536   3.510   8.022 -0.4980 -0.6140  0.1997
  127OSM   H13F13628   4.634   3.525   8.072  0.2834 -0.2561 -1.3683
  127OSM   H13G13629   4.545   3.436   7.939 -0.5263 -1.2932  0.7885
  127OSM   C14F13630   4.430   3.458   8.114 -0.0107 -0.4330 -0.0838
  127OSM   H14F13631   4.348   3.434   8.044 -1.2103  3.3997 -0.2391
  127OSM   H14G13632   4.394   3.543   8.177  0.8940  1.1034 -1.5410
  127OSM   C15F13633   4.461   3.342   8.206 -0.2395  0.0549  0.0085
  127OSM   H15F13634   4.367   3.307   8.254  0.2696  1.3830  2.0748
  127OSM   H15G13635   4.528   3.382   8.285 -0.0976 -1.1624  0.5211
  127OSM   C16F13636   4.540   3.222   8.147  0.4992  0.1448 -0.2403
  127OSM   H16F13637   4.571   3.250   8.044 -1.1077  2.2064 -0.2481
  127OSM   H16G13638   4.473   3.134   8.135 -0.0816  0.8455 -2.9253
  127OSM   C17F13639   4.652   3.188   8.248 -0.5056 -0.0775 -0.4720
  127OSM   H17F13640   4.726   3.270   8.237  0.3974 -1.0949 -2.8835
  127OSM   H17G13641   4.694   3.090   8.216 -1.6305 -0.6052 -0.3649
  127OSM   C18F13642   4.615   3.155   8.399  0.2137 -0.2449 -0.0455
  127OSM   H18F13643   4.696   3.100   8.451  0.4917 -1.7998 -1.9957
  127OSM   H18G13644   4.527   3.087   8.396 -0.0845  0.1727 -1.2760
  127OSM   H18H13645   4.590   3.251   8.449 -1.4139 -0.8587  0.3951
  128OSM      N13646   4.139   1.067   6.113 -0.5437  0.0134  0.4048
  128OSM    C1513647   4.209   1.043   5.982 -0.2452  0.1593  0.3288
  128OSM   H15A13648   4.251   0.944   5.972  1.3517  0.7131  1.0628
  128OSM   H15B13649   4.293   1.111   5.976 -1.2641  1.5614  1.1495
  128OSM   H15C13650   4.150   1.054   5.893 -0.1380 -0.3374  0.1938
  128OSM    C1413651   4.074   1.198   6.105 -0.5077  0.1395  0.1314
  128OSM   H14A13652   4.150   1.275   6.098 -0.0212 -0.3847 -0.4968
  128OSM   H14B13653   4.030   1.225   6.200  1.9980  2.0238  0.8663
  128OSM   H14C13654   3.994   1.208   6.032 -0.0259 -2.3078 -0.8202
  128OSM    C1313655   4.041   0.955   6.141  0.0036  0.1672 -0.2286
  128OSM   H13A13656   3.990   0.984   6.232 -2.6429 -0.5715 -1.3636
  128OSM   H13B13657   4.087   0.858   6.147 -2.0442 -0.9653 -1.5062
  128OSM   H13C13658   3.965   0.941   6.065 -0.0011 -1.6527  0.0691
  128OSM    C1213659   4.240   1.071   6.232  0.7290  0.2752  0.3315
  128OSM   H12A13660   4.241   0.980   6.290 -1.3379  0.5413  0.8686
  128OSM   H12B13661   4.198   1.139   6.306 -0.0726 -0.5760  0.6732
  128OSM    C1113662   4.378   1.133   6.200 -0.3536  0.4918 -0.0156
  128OSM   H11A13663   4.429   1.052   6.145  0.1001 -0.3306  1.5559
  128OSM   H11B13664   4.425   1.129   6.301 -1.7514  0.1131  0.6447
  128OSM      P13665   4.371   1.394   6.218 -0.1046 -0.0765 -0.1120
  128OSM    O1313666   4.503   1.460   6.222 -0.2538  0.4154  0.0194
  128OSM    O1413667   4.258   1.477   6.167  0.2589  0.2876 -0.4089
  128OSM    O1113668   4.331   1.344   6.362  0.0128 -0.3813  0.0976
  128OSM    O1213669   4.385   1.262   6.133 -0.1333 -0.6098  0.1025
  128OSM    C1S13670   4.316   1.441   6.467 -0.0688  0.6167  0.1400
  128OSM    H1S13671   4.207   1.461   6.465 -0.0943  1.0192  2.5934
  128OSM    H1T13672   4.373   1.536   6.460 -0.6935  1.0493  0.7287
  128OSM     NF13673   4.298   1.472   6.708  0.6623  0.2893 -0.4263
  128OSM    HNF13674   4.366   1.520   6.763 -0.9584  2.0672  0.1851
  128OSM    C2S13675   4.343   1.379   6.607  0.0123  0.5949 -0.4900
  128OSM    H2S13676   4.283   1.286   6.611 -0.0160  0.6676  1.5778
  128OSM    C3S13677   4.492   1.336   6.618 -0.7468  0.0480 -0.8249
  128OSM    H3S13678   4.565   1.413   6.588  0.8381 -0.5554  1.2884
  128OSM     O313679   4.522   1.227   6.525  0.1734  0.3763 -0.1685
  128OSM    HO313680   4.437   1.203   6.485  0.6292 -0.3924 -0.7191
  128OSM    C4S13681   4.523   1.294   6.762  0.1891 -0.0007 -0.2840
  128OSM    H4S13682   4.589   1.356   6.825  1.5549 -2.7607  1.1725
  128OSM    C5S13683   4.465   1.190   6.827 -0.6747 -0.4034 -0.0665
  128OSM    H5S13684   4.405   1.115   6.774  0.8335 -1.8173  0.1535
  128OSM    C6S13685   4.479   1.156   6.969 -0.6824  0.2230  0.1675
  128OSM    H6S13686   4.578   1.189   7.008  0.2393 -1.0762 -0.9557
  128OSM    H6T13687   4.470   1.045   6.973 -1.7719  0.3230  0.7706
  128OSM    C7S13688   4.367   1.217   7.062  0.3767 -0.3475 -0.0880
  128OSM    H7S13689   4.263   1.203   7.025  0.4335  0.0977 -0.4280
  128OSM    H7T13690   4.378   1.327   7.055 -1.6331  0.0995  2.4029
  128OSM    C8S13691   4.382   1.170   7.207  0.7585  0.0126 -0.2773
  128OSM    H8S13692   4.475   1.216   7.248 -0.0985  1.6178 -0.0233
  128OSM    H8T13693   4.396   1.060   7.203  1.7110  0.1266 -0.1476
  128OSM    C9S13694   4.268   1.197   7.312 -0.4780 -0.6528 -0.3473
  128OSM    H9S13695   4.205   1.106   7.305  0.1991 -1.0220 -2.2905
  128OSM    H9T13696   4.225   1.298   7.296 -0.4343 -0.5313  0.2635
  128OSM   C10S13697   4.304   1.198   7.464  0.3147  0.2853  0.7814
  128OSM   H10S13698   4.381   1.278   7.477 -2.9656  3.7629  0.7379
  128OSM   H10T13699   4.363   1.107   7.486  0.5057  0.2476  0.1375
  128OSM   C11S13700   4.183   1.231   7.556 -0.5874  0.2340  0.5928
  128OSM   H11S13701   4.099   1.161   7.535 -0.0639 -0.0116 -0.8120
  128OSM   H11T13702   4.137   1.329   7.533 -1.3237 -0.4182 -0.8570
  128OSM   C12S13703   4.220   1.216   7.701 -0.5763  0.1448 -0.0938
  128OSM   H12S13704   4.246   1.109   7.717  0.0290  0.2554 -0.3064
  128OSM   H12T13705   4.127   1.235   7.759 -1.3839 -4.4135  0.5175
  128OSM   C13S13706   4.325   1.321   7.738 -0.2739 -0.1458 -0.1717
  128OSM   H13S13707   4.278   1.421   7.730  0.6509  0.1857 -2.0135
  128OSM   H13T13708   4.417   1.317   7.674  1.8026 -1.7446  2.6807
  128OSM   C14S13709   4.383   1.314   7.884  0.3634  0.3123 -0.1432
  128OSM   H14S13710   4.424   1.214   7.908 -1.3360 -0.8942 -1.9514
  128OSM   H14T13711   4.299   1.317   7.957 -0.6684 -3.0458 -0.9919
  128OSM   C15S13712   4.487   1.422   7.913 -0.6615  0.8161  0.2216
  128OSM   H15S13713   4.437   1.517   7.886  1.0735  2.6014  2.7650
  128OSM   H15T13714   4.572   1.407   7.843 -1.1753  0.3565 -0.3090
  128OSM   C16S13715   4.539   1.418   8.060 -0.1505  0.1365  0.6780
  128OSM   H16S13716   4.572   1.321   8.102 -2.5571  0.2490  3.1293
  128OSM   H16T13717   4.459   1.452   8.129  0.4105  0.6603  1.0831
  128OSM   C17S13718   4.655   1.516   8.069 -0.2842 -0.0372 -0.0922
  128OSM   H17S13719   4.628   1.618   8.036 -0.0717  0.9647  2.5681
  128OSM   H17T13720   4.740   1.489   8.002 -2.7327 -1.0624 -3.0101
  128OSM   C18S13721   4.691   1.546   8.215  0.4549  0.3489 -0.1304
  128OSM   H18S13722   4.609   1.571   8.285  0.0751  2.6549 -1.2996
  128OSM   H18T13723   4.753   1.638   8.216 -1.2506  1.5450  1.3055
  128OSM   H18U13724   4.748   1.462   8.260  0.0556  1.2158  2.0846
  128OSM    C1F13725   4.170   1.502   6.731  0.1496 -0.0857  0.5054
  128OSM     OF13726   4.078   1.459   6.659  1.2297 -0.0661 -0.1736
  128OSM    C2F13727   4.148   1.598   6.844 -0.2953 -0.6639  0.7262
  128OSM    H2F13728   4.159   1.704   6.812 -1.4470 -0.1495  1.9320
  128OSM    H2G13729   4.222   1.563   6.919  1.6772 -0.9410 -1.2435
  128OSM    C3F13730   4.012   1.586   6.913 -0.1039 -0.1739  0.2544
  128OSM    H3F13731   3.998   1.477   6.930  1.4535 -0.8932 -2.5513
  128OSM    H3G13732   3.934   1.623   6.844  1.9150  1.2814 -1.3690
  128OSM    C4F13733   4.002   1.656   7.048 -0.1462  0.7171  0.0122
  128OSM    H4F13734   3.900   1.630   7.082 -0.3188  0.3206 -0.7903
  128OSM    H4G13735   4.008   1.767   7.041 -1.0130  0.8886  1.5706
  128OSM    C5F13736   4.097   1.610   7.157  0.0912  0.3312  0.4020
  128OSM    H5F13737   4.193   1.658   7.127  0.2028 -1.1042 -1.8234
  128OSM    H5G13738   4.117   1.501   7.153 -0.7281  0.2064 -1.9057
  128OSM    C6F13739   4.043   1.639   7.298  0.0685  0.1658  0.4848
  128OSM    H6F13740   3.959   1.577   7.333 -2.3399  3.1950  0.4851
  128OSM    H6G13741   4.008   1.745   7.296 -1.7318 -0.4153 -0.5993
  128OSM    C7F13742   4.157   1.623   7.407  0.0449 -0.3635 -0.3235
  128OSM    H7F13743   4.237   1.697   7.385  0.1197 -1.1327 -3.0203
  128OSM    H7G13744   4.193   1.520   7.386  1.1690 -0.6071  2.4370
  128OSM    C8F13745   4.111   1.634   7.556 -0.6353  0.4244 -0.3531
  128OSM    H8F13746   4.204   1.629   7.615 -1.7571 -4.6836  1.4445
  128OSM    H8G13747   4.052   1.543   7.579  1.0997 -0.5264  0.4794
  128OSM    C9F13748   4.034   1.755   7.583  0.2895 -0.1533 -0.6160
  128OSM    H9F13749   4.076   1.840   7.527 -3.0276  1.3397 -1.0834
  128OSM   C10F13750   3.924   1.770   7.664 -1.0751 -0.8659 -0.2398
  128OSM   H10F13751   3.892   1.875   7.671  1.4721 -0.0976  1.3909
  128OSM   C11F13752   3.870   1.676   7.769 -0.5398 -0.7455 -0.0738
  128OSM   H11F13753   3.820   1.585   7.729  2.5740 -2.8697  0.4522
  128OSM   H11G13754   3.792   1.727   7.830 -1.4871 -0.9014 -1.1390
  128OSM   C12F13755   3.981   1.629   7.860 -0.0296 -0.0786 -0.6223
  128OSM   H12F13756   4.023   1.719   7.909 -0.8956  0.7866 -1.4253
  128OSM   H12G13757   4.064   1.580   7.805  1.2966  0.6358  0.6515
  128OSM   C13F13758   3.936   1.526   7.974  0.0294 -0.0427 -0.2044
  128OSM   H13F13759   3.907   1.427   7.931  0.8473 -0.4481  0.1481
  128OSM   H13G13760   3.843   1.565   8.019 -1.3250 -0.7001 -2.2683
  128OSM   C14F13761   4.042   1.516   8.089 -0.4999  0.4989  0.1046
  128OSM   H14F13762   4.057   1.623   8.113  1.2154  1.2355 -3.5000
  128OSM   H14G13763   4.143   1.479   8.059 -0.6737  0.1086 -0.0129
  128OSM   C15F13764   3.993   1.419   8.195  0.7589 -0.3450  0.1743
  128OSM   H15F13765   4.010   1.312   8.173 -2.3793 -1.0463  0.6379
  128OSM   H15G13766   3.882   1.427   8.205  0.6257  1.8782 -1.9875
  128OSM   C16F13767   4.054   1.438   8.333  0.2641 -0.5256  0.5731
  128OSM   H16F13768   4.002   1.381   8.413 -1.2180  0.0240  0.0538
  128OSM   H16G13769   4.029   1.545   8.351 -2.1048 -0.8160 -0.5927
  128OSM   C17F13770   4.207   1.416   8.340 -0.2326 -0.1178 -0.9063
  128OSM   H17F13771   4.260   1.479   8.265  0.5447  1.1101  0.6245
  128OSM   H17G13772   4.228   1.309   8.322  0.1139 -0.0663 -0.8111
  128OSM   C18F13773   4.266   1.456   8.481  0.8191 -0.2612 -0.5470
  128OSM   H18F13774   4.251   1.562   8.509 -0.1890 -1.2193  2.9558
  128OSM   H18G13775   4.374   1.427   8.480  0.7012 -1.3426  3.0879
  128OSM   H18H13776   4.237   1.400   8.572  0.2994  2.9712  1.4257
  129OSM      N13777   2.268   2.721   6.009 -0.6970 -0.0070  0.2549
  129OSM    C1513778   2.227   2.586   5.968 -0.7708  0.2248 -0.2286
  129OSM   H15A13779   2.141   2.554   6.025 -1.4438  1.3051 -0.5965
  129OSM   H15B13780   2.304   2.510   5.966 -2.2316 -1.3384 -0.0348
  129OSM   H15C13781   2.183   2.582   5.869 -0.7337 -3.2141 -0.2399
  129OSM    C1413782   2.406   2.730   5.949  0.2117 -0.2395 -0.4621
  129OSM   H14A13783   2.475   2.659   5.992  1.0819  2.2764  2.6993
  129OSM   H14B13784   2.444   2.828   5.972 -2.7798  1.1880 -1.0980
  129OSM   H14C13785   2.393   2.718   5.842 -2.1966  1.4459 -0.4355
  129OSM    C1313786   2.178   2.819   5.939 -0.0185  0.1140  0.2684
  129OSM   H13A13787   2.203   2.922   5.960  0.9261  0.3967 -1.9442
  129OSM   H13B13788   2.077   2.800   5.970 -1.4999  3.1014 -2.2401
  129OSM   H13C13789   2.178   2.799   5.833 -1.8499  1.3487  0.0015
  129OSM    C1213790   2.279   2.738   6.158  0.1648  0.4513  0.3960
  129OSM   H12A13791   2.299   2.842   6.178  1.6056  0.2334  0.1496
  129OSM   H12B13792   2.365   2.685   6.196  1.2919  0.1584 -2.3624
  129OSM    C1113793   2.149   2.686   6.242 -0.4665 -0.8474 -0.8407
  129OSM   H11A13794   2.175   2.682   6.350 -0.5740  1.2296 -0.6922
  129OSM   H11B13795   2.110   2.587   6.209  0.2833 -1.6809  0.6578
  129OSM      P13796   2.051   2.923   6.293  0.3770  0.0599  0.3895
  129OSM    O1313797   2.180   2.992   6.270  0.1924  0.1022 -0.2398
  129OSM    O1413798   1.930   2.997   6.258  0.3532  0.3708  0.3148
  129OSM    O1113799   2.054   2.889   6.446  0.1676  0.0090  0.3012
  129OSM    O1213800   2.047   2.787   6.215  0.4488  0.2951 -0.6737
  129OSM    C1S13801   1.945   2.806   6.488  0.0067 -0.1945 -0.9475
  129OSM    H1S13802   1.979   2.700   6.480  0.8306 -0.6002  4.2148
  129OSM    H1T13803   1.843   2.830   6.452  0.3114  1.0505 -1.0233
  129OSM     NF13804   1.840   2.717   6.688 -0.1435 -0.0741  0.1236
  129OSM    HNF13805   1.752   2.752   6.718 -1.8911 -1.1587 -3.2095
  129OSM    C2S13806   1.935   2.818   6.640  0.1389  0.5732 -1.1323
  129OSM    H2S13807   2.035   2.790   6.681  0.7956  2.0525 -1.6378
  129OSM    C3S13808   1.914   2.957   6.684  0.3046  0.2117 -0.3021
  129OSM    H3S13809   1.832   2.998   6.622  1.1987 -0.4922 -2.0311
  129OSM     O313810   2.025   3.045   6.658 -0.0742  0.3213 -0.0936
  129OSM    HO313811   2.084   2.988   6.608  0.1729 -1.4828  2.0812
  129OSM    C4S13812   1.878   2.961   6.832  0.3847 -0.4070  0.3279
  129OSM    H4S13813   1.952   2.902   6.889  0.8377 -2.8499 -2.4821
  129OSM    C5S13814   1.774   3.024   6.898  0.0072  0.4486  0.1865
  129OSM    H5S13815   1.698   3.083   6.845 -2.2849 -1.7740  0.8088
  129OSM    C6S13816   1.773   3.011   7.046 -0.6988 -0.2809  0.5137
  129OSM    H6S13817   1.666   3.032   7.066 -0.3553  1.3851  0.6969
  129OSM    H6T13818   1.825   3.094   7.098  0.5371 -1.0005  0.4763
  129OSM    C7S13819   1.808   2.882   7.127  0.6214 -0.0595  0.6858
  129OSM    H7S13820   1.908   2.839   7.106  0.0727 -0.6307 -0.8994
  129OSM    H7T13821   1.735   2.802   7.101  0.4145  1.0174 -2.4330
  129OSM    C8S13822   1.809   2.914   7.275  0.7136  0.1902  0.5939
  129OSM    H8S13823   1.715   2.964   7.309  1.0149  0.6064  0.8193
  129OSM    H8T13824   1.888   2.992   7.273 -1.0654  2.1187  0.5789
  129OSM    C9S13825   1.846   2.790   7.358 -0.5074 -0.2954 -0.0159
  129OSM    H9S13826   1.932   2.743   7.306 -0.6619  0.8916 -1.4210
  129OSM    H9T13827   1.758   2.722   7.366 -0.1415 -0.6073  1.7751
  129OSM   C10S13828   1.882   2.823   7.508  0.0371 -0.6960 -0.2480
  129OSM   H10S13829   1.968   2.892   7.522  1.6891 -2.6480 -0.3459
  129OSM   H10T13830   1.918   2.727   7.549  3.5652  0.8478  0.5966
  129OSM   C11S13831   1.760   2.881   7.590 -0.2163 -0.1732 -0.5467
  129OSM   H11S13832   1.668   2.823   7.566 -1.1872  1.2631 -0.4008
  129OSM   H11T13833   1.759   2.990   7.566  0.1191 -0.3980 -1.6491
  129OSM   C12S13834   1.764   2.870   7.742  0.0445 -0.0043  0.1669
  129OSM   H12S13835   1.864   2.914   7.763  0.2881 -0.3962 -0.1626
  129OSM   H12T13836   1.761   2.763   7.772 -1.1446 -0.1218 -0.3391
  129OSM   C13S13837   1.652   2.954   7.809 -0.3126 -0.7581  0.4213
  129OSM   H13S13838   1.558   2.895   7.798 -0.6044 -0.1062 -0.7312
  129OSM   H13T13839   1.637   3.040   7.741  2.2679  1.0443  1.9629
  129OSM   C14S13840   1.672   2.986   7.959  0.1499  0.5775  0.0773
  129OSM   H14S13841   1.698   2.889   8.006 -1.0588  1.0551  1.8284
  129OSM   H14T13842   1.576   3.021   8.001 -0.9112 -1.1027 -0.8514
  129OSM   C15S13843   1.783   3.086   7.992  0.5180 -0.2692  0.0371
  129OSM   H15S13844   1.772   3.151   7.903 -0.6767  0.3914  0.6439
  129OSM   H15T13845   1.876   3.026   8.001  0.1551 -0.6172  1.9351
  129OSM   C16S13846   1.770   3.147   8.131 -0.1363  0.6372  0.0711
  129OSM   H16S13847   1.679   3.212   8.133 -0.6751  0.0104 -1.7337
  129OSM   H16T13848   1.862   3.208   8.147  0.7455 -0.9932  1.4078
  129OSM   C17S13849   1.768   3.036   8.246 -0.1336 -0.7920  0.1330
  129OSM   H17S13850   1.862   2.980   8.230 -0.1094 -0.3602 -1.4284
  129OSM   H17T13851   1.684   2.964   8.239  0.4162 -1.2933 -1.7896
  129OSM   C18S13852   1.773   3.103   8.390 -0.3553  0.0426 -0.0717
  129OSM   H18S13853   1.817   3.030   8.460 -1.2347 -2.3507 -1.8840
  129OSM   H18T13854   1.668   3.119   8.424 -0.7642 -0.8212 -0.8982
  129OSM   H18U13855   1.832   3.197   8.394  0.3078 -0.4080  1.3678
  129OSM    C1F13856   1.869   2.585   6.691  0.5014  0.3360  0.6344
  129OSM     OF13857   1.968   2.538   6.637 -0.7270 -0.4627  0.3294
  129OSM    C2F13858   1.763   2.497   6.752  0.4692 -0.6318 -0.3366
  129OSM    H2F13859   1.723   2.426   6.676  1.2838 -1.1872 -0.2541
  129OSM    H2G13860   1.674   2.555   6.784  0.1738 -0.7832 -0.8648
  129OSM    C3F13861   1.836   2.412   6.863 -0.0969 -0.1523  0.7621
  129OSM    H3F13862   1.941   2.395   6.831  0.3570  0.6243  1.7835
  129OSM    H3G13863   1.784   2.314   6.868  0.3568 -0.3434  5.1964
  129OSM    C4F13864   1.830   2.486   6.994 -0.0534  0.2121  0.0450
  129OSM    H4F13865   1.852   2.593   6.972 -0.0872  0.5334  1.5162
  129OSM    H4G13866   1.907   2.450   7.065  0.3961  1.5006  0.2353
  129OSM    C5F13867   1.691   2.473   7.061 -0.6201 -0.1302 -0.1119
  129OSM    H5F13868   1.632   2.385   7.027  1.9433 -2.1628  0.3110
  129OSM    H5G13869   1.621   2.552   7.028 -1.3475 -0.9441 -0.5778
  129OSM    C6F13870   1.697   2.465   7.216  0.2086  0.5064  0.4260
  129OSM    H6F13871   1.794   2.508   7.250 -0.4764  1.8290  0.7688
  129OSM    H6G13872   1.691   2.355   7.235 -0.1010  0.1228 -1.6338
  129OSM    C7F13873   1.574   2.522   7.281  0.1117 -0.4123  0.6001
  129OSM    H7F13874   1.481   2.510   7.220 -1.1513 -0.4281  2.4477
  129OSM    H7G13875   1.587   2.632   7.274  1.1323 -0.5614 -0.1165
  129OSM    C8F13876   1.545   2.492   7.426 -0.1780 -0.1846  0.2021
  129OSM    H8F13877   1.530   2.382   7.425 -0.1231 -0.2638 -3.1520
  129OSM    H8G13878   1.448   2.530   7.464 -0.4922  1.3984 -2.0168
  129OSM    C9F13879   1.668   2.518   7.508  0.1674  0.1130 -0.3137
  129OSM    H9F13880   1.756   2.553   7.452  1.2810  0.2160  1.4313
  129OSM   C10F13881   1.664   2.508   7.640  0.7723 -0.3031  0.1138
  129OSM   H10F13882   1.753   2.534   7.701  0.2205 -3.0047  2.3072
  129OSM   C11F13883   1.547   2.461   7.733  0.1928  0.0259 -0.2001
  129OSM   H11F13884   1.549   2.364   7.786  0.1434  0.4586  0.6090
  129OSM   H11G13885   1.462   2.448   7.662 -0.1381 -1.7480  0.4697
  129OSM   C12F13886   1.508   2.573   7.827  0.4185 -0.6700 -0.6803
  129OSM   H12F13887   1.402   2.558   7.857  0.4512 -2.2030 -1.2652
  129OSM   H12G13888   1.519   2.671   7.776 -0.1678  0.7390  1.7450
  129OSM   C13F13889   1.596   2.587   7.956  0.5421 -0.4189  0.1353
  129OSM   H13F13890   1.688   2.647   7.937  0.2798 -0.2789 -0.7112
  129OSM   H13G13891   1.637   2.486   7.978 -0.6381 -0.6950  1.1882
  129OSM   C14F13892   1.511   2.662   8.065  0.4107  0.4361  0.0879
  129OSM   H14F13893   1.423   2.600   8.090  1.4158 -0.6313  1.1282
  129OSM   H14G13894   1.483   2.750   8.003 -0.0081  0.4343  0.2723
  129OSM   C15F13895   1.607   2.685   8.183 -0.1291  0.4094 -0.6815
  129OSM   H15F13896   1.577   2.770   8.247  1.7934  2.1146 -1.9308
  129OSM   H15G13897   1.710   2.714   8.153 -0.5178  1.1432 -1.3287
  129OSM   C16F13898   1.614   2.565   8.279 -0.2869  0.5260  0.3735
  129OSM   H16F13899   1.675   2.487   8.230 -1.1688  0.2304 -0.2631
  129OSM   H16G13900   1.510   2.529   8.290 -0.0617 -0.0173  0.7686
  129OSM   C17F13901   1.671   2.598   8.417  0.3274 -0.3093 -0.1439
  129OSM   H17F13902   1.616   2.679   8.470 -4.6520 -0.5487 -4.1487
  129OSM   H17G13903   1.779   2.624   8.411  0.7237 -1.0474  2.5473
  129OSM   C18F13904   1.670   2.485   8.524 -0.3089  0.2196 -0.5388
  129OSM   H18F13905   1.701   2.393   8.469 -2.6657 -1.0854  0.1885
  129OSM   H18G13906   1.569   2.473   8.568  0.8249  0.2642  2.2865
  129OSM   H18H13907   1.749   2.506   8.599  0.0599  0.2312 -0.9259
  130OSM      N13908   3.679   5.636   6.327 -0.4880  0.0516 -0.4667
  130OSM    C1513909   3.718   5.751   6.415 -0.1054 -0.0304  0.4406
  130OSM   H15A13910   3.796   5.801   6.360 -0.7472 -0.1087 -0.5689
  130OSM   H15B13911   3.751   5.708   6.509  0.4400  1.3778  0.9221
  130OSM   H15C13912   3.638   5.822   6.419 -1.3513 -1.1365 -2.5119
  130OSM    C1413913   3.632   5.685   6.194 -0.0361 -0.3902  0.1668
  130OSM   H14A13914   3.715   5.737   6.147 -1.0666 -0.4963 -1.8985
  130OSM   H14B13915   3.541   5.744   6.197  0.6701  0.7156  0.6079
  130OSM   H14C13916   3.611   5.600   6.130 -1.5082  0.0540  0.0106
  130OSM    C1313917   3.805   5.556   6.305  0.3190  0.2172 -0.7816
  130OSM   H13A13918   3.875   5.613   6.246 -0.4928 -0.1041 -2.0958
  130OSM   H13B13919   3.792   5.453   6.275 -0.2967 -0.7290  2.2929
  130OSM   H13C13920   3.851   5.551   6.402 -1.1958 -0.0139 -0.0394
  130OSM    C1213921   3.570   5.554   6.400  0.2287  0.1419 -0.4725
  130OSM   H12A13922   3.617   5.511   6.487 -1.1042  0.7159  0.5612
  130OSM   H12B13923   3.536   5.468   6.345  0.4622 -1.0081  1.1267
  130OSM    C1113924   3.444   5.637   6.458 -0.3408  0.6061  0.4169
  130OSM   H11A13925   3.482   5.692   6.547 -0.3918  0.7536  0.3481
  130OSM   H11B13926   3.371   5.562   6.497  0.6293 -1.2766 -1.1795
  130OSM      P13927   3.365   5.872   6.359  0.6996  0.1179 -0.1223
  130OSM    O1313928   3.425   5.915   6.230  0.3859 -0.0659 -0.2668
  130OSM    O1413929   3.231   5.918   6.389 -0.3763 -0.4788  0.4017
  130OSM    O1113930   3.458   5.921   6.477  0.0964 -0.2800 -0.0979
  130OSM    O1213931   3.376   5.716   6.363  0.2789  0.3144 -0.8283
  130OSM    C1S13932   3.428   5.997   6.598  0.1710  0.8701 -0.0908
  130OSM    H1S13933   3.402   5.925   6.679 -0.5664  1.0233 -0.1824
  130OSM    H1T13934   3.339   6.060   6.578 -0.3144  0.2602  0.0858
  130OSM     NF13935   3.527   6.133   6.783 -0.2166  0.3313  0.3613
  130OSM    HNF13936   3.514   6.230   6.803 -0.8242  0.2127  0.5563
  130OSM    C2S13937   3.544   6.099   6.640  0.0633 -0.5572 -0.7095
  130OSM    H2S13938   3.645   6.054   6.634  1.3416  1.9576  0.6639
  130OSM    C3S13939   3.540   6.220   6.549 -0.4171 -0.2905  0.4020
  130OSM    H3S13940   3.444   6.273   6.567 -0.6888 -1.1956  1.8521
  130OSM     O313941   3.536   6.198   6.406  0.4508  0.1754 -0.1104
  130OSM    HO313942   3.510   6.106   6.408 -2.7458  0.8174  4.4279
  130OSM    C4S13943   3.656   6.314   6.576 -0.4481  0.1797 -0.6921
  130OSM    H4S13944   3.754   6.264   6.564  0.0175  0.5645  1.2527
  130OSM    C5S13945   3.654   6.448   6.597 -0.5157  0.3007 -0.3881
  130OSM    H5S13946   3.566   6.511   6.617  1.2730  2.0614  2.5519
  130OSM    C6S13947   3.785   6.521   6.620 -0.3370  0.5254  0.1875
  130OSM    H6S13948   3.777   6.628   6.590  0.5178  1.1594  2.0694
  130OSM    H6T13949   3.867   6.478   6.559 -1.9812  1.1675 -2.6402
  130OSM    C7S13950   3.845   6.512   6.760  0.3377  0.3317  1.0143
  130OSM    H7S13951   3.946   6.558   6.754 -0.5919  2.3466  0.2937
  130OSM    H7T13952   3.859   6.405   6.787 -1.0999 -0.9713 -2.7994
  130OSM    C8S13953   3.772   6.593   6.869  0.2724  0.2925 -0.0313
  130OSM    H8S13954   3.674   6.546   6.892  0.3524  0.7781  1.3915
  130OSM    H8T13955   3.754   6.687   6.813 -2.0413  1.0079  1.7574
  130OSM    C9S13956   3.857   6.613   6.998  0.5626  0.7166  0.0321
  130OSM    H9S13957   3.949   6.665   6.964  1.3008  0.9794  2.2653
  130OSM    H9T13958   3.902   6.521   7.041  0.2652  0.8075  0.5464
  130OSM   C10S13959   3.773   6.693   7.102 -0.3627  0.1190 -0.0004
  130OSM   H10S13960   3.667   6.660   7.100 -0.6056  0.8922 -0.8629
  130OSM   H10T13961   3.778   6.800   7.070 -0.2260 -0.6057 -2.6596
  130OSM   C11S13962   3.838   6.696   7.239 -0.7047 -0.1100 -0.4442
  130OSM   H11S13963   3.938   6.745   7.238 -0.3804 -0.3244  4.1385
  130OSM   H11T13964   3.856   6.599   7.289 -0.1545  0.3574  0.2918
  130OSM   C12S13965   3.746   6.778   7.334 -0.4198 -0.1563  0.2562
  130OSM   H12S13966   3.646   6.730   7.328 -0.1656 -0.8740  1.3518
  130OSM   H12T13967   3.745   6.881   7.292  0.2538  0.0080  0.6267
  130OSM   C13S13968   3.807   6.761   7.477  0.2759  0.1129 -0.2364
  130OSM   H13S13969   3.914   6.789   7.480 -0.2099  2.1161 -0.3525
  130OSM   H13T13970   3.802   6.652   7.497 -2.6893  0.0232 -0.9958
  130OSM   C14S13971   3.738   6.847   7.583  0.5702 -0.1819 -0.3350
  130OSM   H14S13972   3.703   6.944   7.541 -4.0669 -0.8642  1.3354
  130OSM   H14T13973   3.818   6.869   7.656  0.8789 -4.8819  1.0513
  130OSM   C15S13974   3.615   6.791   7.660 -0.0325  0.0460 -0.1344
  130OSM   H15S13975   3.639   6.683   7.671  1.7772  0.4546  0.3407
  130OSM   H15T13976   3.537   6.801   7.582  0.4902 -1.1217 -0.8311
  130OSM   C16S13977   3.575   6.867   7.790 -0.3064  0.6972 -0.5606
  130OSM   H16S13978   3.465   6.875   7.801 -0.2603  0.2480  0.3184
  130OSM   H16T13979   3.610   6.972   7.791 -3.0976  1.7226  1.2518
  130OSM   C17S13980   3.638   6.806   7.915  0.4212  0.8011 -0.0984
  130OSM   H17S13981   3.745   6.777   7.904 -0.6746 -3.2953 -2.2607
  130OSM   H17T13982   3.588   6.710   7.941  1.6785  0.6902  2.1595
  130OSM   C18S13983   3.612   6.892   8.045 -0.0445 -0.6259 -0.0184
  130OSM   H18S13984   3.592   6.830   8.135  0.3673  1.4541  1.5630
  130OSM   H18T13985   3.521   6.954   8.033  0.8634  0.4580 -1.7660
  130OSM   H18U13986   3.694   6.966   8.058 -0.7020  0.3082 -0.9789
  130OSM    C1F13987   3.531   6.044   6.881  0.0265  1.2022  0.0771
  130OSM     OF13988   3.566   5.923   6.862  0.5426 -0.2233  0.4562
  130OSM    C2F13989   3.504   6.091   7.017  0.3125  0.0363  0.3334
  130OSM    H2F13990   3.399   6.125   7.020 -0.0178 -0.8442 -0.7602
  130OSM    H2G13991   3.572   6.176   7.038  0.8329 -0.6448  1.5455
  130OSM    C3F13992   3.532   5.983   7.125 -0.0577 -0.5800  0.0418
  130OSM    H3F13993   3.639   5.957   7.133 -0.1497 -0.4251  2.9249
  130OSM    H3G13994   3.477   5.887   7.110 -0.7334 -0.5187  1.8951
  130OSM    C4F13995   3.485   6.035   7.264 -0.4351  0.0707  0.1693
  130OSM    H4F13996   3.375   6.048   7.251  0.0498  2.6530 -2.4756
  130OSM    H4G13997   3.534   6.133   7.282  2.0544 -0.8880 -0.9160
  130OSM    C5F13998   3.520   5.939   7.373  0.5879 -0.0301 -0.9283
  130OSM    H5F13999   3.630   5.924   7.358  1.3463  2.1716  1.7026
  130OSM    H5G14000   3.475   5.839   7.358 -2.0602  0.7911  0.8804
  130OSM    C6F14001   3.502   6.000   7.518  0.1280  0.3716 -0.4215
  130OSM    H6F14002   3.546   6.102   7.525  1.5243 -0.3248  4.0061
  130OSM    H6G14003   3.555   5.926   7.582  0.2071  1.4039  0.7301
  130OSM    C7F14004   3.358   6.024   7.556  0.2624  0.8129  0.0706
  130OSM    H7F14005   3.300   5.930   7.552 -2.4139  2.3910 -0.7767
  130OSM    H7G14006   3.304   6.089   7.484  1.0853 -1.0340 -2.3189
  130OSM    C8F14007   3.348   6.077   7.701 -0.0780 -0.6493 -0.3040
  130OSM    H8F14008   3.384   6.182   7.699 -1.6141 -0.1132 -1.1939
  130OSM    H8G14009   3.410   6.012   7.767 -0.3906  1.4233  2.1919
  130OSM    C9F14010   3.209   6.083   7.762  0.3858  0.2573  0.0976
  130OSM    H9F14011   3.127   6.076   7.689  0.3938  0.3995  0.0749
  130OSM   C10F14012   3.168   6.110   7.887 -0.5401 -0.4002 -0.0899
  130OSM   H10F14013   3.060   6.105   7.909 -0.4398  0.9189  0.7978
  130OSM   C11F14014   3.261   6.121   8.003  0.2956  0.5672 -0.4196
  130OSM   H11F14015   3.278   6.228   8.025  0.0795  0.9622 -2.0506
  130OSM   H11G14016   3.363   6.081   7.981  0.5399  1.3816 -0.8071
  130OSM   C12F14017   3.215   6.028   8.113 -0.1134  0.6574 -0.5033
  130OSM   H12F14018   3.220   5.920   8.091 -0.5842 -0.2246  3.1013
  130OSM   H12G14019   3.109   6.052   8.139  0.6261  1.7600  1.6804
  130OSM   C13F14020   3.310   6.044   8.240 -0.3108 -0.4983  0.0941
  130OSM   H13F14021   3.413   6.025   8.204 -1.1415 -2.1885 -1.5379
  130OSM   H13G14022   3.295   5.962   8.314 -3.4267  0.1655  0.3398
  130OSM   C14F14023   3.295   6.181   8.310  0.4076  0.4536  0.2459
  130OSM   H14F14024   3.200   6.188   8.367  1.1437  0.2068  1.5515
  130OSM   H14G14025   3.308   6.266   8.240  0.4844  0.3690  0.1563
  130OSM   C15F14026   3.396   6.199   8.411 -0.4496 -0.2530 -0.1625
  130OSM   H15F14027   3.497   6.207   8.366 -0.9358 -1.4367 -1.5412
  130OSM   H15G14028   3.393   6.111   8.479 -0.1176 -0.2093 -0.0915
  130OSM   C16F14029   3.362   6.315   8.508  0.0064  0.4195 -0.0619
  130OSM   H16F14030   3.281   6.294   8.581  1.5987 -0.7702  1.4588
  130OSM   H16G14031   3.330   6.402   8.446 -1.2785 -1.1734 -1.7071
  130OSM   C17F14032   3.468   6.347   8.607 -0.8191 -0.0546 -0.1637
  130OSM   H17F14033   3.474   6.263   8.679 -3.3223 -0.9977 -0.9770
  130OSM   H17G14034   3.451   6.434   8.674  0.6068 -0.6425  1.0250
  130OSM   C18F14035   3.603   6.380   8.546 -0.1014  0.6805  0.1666
  130OSM   H18F14036   3.598   6.483   8.505  1.5776  1.3227  1.4752
  130OSM   H18G14037   3.657   6.319   8.471 -0.9140  1.8374 -1.4277
  130OSM   H18H14038   3.680   6.392   8.625  1.3320  1.5927 -1.3072
  131OSM      N14039   2.950   3.364   6.356 -0.1419  0.5587  0.5684
  131OSM    C1514040   2.991   3.220   6.374 -0.0114 -0.5227 -0.4740
  131OSM   H15A14041   2.910   3.161   6.414  2.8278 -3.0099  2.0958
  131OSM   H15B14042   3.069   3.226   6.449  1.1294  0.6135 -1.6904
  131OSM   H15C14043   3.034   3.179   6.284  0.4399 -0.2549 -0.3858
  131OSM    C1414044   2.837   3.353   6.265 -0.0021  0.3870  0.0998
  131OSM   H14A14045   2.872   3.327   6.166 -3.3459  2.6617 -1.9062
  131OSM   H14B14046   2.780   3.444   6.252 -1.8399 -0.8866 -1.3017
  131OSM   H14C14047   2.772   3.273   6.297  1.8195 -1.5233 -0.7564
  131OSM    C1314048   2.892   3.422   6.488 -0.1702  0.5870  0.1461
  131OSM   H13A14049   2.837   3.512   6.466 -0.8595 -0.0273 -0.6874
  131OSM   H13B14050   2.970   3.456   6.555  2.0670 -0.0623 -1.9464
  131OSM   H13C14051   2.826   3.364   6.550  1.3823 -0.1057  1.2312
  131OSM    C1214052   3.065   3.448   6.299 -0.2535 -0.5629  0.0633
  131OSM   H12A14053   3.030   3.545   6.266  0.9014  0.5083  1.8412
  131OSM   H12B14054   3.102   3.401   6.209  1.3596  2.2766 -0.8587
  131OSM    C1114055   3.193   3.458   6.384 -0.4092 -0.2528  0.2380
  131OSM   H11A14056   3.176   3.489   6.490  2.1574 -0.3940  0.7525
  131OSM   H11B14057   3.254   3.545   6.353 -0.0254  0.3774  2.5503
  131OSM      P14058   3.368   3.291   6.269  0.0524  0.1269  0.1628
  131OSM    O1314059   3.340   3.153   6.221 -0.8643 -0.3725  0.3418
  131OSM    O1414060   3.388   3.407   6.181  0.1096 -0.0559 -0.6598
  131OSM    O1114061   3.500   3.289   6.354 -0.2191 -0.2554 -0.4770
  131OSM    O1214062   3.254   3.327   6.373  0.0499  0.2249 -0.4688
  131OSM    C1S14063   3.525   3.400   6.452  0.5405 -0.1792  1.0341
  131OSM    H1S14064   3.487   3.499   6.420  2.3403  0.4109  0.6057
  131OSM    H1T14065   3.634   3.421   6.445  1.1064 -2.8418  0.5105
  131OSM     NF14066   3.542   3.474   6.679 -0.4679  0.6728 -1.0825
  131OSM    HNF14067   3.623   3.446   6.730 -1.1628  1.1561  0.3485
  131OSM    C2S14068   3.492   3.371   6.593 -1.5095 -0.3006  0.2463
  131OSM    H2S14069   3.383   3.377   6.611 -1.2783 -0.9654  2.0701
  131OSM    C3S14070   3.533   3.226   6.640 -0.3185  0.4542  0.7004
  131OSM    H3S14071   3.641   3.203   6.644 -0.2964  0.4536  0.1506
  131OSM     O314072   3.490   3.121   6.548  0.5848 -0.0425  0.2355
  131OSM    HO314073   3.483   3.172   6.467  3.3207 -2.8657 -2.0659
  131OSM    C4S14074   3.471   3.188   6.768  0.5048 -0.2389 -0.2702
  131OSM    H4S14075   3.373   3.141   6.754  1.2037 -2.0705  0.6655
  131OSM    C5S14076   3.534   3.197   6.889  0.1625 -0.4824 -0.3657
  131OSM    H5S14077   3.635   3.240   6.897 -0.2940  1.4101 -3.2823
  131OSM    C6S14078   3.481   3.160   7.025 -0.3548 -0.3822 -0.1056
  131OSM    H6S14079   3.399   3.085   7.016  0.3496 -1.0736 -0.9374
  131OSM    H6T14080   3.433   3.243   7.080 -1.1299 -0.2943 -0.8864
  131OSM    C7S14081   3.595   3.105   7.100  0.7170 -0.0341 -0.5873
  131OSM    H7S14082   3.670   3.187   7.106 -0.3292  1.0332 -1.4525
  131OSM    H7T14083   3.636   3.011   7.058  0.1081 -0.8287  0.5486
  131OSM    C8S14084   3.552   3.065   7.246  0.1035 -0.1089 -0.1943
  131OSM    H8S14085   3.463   2.998   7.249 -0.8220  0.9909 -1.5041
  131OSM    H8T14086   3.521   3.166   7.279  3.1942  1.1358 -0.8263
  131OSM    C9S14087   3.672   3.015   7.326  1.0147  0.1630  0.1515
  131OSM    H9S14088   3.762   3.077   7.307 -0.0683  1.7319 -0.0905
  131OSM    H9T14089   3.678   2.908   7.297 -1.8352  0.7157 -3.1497
  131OSM   C10S14090   3.659   3.018   7.478  0.1439  0.3971  0.1218
  131OSM   H10S14091   3.713   2.931   7.522  0.1632  0.4453  0.1933
  131OSM   H10T14092   3.553   2.999   7.507  0.1004 -4.3629 -2.1106
  131OSM   C11S14093   3.728   3.144   7.535  0.0507  0.1139  0.5328
  131OSM   H11S14094   3.673   3.237   7.506  0.8866  0.7712  1.0099
  131OSM   H11T14095   3.827   3.153   7.486 -1.9143 -0.6313 -4.1755
  131OSM   C12S14096   3.718   3.146   7.690  0.3540 -0.6261  0.2723
  131OSM   H12S14097   3.611   3.133   7.719  0.6097  1.1250  2.2630
  131OSM   H12T14098   3.758   3.244   7.723 -0.6638 -0.6125  1.5505
  131OSM   C13S14099   3.793   3.026   7.757  0.2787 -0.7601  1.2342
  131OSM   H13S14100   3.891   2.998   7.712 -0.7092 -1.1042 -0.8157
  131OSM   H13T14101   3.736   2.934   7.733  1.5965 -0.6150 -3.3168
  131OSM   C14S14102   3.796   3.041   7.902  0.2309 -0.1270 -0.0562
  131OSM   H14S14103   3.708   3.105   7.926 -0.1195 -0.0377 -1.5125
  131OSM   H14T14104   3.882   3.103   7.935 -1.2151  2.2031 -0.3392
  131OSM   C15S14105   3.789   2.922   7.998  0.2080  0.3539 -0.0865
  131OSM   H15S14106   3.886   2.869   7.989  0.4186  0.2603  2.1918
  131OSM   H15T14107   3.721   2.844   7.957  2.0756 -0.5624 -1.5966
  131OSM   C16S14108   3.763   2.949   8.149  0.2991 -0.9655 -0.0431
  131OSM   H16S14109   3.661   2.993   8.158  1.2225  1.3152  0.0373
  131OSM   H16T14110   3.835   3.025   8.186  0.0108 -1.9562  2.8392
  131OSM   C17S14111   3.760   2.823   8.240  0.4265 -0.2890 -0.7429
  131OSM   H17S14112   3.664   2.774   8.211 -0.5211  0.2574  1.3122
  131OSM   H17T14113   3.759   2.865   8.342 -2.7051  0.3662 -0.9384
  131OSM   C18S14114   3.869   2.723   8.223  0.3162 -0.1127 -0.2483
  131OSM   H18S14115   3.844   2.635   8.287 -0.6706  0.0173 -0.4412
  131OSM   H18T14116   3.967   2.766   8.253  1.4715 -3.5540  1.5373
  131OSM   H18U14117   3.873   2.676   8.122  0.8067  0.5049 -0.5184
  131OSM    C1F14118   3.493   3.601   6.678  0.5929  0.9116 -0.1713
  131OSM     OF14119   3.398   3.638   6.608 -0.1197 -0.5655  0.0930
  131OSM    C2F14120   3.575   3.704   6.743  0.1855  0.2102 -0.2204
  131OSM    H2F14121   3.602   3.782   6.669  0.9747 -2.1938 -2.6259
  131OSM    H2G14122   3.662   3.657   6.793 -0.7521  1.0822  2.4212
  131OSM    C3F14123   3.498   3.792   6.846  0.0057 -0.2895 -0.0614
  131OSM    H3F14124   3.429   3.857   6.789 -0.8176 -2.0325 -1.1426
  131OSM    H3G14125   3.577   3.858   6.889  1.4893 -1.0590 -1.4889
  131OSM    C4F14126   3.412   3.726   6.956 -0.1744  0.6003  0.5881
  131OSM    H4F14127   3.356   3.638   6.917  1.8281 -1.3210  1.8353
  131OSM    H4G14128   3.341   3.796   7.006 -1.3439 -0.4102  0.3871
  131OSM    C5F14129   3.502   3.670   7.078  0.6661 -0.7165  0.2419
  131OSM    H5F14130   3.557   3.753   7.127  0.3768  0.7275 -1.7737
  131OSM    H5G14131   3.580   3.606   7.032  1.4465  1.4928 -1.6372
  131OSM    C6F14132   3.421   3.588   7.181 -0.2551  0.4250  0.1667
  131OSM    H6F14133   3.482   3.502   7.218 -0.3818 -0.4190 -1.4843
  131OSM    H6G14134   3.332   3.545   7.131  0.7479 -1.1927 -0.3249
  131OSM    C7F14135   3.378   3.685   7.292 -0.3957 -0.1900  0.3312
  131OSM    H7F14136   3.298   3.743   7.240  0.6051 -0.9815 -2.2604
  131OSM    H7G14137   3.456   3.762   7.312 -1.6863  0.8922  1.4952
  131OSM    C8F14138   3.318   3.613   7.422 -0.0463 -0.0215  0.5383
  131OSM    H8F14139   3.242   3.543   7.383  1.0343  0.1750 -2.1315
  131OSM    H8G14140   3.265   3.690   7.482  0.7764  0.5550  0.5464
  131OSM    C9F14141   3.432   3.557   7.499  0.6351  0.7607  0.2877
  131OSM    H9F14142   3.512   3.631   7.511  1.4552  0.7523 -3.7026
  131OSM   C10F14143   3.434   3.445   7.572 -0.0867  0.4413 -0.0496
  131OSM   H10F14144   3.524   3.404   7.621  1.2154  0.5753 -2.1932
  131OSM   C11F14145   3.314   3.349   7.581 -0.6295  0.9770  0.1879
  131OSM   H11F14146   3.356   3.252   7.546 -1.0989 -1.0545  4.5502
  131OSM   H11G14147   3.232   3.367   7.508 -0.8453 -2.0434 -0.4445
  131OSM   C12F14148   3.267   3.314   7.722 -0.0573  0.4693  0.2124
  131OSM   H12F14149   3.173   3.260   7.698  1.5512 -2.3075 -0.3204
  131OSM   H12G14150   3.252   3.411   7.774 -0.3406  0.4093  0.2416
  131OSM   C13F14151   3.362   3.223   7.798 -0.0412  0.9539  0.9925
  131OSM   H13F14152   3.463   3.267   7.788 -0.4346  1.9136  1.1689
  131OSM   H13G14153   3.369   3.117   7.765  0.5641  1.3213 -0.1291
  131OSM   C14F14154   3.316   3.225   7.947 -0.9252  1.0464 -0.3113
  131OSM   H14F14155   3.214   3.185   7.968 -1.3419  3.0681  1.9587
  131OSM   H14G14156   3.323   3.328   7.987 -4.8480  1.4812 -0.3862
  131OSM   C15F14157   3.427   3.144   8.032 -0.1438 -0.8400 -0.2362
  131OSM   H15F14158   3.516   3.197   7.993 -0.4490 -1.9908 -2.6331
  131OSM   H15G14159   3.423   3.038   8.000  1.6099 -0.9193 -0.2844
  131OSM   C16F14160   3.414   3.159   8.182  0.1919 -0.3010 -0.2689
  131OSM   H16F14161   3.489   3.095   8.233  0.8850  0.4062 -0.3883
  131OSM   H16G14162   3.319   3.112   8.215  1.2143 -0.0303  3.5645
  131OSM   C17F14163   3.436   3.302   8.237  1.1355 -0.0955  0.1054
  131OSM   H17F14164   3.358   3.364   8.189  1.1251 -0.1580  0.0417
  131OSM   H17G14165   3.530   3.332   8.186  0.2210  1.8916 -0.5013
  131OSM   C18F14166   3.431   3.323   8.382 -0.3415  0.0552  0.3201
  131OSM   H18F14167   3.511   3.271   8.439  1.2182  1.0836 -0.8431
  131OSM   H18G14168   3.337   3.302   8.436  1.6923 -0.9171  3.8401
  131OSM   H18H14169   3.445   3.433   8.387  0.4160 -0.0012 -0.2915
  132OSM      N14170   4.745   1.197   6.106 -0.5359 -0.4356 -0.4146
  132OSM    C1514171   4.760   1.047   6.115 -0.0727 -0.1488 -0.3306
  132OSM   H15A14172   4.783   0.990   6.026 -2.0342 -0.9297 -0.3750
  132OSM   H15B14173   4.661   1.010   6.135 -0.2280  1.0733  1.4484
  132OSM   H15C14174   4.826   1.017   6.195  0.3667  2.3074  0.3335
  132OSM    C1414175   4.871   1.253   6.050 -0.7759 -0.0294  0.1390
  132OSM   H14A14176   4.953   1.235   6.118 -2.1642  1.2423  2.2691
  132OSM   H14B14177   4.865   1.359   6.028 -0.3988 -0.1345 -0.5155
  132OSM   H14C14178   4.897   1.195   5.963 -1.7997  0.8725 -0.7978
  132OSM    C1314179   4.640   1.233   6.005  0.5298 -0.3606 -0.7088
  132OSM   H13A14180   4.640   1.161   5.925 -1.3245 -0.9754 -0.1916
  132OSM   H13B14181   4.661   1.333   5.969  0.4822  0.5486  1.6054
  132OSM   H13C14182   4.543   1.241   6.051  1.7437  0.4522  1.9380
  132OSM    C1214183   4.712   1.266   6.233 -0.1745  0.7037  0.0906
  132OSM   H12A14184   4.617   1.221   6.256  1.4489 -3.7763 -0.9002
  132OSM   H12B14185   4.709   1.373   6.219  0.5153  0.7905  0.5683
  132OSM    C1114186   4.800   1.241   6.353 -0.2736  1.0316  0.0889
  132OSM   H11A14187   4.805   1.131   6.371  1.1767  0.9751 -0.4958
  132OSM   H11B14188   4.746   1.281   6.442 -1.1141  0.0644  0.0343
  132OSM      P14189   4.992   1.421   6.343  0.6694  0.1704  0.5501
  132OSM    O1314190   5.123   1.427   6.289 -0.1261 -0.2894  0.5478
  132OSM    O1414191   4.896   1.522   6.292 -0.0721 -0.3238  0.1029
  132OSM    O1114192   5.001   1.457   6.494  0.4660 -0.2248  0.3126
  132OSM    O1214193   4.934   1.277   6.330  0.1692 -0.0224  0.1316
  132OSM    C1S14194   5.040   1.350   6.578 -0.2844  0.0480 -0.1277
  132OSM    H1S14195   5.132   1.300   6.539 -1.0799  0.1741 -2.3150
  132OSM    H1T14196   4.963   1.272   6.596 -0.4925  0.5024  1.0182
  132OSM     NF14197   5.180   1.317   6.778  0.1188  0.2424 -0.5081
  132OSM    HNF14198   5.145   1.235   6.822 -1.3036  0.1977 -1.6433
  132OSM    C2S14199   5.076   1.402   6.720 -0.5799  0.4464  0.2298
  132OSM    H2S14200   5.113   1.505   6.703  2.0818 -0.7549 -2.1415
  132OSM    C3S14201   4.941   1.405   6.803  0.6405  0.4243  0.3874
  132OSM    H3S14202   4.913   1.299   6.815  2.3743 -0.5373 -2.8955
  132OSM     O314203   4.839   1.471   6.728  0.2714 -0.7376 -0.0660
  132OSM    HO314204   4.880   1.484   6.642  0.5680  1.0543  0.2923
  132OSM    C4S14205   4.964   1.467   6.936 -0.1367 -0.6523  0.0687
  132OSM    H4S14206   5.024   1.405   7.004  0.6438 -2.9516 -2.5113
  132OSM    C5S14207   4.926   1.586   6.987  0.2519  0.0427  0.3220
  132OSM    H5S14208   4.864   1.653   6.927 -0.9918 -0.6702  0.7672
  132OSM    C6S14209   4.971   1.624   7.124 -0.3294  0.3004 -0.0591
  132OSM    H6S14210   4.974   1.537   7.194 -2.8254 -0.1229 -0.4017
  132OSM    H6T14211   4.906   1.692   7.182 -3.2313 -2.6536  0.4691
  132OSM    C7S14212   5.104   1.696   7.136  0.1159 -0.1873 -0.0251
  132OSM    H7S14213   5.088   1.796   7.089  1.5996  0.8244  1.5183
  132OSM    H7T14214   5.185   1.644   7.080  1.0496  0.5728  0.5684
  132OSM    C8S14215   5.146   1.730   7.282  0.9977 -0.0497 -0.0989
  132OSM    H8S14216   5.121   1.638   7.340 -0.0776 -0.3477 -1.0074
  132OSM    H8T14217   5.072   1.804   7.319 -1.6485 -2.2853 -0.5792
  132OSM    C9S14218   5.292   1.763   7.308 -0.9609  0.3261  0.2213
  132OSM    H9S14219   5.329   1.824   7.223  1.0189  0.7284  1.2969
  132OSM    H9T14220   5.355   1.672   7.301  1.4382  1.7997  1.5204
  132OSM   C10S14221   5.328   1.846   7.431 -0.1032 -0.3753  0.1230
  132OSM   H10S14222   5.255   1.927   7.448  2.2942  2.5294 -2.2504
  132OSM   H10T14223   5.426   1.892   7.406  0.4289 -2.2463 -1.5007
  132OSM   C11S14224   5.334   1.764   7.562  0.5853 -0.5405  0.4154
  132OSM   H11S14225   5.411   1.684   7.554  2.3185  1.1429 -0.8737
  132OSM   H11T14226   5.233   1.720   7.569  0.6161 -0.4978  1.3840
  132OSM   C12S14227   5.368   1.858   7.677  0.4794  0.4769 -0.0541
  132OSM   H12S14228   5.285   1.932   7.675  1.2930  1.3915 -0.4480
  132OSM   H12T14229   5.459   1.916   7.650  0.8465 -0.2993 -0.5240
  132OSM   C13S14230   5.387   1.779   7.810 -0.4288 -0.6316 -0.3120
  132OSM   H13S14231   5.476   1.717   7.784  0.4025  0.7462 -0.8564
  132OSM   H13T14232   5.310   1.700   7.825 -0.6073 -0.3170  0.4848
  132OSM   C14S14233   5.387   1.869   7.935 -0.2319  0.2300 -0.1082
  132OSM   H14S14234   5.288   1.901   7.972 -0.4838 -2.0227  1.3498
  132OSM   H14T14235   5.463   1.949   7.919  0.5966  0.1912  3.0211
  132OSM   C15S14236   5.456   1.788   8.052  0.4010  0.2159  0.4585
  132OSM   H15S14237   5.544   1.742   8.003 -0.2159  1.6661 -2.2449
  132OSM   H15T14238   5.388   1.701   8.065 -0.5737  1.1338  1.7135
  132OSM   C16S14239   5.486   1.842   8.191  0.3861  0.1033 -0.0430
  132OSM   H16S14240   5.393   1.882   8.237  0.0693  0.6677 -1.1382
  132OSM   H16T14241   5.568   1.917   8.185  0.1196  0.3002 -3.5968
  132OSM   C17S14242   5.530   1.725   8.287  0.4862 -0.2737 -0.1151
  132OSM   H17S14243   5.631   1.686   8.264  0.0570 -0.5071 -1.6829
  132OSM   H17T14244   5.462   1.638   8.272  0.0042  0.3625 -1.9081
  132OSM   C18S14245   5.525   1.768   8.442 -0.1890 -0.1787 -0.2819
  132OSM   H18S14246   5.539   1.682   8.511 -3.8615 -0.3557  0.4317
  132OSM   H18T14247   5.420   1.797   8.464  0.1156  0.9161 -0.1941
  132OSM   H18U14248   5.585   1.856   8.475  1.5958 -1.3016 -0.3788
  132OSM    C1F14249   5.306   1.329   6.736  0.5771 -0.1177  0.3977
  132OSM     OF14250   5.335   1.414   6.659  0.0511 -0.0137  0.0460
  132OSM    C2F14251   5.402   1.224   6.767  0.0069  0.6324 -0.8836
  132OSM    H2F14252   5.439   1.174   6.674  0.3103  1.3238 -1.1460
  132OSM    H2G14253   5.344   1.150   6.826 -0.7377  2.1796  0.3995
  132OSM    C3F14254   5.525   1.280   6.844  0.0773  0.5790 -0.0654
  132OSM    H3F14255   5.576   1.353   6.778 -0.3589 -2.4530 -4.1655
  132OSM    H3G14256   5.591   1.194   6.870 -1.4770 -1.0737 -1.3645
  132OSM    C4F14257   5.487   1.347   6.972 -0.2167 -0.5968 -0.4523
  132OSM    H4F14258   5.409   1.426   6.962  1.8216  1.6199  0.2627
  132OSM    H4G14259   5.580   1.392   7.012 -0.2722  3.1221 -3.7929
  132OSM    C5F14260   5.417   1.245   7.059  0.7053  0.5419 -0.1307
  132OSM    H5F14261   5.478   1.152   7.068  1.6235  1.0230 -1.1551
  132OSM    H5G14262   5.317   1.221   7.018 -0.2435  1.8828  1.2661
  132OSM    C6F14263   5.369   1.307   7.192  0.0120 -0.1836  0.3949
  132OSM    H6F14264   5.339   1.229   7.265  1.3288  0.2832  1.4922
  132OSM    H6G14265   5.288   1.382   7.178 -0.4294 -0.0341  3.1177
  132OSM    C7F14266   5.482   1.387   7.255  0.5282 -0.5718  0.3971
  132OSM    H7F14267   5.504   1.476   7.191 -0.6690 -0.7442 -0.2810
  132OSM    H7G14268   5.568   1.318   7.247 -0.0246 -1.7963  3.5316
  132OSM    C8F14269   5.460   1.418   7.409 -0.6273 -0.2710  0.4515
  132OSM    H8F14270   5.355   1.454   7.412 -0.7257 -0.1275 -2.1522
  132OSM    H8G14271   5.521   1.508   7.433 -4.0311  1.5281  3.3325
  132OSM    C9F14272   5.500   1.304   7.500  0.3867 -0.2747 -0.1010
  132OSM    H9F14273   5.460   1.207   7.465  0.4024 -0.5651  0.6621
  132OSM   C10F14274   5.573   1.311   7.611  0.0137  0.2291 -0.1536
  132OSM   H10F14275   5.591   1.221   7.672  1.7941 -0.0131 -0.9429
  132OSM   C11F14276   5.619   1.438   7.678 -0.8546 -0.3379 -0.9160
  132OSM   H11F14277   5.539   1.515   7.687  1.3034  2.3807 -3.2942
  132OSM   H11G14278   5.698   1.498   7.628 -0.2588  1.1614  1.6711
  132OSM   C12F14279   5.683   1.417   7.822  1.0469  0.7172 -0.5163
  132OSM   H12F14280   5.747   1.501   7.857  1.8863  0.3968 -1.2559
  132OSM   H12G14281   5.758   1.336   7.811  1.1117  0.7846 -0.5812
  132OSM   C13F14282   5.575   1.377   7.934 -0.3195 -0.4745 -0.0797
  132OSM   H13F14283   5.501   1.299   7.906 -0.7467  0.5295 -1.8500
  132OSM   H13G14284   5.503   1.461   7.946 -2.6268 -1.9937 -2.1620
  132OSM   C14F14285   5.626   1.333   8.078  0.5959 -0.3509 -0.5984
  132OSM   H14F14286   5.695   1.408   8.122 -0.0482 -0.0785 -0.0434
  132OSM   H14G14287   5.675   1.233   8.076  0.5907 -0.3496 -1.0247
  132OSM   C15F14288   5.517   1.320   8.186  0.2690  0.3216  0.5413
  132OSM   H15F14289   5.426   1.279   8.137  0.7609  0.1236 -0.2129
  132OSM   H15G14290   5.488   1.422   8.220 -0.3452  0.7412 -1.1407
  132OSM   C16F14291   5.558   1.232   8.303 -0.1937 -0.8158  0.5480
  132OSM   H16F14292   5.596   1.137   8.259  0.4150  0.5133 -2.0485
  132OSM   H16G14293   5.473   1.202   8.367 -0.4160 -2.6716 -0.5412
  132OSM   C17F14294   5.668   1.303   8.382  0.1265 -0.3393  0.5108
  132OSM   H17F14295   5.635   1.406   8.409 -0.6108 -0.2317 -0.7280
  132OSM   H17G14296   5.764   1.308   8.328  0.1132  1.6220  0.6089
  132OSM   C18F14297   5.700   1.224   8.513 -0.6846  0.0296  0.1051
  132OSM   H18F14298   5.709   1.116   8.490 -1.6394 -0.0702  0.1608
  132OSM   H18G14299   5.625   1.245   8.592 -0.1691  1.7554  0.1920
  132OSM   H18H14300   5.798   1.260   8.552 -2.4842  2.6578  2.6421
  133SAPE     N14301   0.264   6.118  10.788 -0.2174 -0.3593  0.6479
  133SAPE   HN114302   0.203   6.113  10.704 -1.1825 -0.2687  1.3227
  133SAPE   HN214303   0.287   6.219  10.800 -1.0912  0.4306 -3.0046
  133SAPE   HN314304   0.357   6.080  10.762  0.7159  2.4627 -0.5343
  133SAPE   C1214305   0.203   6.061  10.912  0.3379  0.2131  0.5016
  133SAPE  H12A14306   0.105   6.111  10.923  0.4158  1.0892 -2.1916
  133SAPE  H12B14307   0.273   6.083  10.995  1.4973  0.1741 -0.4403
  133SAPE   C1114308   0.191   5.908  10.882  0.2513  0.2649 -0.1227
  133SAPE  H11A14309   0.168   5.856  10.978  0.9824 -0.1815 -0.1881
  133SAPE  H11B14310   0.286   5.863  10.847  0.6443  1.5737 -0.8065
  133SAPE     P14311   0.006   5.756  10.776  0.0144  0.2076  0.3848
  133SAPE   O1314312   0.092   5.637  10.785  0.4528 -0.2921 -0.7856
  133SAPE   O1414313  -0.093   5.783  10.878  0.7801 -0.0467 -0.0288
  133SAPE   O1214314   0.102   5.885  10.777  0.1297 -0.1682 -0.1024
  133SAPE   O1114315  -0.060   5.755  10.633  0.0307 -0.5257  0.0205
  133SAPE    C114316  -0.044   5.872  10.547  0.4336 -0.0967 -0.1045
  133SAPE    HA14317  -0.138   5.932  10.550  0.0181 -0.4584 -2.9508
  133SAPE    HB14318   0.041   5.937  10.577 -0.9249  1.0627  1.4601
  133SAPE    C214319  -0.036   5.827  10.396 -0.0669  0.4185  0.1037
  133SAPE    HS14320   0.001   5.915  10.339  0.5467 -0.4726 -0.9255
  133SAPE   O2114321  -0.169   5.801  10.355 -0.3429 -0.2413 -0.5882
  133SAPE   C2114322  -0.194   5.792  10.223 -0.1073 -0.0864  0.4603
  133SAPE   O2214323  -0.119   5.828  10.134  0.6288  0.0591 -0.8980
  133SAPE   C2214324  -0.339   5.753  10.196 -0.1604 -0.0487  0.6058
  133SAPE   H2R14325  -0.398   5.830  10.250  0.5222 -0.2334  1.6448
  133SAPE   H2S14326  -0.355   5.772  10.088 -2.2383 -1.6382  0.5655
  133SAPE    C314327   0.050   5.701  10.379 -0.5710 -0.2506  1.0359
  133SAPE    HX14328   0.008   5.617  10.438 -1.5522 -1.2183 -0.9251
  133SAPE    HY14329   0.154   5.713  10.417  0.2733 -1.0529 -0.8825
  133SAPE   O3114330   0.061   5.646  10.243 -0.0799  0.1738 -0.1262
  133SAPE   C3114331   0.134   5.721  10.159  0.8053 -0.1148 -0.7125
  133SAPE   O3214332   0.184   5.832  10.183  0.8326  0.0756 -0.1291
  133SAPE   C3214333   0.158   5.638  10.028 -0.2979  0.4377  0.5476
  133SAPE   H2X14334   0.058   5.597  10.001  0.3369 -0.8372  0.0718
  133SAPE   H2Y14335   0.217   5.546  10.044 -0.5793  0.0894 -0.3996
  133SAPE   C2314336  -0.386   5.603  10.215  0.2292  0.0346 -0.6278
  133SAPE   H3R14337  -0.486   5.597  10.167 -1.1911  0.1208  2.1140
  133SAPE   H3S14338  -0.385   5.582  10.324  2.2718  0.1998 -0.5762
  133SAPE   C2414339  -0.298   5.496  10.153 -0.2249 -0.4113 -0.0364
  133SAPE   H4R14340  -0.332   5.392  10.172  0.5718 -0.7712 -0.5410
  133SAPE   H4S14341  -0.205   5.517  10.210  0.1498  0.5499 -0.9661
  133SAPE   C2514342  -0.266   5.512  10.006 -0.4848  0.2991  0.3509
  133SAPE   H5R14343  -0.194   5.592   9.984 -0.0883  0.2690  1.4933
  133SAPE   C2614344  -0.309   5.432   9.906  0.1202  0.4159 -0.1182
  133SAPE   H6R14345  -0.302   5.465   9.801  1.1930  2.0950  0.4502
  133SAPE   C2714346  -0.395   5.315   9.925 -0.0640  0.0233 -0.7315
  133SAPE   H7R14347  -0.498   5.335   9.888 -0.6264  0.6563  1.0718
  133SAPE   H7S14348  -0.417   5.308  10.033  0.3390  3.3203 -0.3360
  133SAPE   C2814349  -0.338   5.184   9.874  0.6002 -0.2426  0.3933
  133SAPE   H8R14350  -0.228   5.186   9.862  0.6582 -0.5233  0.8512
  133SAPE   C2914351  -0.416   5.076   9.845 -0.1108 -0.5795 -0.6759
  133SAPE   H9R14352  -0.369   4.982   9.810  0.0229  0.1024 -2.4412
  133SAPE  C21014353  -0.563   5.050   9.856  0.0690 -0.1434 -0.4899
  133SAPE  H10R14354  -0.594   5.041   9.750 -1.0725  0.3359 -0.2160
  133SAPE  H10S14355  -0.624   5.133   9.897  2.1434  2.0404 -1.6492
  133SAPE  C21114356  -0.587   4.922   9.930  0.6677 -0.0164  0.3510
  133SAPE  H11R14357  -0.589   4.923  10.040 -0.0755 -0.4844  0.3468
  133SAPE  C21214358  -0.603   4.802   9.870  0.3446  0.2829  0.4919
  133SAPE  H12R14359  -0.605   4.717   9.939  1.1835  1.2752  1.7755
  133SAPE  C21314360  -0.590   4.780   9.717  0.0580  0.9633 -0.8217
  133SAPE  H13R14361  -0.492   4.814   9.678  0.4671  0.0513 -0.6222
  133SAPE  H13S14362  -0.663   4.845   9.664 -0.8867 -0.3641 -1.2080
  133SAPE  C21414363  -0.575   4.631   9.686 -0.4762  0.5725 -0.0646
  133SAPE  H14R14364  -0.524   4.569   9.761 -0.7681  0.2737 -0.1116
  133SAPE  C21514365  -0.641   4.568   9.583 -0.0737 -0.4620 -0.8347
  133SAPE  H15R14366  -0.625   4.461   9.561  1.9139 -0.0610 -1.5659
  133SAPE  C21614367  -0.735   4.637   9.490 -0.4399 -0.5428  0.6821
  133SAPE  H16R14368  -0.814   4.691   9.547 -0.4050  1.9863 -1.4710
  133SAPE  H16S14369  -0.805   4.564   9.445 -1.8350  0.6954  0.7402
  133SAPE  C21714370  -0.669   4.733   9.382  0.8928 -0.8875  0.0509
  133SAPE  H17R14371  -0.592   4.797   9.430 -1.7231 -0.1546  3.6533
  133SAPE  H17S14372  -0.740   4.807   9.339  1.5945  0.7246  1.5670
  133SAPE  C21814373  -0.580   4.651   9.280 -0.0514  0.3708 -0.7716
  133SAPE  H18R14374  -0.650   4.579   9.232 -0.8070 -0.0450  0.8733
  133SAPE  H18S14375  -0.512   4.597   9.349  0.2628 -0.4761 -1.7434
  133SAPE  C21914376  -0.487   4.740   9.191 -0.3774 -0.3213  0.5876
  133SAPE  H19R14377  -0.417   4.672   9.139  1.1569  0.3445  1.7051
  133SAPE  H19S14378  -0.423   4.794   9.264 -0.5652 -1.6662  1.7919
  133SAPE  C22014379  -0.561   4.831   9.098 -0.6844 -0.2079 -0.4985
  133SAPE  H20R14380  -0.593   4.925   9.149  0.6036 -0.1873  0.3191
  133SAPE  H20S14381  -0.653   4.782   9.061 -1.0385 -1.1832  1.5155
  133SAPE  H20T14382  -0.483   4.866   9.028  0.1800  3.1383  1.8427
  133SAPE   C3314383   0.228   5.726   9.921 -0.3007 -1.1283 -0.8216
  133SAPE   H3X14384   0.324   5.763   9.963 -0.8890 -1.3554  0.7973
  133SAPE   H3Y14385   0.155   5.809   9.915 -1.2136 -1.7680  0.7908
  133SAPE   C3414386   0.231   5.651   9.795 -0.2488 -0.3217  0.3149
  133SAPE   H4X14387   0.128   5.631   9.759  0.1829 -1.0510 -0.5646
  133SAPE   H4Y14388   0.294   5.560   9.789 -0.8001 -0.6794 -0.0942
  133SAPE   C3514389   0.282   5.744   9.682  0.5374  0.1642  0.1432
  133SAPE   H5X14390   0.385   5.781   9.703  0.0033  2.2660 -0.6970
  133SAPE   H5Y14391   0.220   5.836   9.681  0.7627  0.3936  1.9529
  133SAPE   C3614392   0.273   5.694   9.537 -0.4235  0.1651 -0.3956
  133SAPE   H6X14393   0.167   5.670   9.513 -0.5836 -2.5838  2.4817
  133SAPE   H6Y14394   0.335   5.604   9.517 -0.2536  0.6544 -2.3674
  133SAPE   C3714395   0.317   5.803   9.439 -0.6232  0.1870 -0.3831
  133SAPE   H7X14396   0.426   5.813   9.458 -1.0352 -0.2222  2.7126
  133SAPE   H7Y14397   0.274   5.903   9.464 -0.9487 -0.3911  1.5734
  133SAPE   C3814398   0.285   5.769   9.301 -0.9666 -0.1983 -0.8934
  133SAPE   H8X14399   0.299   5.863   9.244  2.1704  0.2474  0.4010
  133SAPE   H8Y14400   0.179   5.739   9.288 -1.0933 -0.0209 -0.3177
  133SAPE   C3914401   0.382   5.667   9.240 -0.5803  0.8452 -0.4346
  133SAPE   H9X14402   0.348   5.565   9.267  1.1606 -0.2147 -1.9917
  133SAPE   H9Y14403   0.483   5.677   9.286 -0.5406  0.1319 -0.3615
  133SAPE  C31014404   0.405   5.671   9.089  0.1006 -0.1169 -0.2615
  133SAPE  H10X14405   0.466   5.580   9.070 -1.0945 -1.3338  1.3683
  133SAPE  H10Y14406   0.463   5.761   9.058  1.6389  0.0492  2.7567
  133SAPE  C31114407   0.270   5.655   9.011 -0.1352 -0.4960  0.4533
  133SAPE  H11X14408   0.208   5.745   9.027  0.7100 -0.2143  2.4334
  133SAPE  H11Y14409   0.217   5.563   9.046 -0.0012 -0.2857  1.2295
  133SAPE  C31214410   0.276   5.643   8.851  0.1125 -0.4052  0.1050
  133SAPE  H12X14411   0.331   5.550   8.824 -0.2663 -0.4679 -0.4740
  133SAPE  H12Y14412   0.327   5.736   8.817 -2.1479  0.3694 -1.3700
  133SAPE  C31314413   0.136   5.636   8.788  0.4384  0.3021  0.0391
  133SAPE  H13X14414   0.087   5.736   8.779  0.1506  0.0211 -1.6817
  133SAPE  H13Y14415   0.081   5.564   8.853  1.9721  0.2798  1.3753
  133SAPE  C31414416   0.144   5.572   8.647  0.4361  0.3063 -0.0019
  133SAPE  H14X14417   0.238   5.601   8.595  1.7110 -3.9797 -0.4773
  133SAPE  H14Y14418   0.056   5.607   8.590 -0.4700  0.7017  1.5930
  133SAPE  C31514419   0.130   5.414   8.650 -0.5378  0.1813  0.5588
  133SAPE  H15X14420   0.039   5.393   8.711  0.9014 -1.3611  2.3132
  133SAPE  H15Y14421   0.219   5.365   8.695 -1.3189 -1.5564  0.2941
  133SAPE  C31614422   0.103   5.348   8.501 -0.1645 -0.6316 -0.4033
  133SAPE  H16X14423   0.011   5.395   8.460 -2.2012 -0.8835  3.3541
  133SAPE  H16Y14424   0.087   5.239   8.515 -1.0374 -0.8306 -2.5737
  133SAPE  C31714425   0.231   5.378   8.418 -0.6504  0.2902 -0.1207
  133SAPE  H17X14426   0.321   5.349   8.475 -1.1619 -0.2454  0.4299
  133SAPE  H17Y14427   0.227   5.488   8.403 -0.7895  0.4907  1.2268
  133SAPE  C31814428   0.220   5.305   8.292 -0.3714  0.5889 -0.3056
  133SAPE  H18X14429   0.281   5.353   8.213 -1.4247  0.9058 -0.9424
  133SAPE  H18Y14430   0.121   5.315   8.244  1.2916  1.5549 -3.8567
  133SAPE  H18Z14431   0.234   5.195   8.303 -0.6254  0.6662  0.9883
  134SAPE     N14432   2.361   5.993  10.843  0.2763  0.0936 -0.2030
  134SAPE   HN114433   2.413   6.046  10.916  0.5628 -0.7554  0.2276
  134SAPE   HN214434   2.403   5.898  10.834  3.2065  1.4113 -1.8625
  134SAPE   HN314435   2.363   6.051  10.757  1.7860  3.3376  1.8240
  134SAPE   C1214436   2.224   5.980  10.896 -0.4528 -0.2554  0.1608
  134SAPE  H12A14437   2.190   6.078  10.936  0.4151  0.1734 -0.1456
  134SAPE  H12B14438   2.237   5.919  10.989  2.8907 -0.5788 -0.4229
  134SAPE   C1114439   2.130   5.924  10.790 -0.5335  0.1484 -0.1733
  134SAPE  H11A14440   2.028   5.920  10.835 -0.2106  0.1617  0.5721
  134SAPE  H11B14441   2.167   5.822  10.770  2.5304  1.3058 -0.9087
  134SAPE     P14442   2.023   5.974  10.564 -0.4478  0.6410  0.1898
  134SAPE   O1314443   1.964   5.842  10.592  0.0416 -0.4271  0.0446
  134SAPE   O1414444   1.935   6.089  10.580 -0.2874 -0.0916 -0.4010
  134SAPE   O1214445   2.139   5.999  10.667  0.6001  0.0582  0.4726
  134SAPE   O1114446   2.095   5.978  10.425 -0.4522  0.6993  0.6989
  134SAPE    C114447   2.214   5.888  10.400 -0.0585 -0.0562 -1.0256
  134SAPE    HA14448   2.309   5.946  10.396  1.0035 -1.7137 -0.8555
  134SAPE    HB14449   2.247   5.823  10.484  1.9989  2.7396  0.5119
  134SAPE    C214450   2.197   5.800  10.277  0.0150  0.6145  0.3507
  134SAPE    HS14451   2.293   5.747  10.260  1.9618  3.8084  0.6067
  134SAPE   O2114452   2.154   5.879  10.165 -0.4702 -0.0197 -0.0774
  134SAPE   C2114453   2.231   5.979  10.124 -0.6007 -0.1858 -0.1141
  134SAPE   O2214454   2.345   6.006  10.158  0.0738 -0.4499  0.0799
  134SAPE   C2214455   2.167   6.034   9.996 -0.3371 -0.5742 -0.0361
  134SAPE   H2R14456   2.069   6.081  10.018 -0.2944 -0.3159 -0.3926
  134SAPE   H2S14457   2.231   6.120   9.967  2.3436 -1.4897  2.6261
  134SAPE    C314458   2.088   5.695  10.306 -0.2784  0.2661 -0.2018
  134SAPE    HX14459   1.988   5.736  10.284 -0.3962  0.5114  0.7309
  134SAPE    HY14460   2.084   5.685  10.417 -2.1218 -1.0536 -0.3438
  134SAPE   O3114461   2.104   5.571  10.236  0.5766 -0.0885 -0.6383
  134SAPE   C3114462   2.038   5.472  10.285 -0.3351  0.6311  0.2529
  134SAPE   O3214463   1.972   5.475  10.387  0.2602  0.1890 -0.2232
  134SAPE   C3214464   2.042   5.348  10.200 -0.0741  0.1365  0.2503
  134SAPE   H2X14465   1.957   5.283  10.233 -0.5852 -0.4503 -2.0465
  134SAPE   H2Y14466   2.136   5.295  10.224  0.2628 -0.1688 -1.6089
  134SAPE   C2314467   2.160   5.944   9.873  0.3093 -0.4822  0.1093
  134SAPE   H3R14468   2.061   5.895   9.872  0.9078 -1.7955 -1.5889
  134SAPE   H3S14469   2.248   5.876   9.881  1.5237  1.1937  1.8106
  134SAPE   C2414470   2.172   6.023   9.743  0.3457  0.1209  0.8357
  134SAPE   H4R14471   2.262   6.087   9.756 -0.4039  1.1512  1.0244
  134SAPE   H4S14472   2.108   6.113   9.736 -0.8361 -0.7838 -0.3250
  134SAPE   C2514473   2.176   5.945   9.609  1.3132  0.2739  0.9272
  134SAPE   H5R14474   2.236   5.852   9.602  0.1653 -0.3434 -2.4200
  134SAPE   C2614475   2.107   5.977   9.504 -0.5391  0.3998  0.8115
  134SAPE   H6R14476   2.113   5.915   9.414  0.6038 -0.7154  1.6084
  134SAPE   C2714477   2.014   6.089   9.488  0.3139 -0.0197  0.4155
  134SAPE   H7R14478   1.953   6.099   9.580 -0.5810 -1.2042 -0.0275
  134SAPE   H7S14479   1.951   6.068   9.399 -0.1807 -0.0893  0.7835
  134SAPE   C2814480   2.075   6.227   9.483  0.0613  0.3431 -0.2223
  134SAPE   H8R14481   2.105   6.270   9.580 -0.0589  1.6729 -0.7538
  134SAPE   C2914482   2.100   6.301   9.373 -0.6998 -0.0358  0.3711
  134SAPE   H9R14483   2.151   6.398   9.385  0.4153 -0.7390  1.5533
  134SAPE  C21014484   2.067   6.279   9.223  0.1546 -0.1983  0.1175
  134SAPE  H10R14485   2.002   6.189   9.223  0.2205 -0.2757 -1.4266
  134SAPE  H10S14486   2.160   6.253   9.167 -1.0762 -3.7310 -0.5648
  134SAPE  C21114487   1.987   6.382   9.149 -0.0438  0.2789  0.0623
  134SAPE  H11R14488   1.932   6.452   9.214 -1.8931 -1.4976  0.5162
  134SAPE  C21214489   1.978   6.382   9.017  0.3462 -0.2353  0.2236
  134SAPE  H12R14490   1.909   6.458   8.977 -0.3377 -0.7026  0.5054
  134SAPE  C21314491   2.038   6.285   8.912  0.6450  0.7917 -0.5669
  134SAPE  H13R14492   1.995   6.183   8.924 -0.5472  1.4194  0.6593
  134SAPE  H13S14493   2.144   6.269   8.943  0.4987 -1.6791 -1.1072
  134SAPE  C21414494   2.021   6.337   8.771  0.9839  0.0380 -0.1681
  134SAPE  H14R14495   1.919   6.342   8.729  0.1991  4.4424  1.7140
  134SAPE  C21514496   2.119   6.395   8.708  0.3021  0.0151  1.3615
  134SAPE  H15R14497   2.104   6.424   8.603 -2.2913 -0.0407  1.6554
  134SAPE  C21614498   2.259   6.418   8.750  0.4091  0.2457 -0.1205
  134SAPE  H16R14499   2.263   6.411   8.860 -5.4081 -1.0954  0.3117
  134SAPE  H16S14500   2.287   6.523   8.723 -0.8353  0.6135 -0.0639
  134SAPE  C21714501   2.370   6.327   8.683  1.0277 -0.2164  0.5967
  134SAPE  H17R14502   2.466   6.352   8.733  0.3940 -2.3816  3.1076
  134SAPE  H17S14503   2.376   6.341   8.573 -0.4403 -0.5708  0.4499
  134SAPE  C21814504   2.337   6.179   8.702 -0.1816  0.5027 -0.5844
  134SAPE  H18R14505   2.230   6.161   8.682 -0.4362  1.1781  0.1356
  134SAPE  H18S14506   2.347   6.149   8.808  0.2963  0.2982 -0.6839
  134SAPE  C21914507   2.427   6.085   8.623 -0.0123 -0.0550  0.0721
  134SAPE  H19R14508   2.429   5.985   8.670  1.0717 -0.7215 -1.3058
  134SAPE  H19S14509   2.529   6.128   8.625  1.4259 -3.2713  0.7294
  134SAPE  C22014510   2.384   6.059   8.476  0.5135 -0.6089 -0.1066
  134SAPE  H20R14511   2.273   6.064   8.471  0.4447 -1.3169  0.6256
  134SAPE  H20S14512   2.422   5.972   8.418  1.0623  0.2476 -1.0695
  134SAPE  H20T14513   2.414   6.148   8.417 -0.8277 -0.3013 -0.3712
  134SAPE   C3314514   2.039   5.383  10.054  0.2258 -0.0640  0.1553
  134SAPE   H3X14515   1.992   5.482  10.038 -1.1787 -1.0616 -2.4665
  134SAPE   H3Y14516   1.981   5.304  10.002 -1.3155  0.9073  0.3135
  134SAPE   C3414517   2.186   5.403   9.994  0.1128 -0.1176 -0.0529
  134SAPE   H4X14518   2.238   5.305  10.006 -2.0384 -1.3562 -0.4473
  134SAPE   H4Y14519   2.249   5.472  10.056 -0.0319 -0.6739  0.7366
  134SAPE   C3514520   2.189   5.439   9.843  0.2701 -0.3070  0.1032
  134SAPE   H5X14521   2.141   5.352   9.793 -0.6717 -0.9093  1.9799
  134SAPE   H5Y14522   2.290   5.444   9.795 -0.7218 -2.4895 -2.5366
  134SAPE   C3614523   2.136   5.580   9.805 -0.2821 -0.4112  0.0996
  134SAPE   H6X14524   2.216   5.656   9.805  0.1111 -0.8117  0.6107
  134SAPE   H6Y14525   2.059   5.608   9.880  1.9021  0.8440  1.9680
  134SAPE   C3714526   2.071   5.579   9.665  0.1516  0.4682  0.2833
  134SAPE   H7X14527   2.043   5.480   9.625 -2.5497 -0.2687  3.4991
  134SAPE   H7Y14528   2.148   5.630   9.604 -0.9942  1.7305 -0.1569
  134SAPE   C3814529   1.939   5.661   9.633 -0.4575  0.0816  0.2121
  134SAPE   H8X14530   1.957   5.771   9.629 -0.0309 -0.0278 -1.6445
  134SAPE   H8Y14531   1.876   5.645   9.723 -1.7929 -0.4126 -0.7853
  134SAPE   C3914532   1.858   5.628   9.510 -0.4428 -0.0662 -0.0138
  134SAPE   H9X14533   1.765   5.687   9.500 -0.8904 -1.1107 -2.9781
  134SAPE   H9Y14534   1.812   5.528   9.524 -0.0396  0.0851  3.3495
  134SAPE  C31014535   1.938   5.635   9.376 -0.2858  0.0327 -0.0267
  134SAPE  H10X14536   2.014   5.555   9.367 -1.7121 -1.1839 -1.9823
  134SAPE  H10Y14537   1.987   5.735   9.378  1.6341 -0.8640  1.8492
  134SAPE  C31114538   1.855   5.621   9.248 -0.5529  0.5170 -0.2313
  134SAPE  H11X14539   1.920   5.565   9.177 -0.3898 -0.6028  0.7664
  134SAPE  H11Y14540   1.838   5.717   9.194  2.1812  1.5807  0.6779
  134SAPE  C31214541   1.722   5.543   9.256 -0.2111  0.0800  0.4306
  134SAPE  H12X14542   1.651   5.612   9.308  0.1958 -0.0974  1.2246
  134SAPE  H12Y14543   1.735   5.450   9.314 -0.2658 -0.2359 -0.0589
  134SAPE  C31314544   1.669   5.504   9.114 -0.1293 -0.2419  0.7354
  134SAPE  H13X14545   1.750   5.475   9.043 -1.9382 -1.2474 -1.0378
  134SAPE  H13Y14546   1.624   5.597   9.072 -0.2636 -1.2805 -1.6239
  134SAPE  C31414547   1.555   5.396   9.122 -0.0891 -0.2364 -0.0396
  134SAPE  H14X14548   1.482   5.423   9.202 -0.7835 -0.1246 -0.6951
  134SAPE  H14Y14549   1.591   5.297   9.156 -1.7457 -0.1626  2.1745
  134SAPE  C31514550   1.480   5.395   8.986  0.0421 -0.3004  0.1169
  134SAPE  H15X14551   1.459   5.498   8.951 -0.7034 -0.3364  0.4522
  134SAPE  H15Y14552   1.389   5.336   9.009  0.8229 -1.2428  0.8999
  134SAPE  C31614553   1.563   5.339   8.865  0.2246 -0.2690  0.2470
  134SAPE  H16X14554   1.585   5.232   8.888 -2.6093 -1.0465 -0.3523
  134SAPE  H16Y14555   1.653   5.404   8.874 -0.5672  0.7400  0.9925
  134SAPE  C31714556   1.486   5.352   8.739  0.1802 -0.0362  0.1882
  134SAPE  H17X14557   1.393   5.291   8.752  0.7435 -0.6434  1.5572
  134SAPE  H17Y14558   1.550   5.297   8.667  3.9278  0.3906  2.9234
  134SAPE  C31814559   1.436   5.493   8.697 -0.1334 -0.6676  0.6998
  134SAPE  H18X14560   1.507   5.574   8.671  0.2106 -0.9066  0.8888
  134SAPE  H18Y14561   1.368   5.541   8.770  0.0936  2.7568 -1.1605
  134SAPE  H18Z14562   1.362   5.487   8.614 -0.8793  2.2083  1.0631
  135SAPE     N14563   1.165   4.921  10.843  0.2539  0.7338  0.2329
  135SAPE   HN114564   1.149   5.023  10.855  0.5559  0.5111  3.4800
  135SAPE   HN214565   1.108   4.865  10.910 -2.1142 -2.0669 -3.6877
  135SAPE   HN314566   1.265   4.893  10.851  0.4731  1.8965  2.2719
  135SAPE   C1214567   1.139   4.882  10.701 -1.4300 -0.0501 -0.1292
  135SAPE  H12A14568   1.029   4.897  10.688 -1.0495  0.9562 -2.6356
  135SAPE  H12B14569   1.183   4.782  10.682 -3.1636 -0.9912  0.4895
  135SAPE   C1114570   1.222   4.964  10.594  1.0203 -0.1990 -0.0103
  135SAPE  H11A14571   1.182   5.067  10.603 -0.2853 -0.6453 -0.4326
  135SAPE  H11B14572   1.191   4.916  10.498  1.8641 -2.6612  0.8693
  135SAPE     P14573   1.459   5.047  10.543  0.1300  0.1263 -0.4065
  135SAPE   O1314574   1.460   5.169  10.629 -0.3851  0.0746  0.2923
  135SAPE   O1414575   1.584   4.980  10.519  0.5042  0.1625 -0.6461
  135SAPE   O1214576   1.363   4.946  10.623  0.3173 -0.4108  0.5107
  135SAPE   O1114577   1.373   5.066  10.418  0.0001 -0.0771 -0.5456
  135SAPE    C114578   1.406   5.117  10.293 -0.4211  0.4553  0.4394
  135SAPE    HA14579   1.324   5.177  10.251  0.8256  2.0342  0.1650
  135SAPE    HB14580   1.490   5.190  10.293 -0.3352  0.3600 -0.3600
  135SAPE    C214581   1.445   4.996  10.197 -0.3705  0.1020 -0.1498
  135SAPE    HS14582   1.531   4.950  10.250  0.2178 -0.0389 -1.1925
  135SAPE   O2114583   1.468   5.052  10.066  0.1994  0.2461  0.1249
  135SAPE   C2114584   1.557   4.982   9.990 -0.3106 -0.0493 -0.0624
  135SAPE   O2214585   1.628   4.888  10.029 -0.1980  0.0853 -0.6169
  135SAPE   C2214586   1.554   5.044   9.846 -0.3173 -0.4854  0.0560
  135SAPE   H2R14587   1.449   5.042   9.809 -1.0884 -0.7613  2.1075
  135SAPE   H2S14588   1.571   5.152   9.865 -1.8324 -0.4380  1.3262
  135SAPE    C314589   1.331   4.888  10.186 -0.1264 -0.1085 -0.9077
  135SAPE    HX14590   1.248   4.933  10.127  0.2732 -0.8543 -2.0502
  135SAPE    HY14591   1.299   4.863  10.290  0.1998  2.4184 -0.1241
  135SAPE   O3114592   1.376   4.783  10.113 -0.0440  0.0321 -0.0991
  135SAPE   C3114593   1.404   4.669  10.171 -0.1447 -0.2509 -0.0687
  135SAPE   O3214594   1.395   4.648  10.290  0.4229  0.1712 -0.6684
  135SAPE   C3214595   1.476   4.577  10.063 -0.0660 -0.0234  0.0176
  135SAPE   H2X14596   1.496   4.489  10.128  0.8482  0.9094  1.0453
  135SAPE   H2Y14597   1.573   4.613  10.022 -0.7298  1.0287 -0.6467
  135SAPE   C2314598   1.649   4.972   9.741  0.2012 -0.7033  0.0636
  135SAPE   H3R14599   1.653   4.864   9.764 -0.5554 -0.7546 -0.0233
  135SAPE   H3S14600   1.747   5.022   9.761  0.0276 -0.7498  1.0814
  135SAPE   C2414601   1.616   5.001   9.589 -0.4115  1.3327 -0.5754
  135SAPE   H4R14602   1.514   4.958   9.591  0.6871 -1.5238  1.9581
  135SAPE   H4S14603   1.693   4.936   9.542 -0.5338 -0.3942  1.4542
  135SAPE   C2514604   1.609   5.144   9.545 -0.4539 -0.4144  0.0523
  135SAPE   H5R14605   1.533   5.207   9.594 -0.3980  0.8893 -1.4551
  135SAPE   C2614606   1.702   5.212   9.466  0.0099  0.0460  0.2194
  135SAPE   H6R14607   1.689   5.320   9.452 -0.9548  0.1036  1.4138
  135SAPE   C2714608   1.817   5.149   9.396  0.5336 -0.4351 -0.1741
  135SAPE   H7R14609   1.785   5.145   9.290 -1.3200  1.6736  0.2303
  135SAPE   H7S14610   1.840   5.047   9.432 -1.1853 -0.8671 -0.2347
  135SAPE   C2814611   1.948   5.222   9.398 -0.2000 -0.5928 -0.0575
  135SAPE   H8R14612   1.976   5.275   9.490 -1.4350  0.9725 -0.5387
  135SAPE   C2914613   2.021   5.252   9.294  0.5648 -0.6448 -0.6239
  135SAPE   H9R14614   2.112   5.313   9.305 -0.8013  1.3442  0.4290
  135SAPE  C21014615   1.987   5.211   9.154 -0.6392  0.8241 -0.2164
  135SAPE  H10R14616   1.939   5.300   9.109  0.3954  1.2697 -0.4546
  135SAPE  H10S14617   1.915   5.126   9.148  0.8232 -0.4022 -0.8680
  135SAPE  C21114618   2.117   5.192   9.074 -0.3311  0.0347 -0.5156
  135SAPE  H11R14619   2.190   5.273   9.088  1.0459 -1.2709  0.2117
  135SAPE  C21214620   2.138   5.096   8.983  0.2113  0.5951 -0.0600
  135SAPE  H12R14621   2.237   5.066   8.945  0.2839 -0.1669  0.6822
  135SAPE  C21314622   2.042   4.984   8.949  0.9681  0.3545 -0.0100
  135SAPE  H13R14623   1.939   5.027   8.953  0.9396  0.2060  1.6873
  135SAPE  H13S14624   2.050   4.906   9.028  2.0726  1.7403  1.3171
  135SAPE  C21414625   2.064   4.915   8.820 -0.7954  0.4641  0.1212
  135SAPE  H14R14626   2.083   4.807   8.816  1.1296  0.7901 -1.2017
  135SAPE  C21514627   2.047   4.977   8.703  0.4280  1.0951 -0.2123
  135SAPE  H15R14628   2.036   4.900   8.625 -0.8949 -0.8858  1.7854
  135SAPE  C21614629   1.990   5.114   8.671  0.2476 -0.0086  0.3842
  135SAPE  H16R14630   2.063   5.174   8.612 -0.5463  1.1763  0.5677
  135SAPE  H16S14631   1.962   5.177   8.758 -1.6863  1.0226 -0.9157
  135SAPE  C21714632   1.864   5.095   8.585 -0.0386 -0.1762  0.1026
  135SAPE  H17R14633   1.816   5.195   8.576 -1.1582 -0.6634  0.4980
  135SAPE  H17S14634   1.802   5.037   8.657  1.5364 -1.1684  0.7059
  135SAPE  C21814635   1.887   5.033   8.448  1.0120  0.3574 -0.1001
  135SAPE  H18R14636   1.947   4.939   8.456 -0.9868 -0.8393  2.5477
  135SAPE  H18S14637   1.940   5.092   8.371 -2.2858  0.5686 -2.3939
  135SAPE  C21914638   1.749   4.992   8.401  0.6017  0.1078  0.1600
  135SAPE  H19R14639   1.696   5.090   8.399  1.3362  0.6603 -4.9176
  135SAPE  H19S14640   1.711   4.929   8.485 -0.4402  0.1946 -0.2375
  135SAPE  C22014641   1.749   4.928   8.263  0.4504 -0.1149 -0.0542
  135SAPE  H20R14642   1.817   4.840   8.266 -1.0627 -1.3229 -0.3051
  135SAPE  H20S14643   1.785   4.985   8.175  1.3361 -1.8854 -0.8837
  135SAPE  H20T14644   1.643   4.899   8.249  0.0880  1.3665 -0.5520
  135SAPE   C3314645   1.383   4.542   9.947 -0.3207 -0.3403 -0.6263
  135SAPE   H3X14646   1.283   4.505   9.978  0.4013 -0.4449  1.7089
  135SAPE   H3Y14647   1.420   4.444   9.908 -0.0872 -1.1108  1.4082
  135SAPE   C3414648   1.375   4.647   9.838  0.2679 -0.2191  0.2070
  135SAPE   H4X14649   1.479   4.686   9.834  0.3449 -0.4206  0.2164
  135SAPE   H4Y14650   1.312   4.733   9.867 -0.0143 -0.8209  1.4448
  135SAPE   C3514651   1.341   4.606   9.693  0.1312 -0.2317  0.0046
  135SAPE   H5X14652   1.231   4.615   9.679  0.0277  1.6382  1.5537
  135SAPE   H5Y14653   1.382   4.503   9.684  1.0948  0.1155  0.2751
  135SAPE   C3614654   1.409   4.709   9.601  0.1309 -0.1980  1.2481
  135SAPE   H6X14655   1.520   4.699   9.600  0.4501  2.3568 -0.8111
  135SAPE   H6Y14656   1.386   4.813   9.633  1.5443  1.1578 -1.6713
  135SAPE   C3714657   1.369   4.702   9.452  0.6996 -0.3387  0.0561
  135SAPE   H7X14658   1.283   4.772   9.455  0.4535 -0.6070  3.0915
  135SAPE   H7Y14659   1.335   4.606   9.406 -0.0872  1.0280 -2.3914
  135SAPE   C3814660   1.472   4.769   9.364 -0.3626 -0.4683  0.1159
  135SAPE   H8X14661   1.506   4.684   9.300 -0.5238  1.2267 -2.3737
  135SAPE   H8Y14662   1.557   4.792   9.432 -1.6434  1.8512  1.0465
  135SAPE   C3914663   1.421   4.884   9.268 -0.2225  0.6315 -0.9054
  135SAPE   H9X14664   1.363   4.960   9.324  1.0221  0.7146  0.3356
  135SAPE   H9Y14665   1.354   4.823   9.205  2.1098 -1.3197 -1.6264
  135SAPE  C31014666   1.528   4.941   9.172  0.1343  0.1395 -0.0962
  135SAPE  H10X14667   1.574   4.846   9.138 -3.0107 -2.5901  2.5724
  135SAPE  H10Y14668   1.598   4.994   9.240  0.2611  1.0735 -0.9245
  135SAPE  C31114669   1.479   5.042   9.062 -0.1172  0.1870 -0.5418
  135SAPE  H11X14670   1.572   5.096   9.031  0.7839 -0.0477  1.6016
  135SAPE  H11Y14671   1.412   5.114   9.114  1.6550  0.5560  1.3452
  135SAPE  C31214672   1.417   4.987   8.935 -0.2398  0.2738  0.3188
  135SAPE  H12X14673   1.393   5.071   8.865 -0.9298  1.7188  2.2046
  135SAPE  H12Y14674   1.314   4.956   8.962 -0.0161  0.5758  1.5955
  135SAPE  C31314675   1.497   4.877   8.868 -0.4874  0.7843  0.2842
  135SAPE  H13X14676   1.540   4.792   8.925 -1.6323 -0.8794 -1.1933
  135SAPE  H13Y14677   1.597   4.915   8.840 -0.1361 -0.1725  0.1940
  135SAPE  C31414678   1.430   4.817   8.743  0.2353  0.1623  0.3310
  135SAPE  H14X14679   1.341   4.753   8.762  0.6559 -1.0729 -1.5315
  135SAPE  H14Y14680   1.505   4.765   8.679 -1.2978  0.5779 -1.9088
  135SAPE  C31514681   1.378   4.924   8.651  0.2076  0.5041 -0.1331
  135SAPE  H15X14682   1.465   4.992   8.636 -0.8214  2.4107  1.9019
  135SAPE  H15Y14683   1.290   4.978   8.693 -1.2686 -0.5105 -1.7868
  135SAPE  C31614684   1.341   4.872   8.508 -0.0462 -0.0751 -0.2197
  135SAPE  H16X14685   1.243   4.821   8.507 -1.2427  1.6334  4.3529
  135SAPE  H16Y14686   1.418   4.808   8.459 -0.9623 -0.6528 -0.9555
  135SAPE  C31714687   1.320   4.987   8.405 -0.1846 -0.3275  0.5688
  135SAPE  H17X14688   1.291   4.932   8.312 -0.6462  2.5482 -1.1045
  135SAPE  H17Y14689   1.418   5.036   8.387 -1.3920  1.4752 -1.5606
  135SAPE  C31814690   1.219   5.083   8.446 -0.4504 -0.2438 -0.2143
  135SAPE  H18X14691   1.217   5.169   8.376 -1.2399  0.1746  0.3023
  135SAPE  H18Y14692   1.226   5.143   8.539 -2.4176  0.9521 -0.7668
  135SAPE  H18Z14693   1.117   5.042   8.430 -0.8547  0.3757  0.6941
  136SAPE     N14694   4.924   4.112  11.036  0.3870 -0.1235 -0.0170
  136SAPE   HN114695   4.934   4.153  11.131  0.7429  1.9289 -0.9005
  136SAPE   HN214696   4.903   4.011  11.049  0.4578  0.0374  1.6132
  136SAPE   HN314697   5.013   4.123  10.983  0.2341  4.3886  0.2933
  136SAPE   C1214698   4.822   4.183  10.952  0.5765  0.5714 -0.8498
  136SAPE  H12A14699   4.722   4.142  10.980  0.9253 -0.0813 -0.5568
  136SAPE  H12B14700   4.838   4.146  10.849  0.5210  0.8856 -0.9736
  136SAPE   C1114701   4.823   4.339  10.957 -0.1036 -0.2342  0.6184
  136SAPE  H11A14702   4.785   4.378  11.054 -1.1880 -1.4861  0.7288
  136SAPE  H11B14703   4.746   4.363  10.881  2.4037  1.1981 -1.6301
  136SAPE     P14704   4.945   4.550  10.867 -0.1497 -0.3217  0.7522
  136SAPE   O1314705   4.828   4.582  10.782  0.4132  0.2952  0.1414
  136SAPE   O1414706   4.959   4.640  10.978 -0.5091 -0.4527  0.3376
  136SAPE   O1214707   4.947   4.398  10.924 -0.6318  0.3597  0.2514
  136SAPE   O1114708   5.075   4.557  10.773 -0.0330  0.2732 -0.5960
  136SAPE    C114709   5.198   4.487  10.800 -0.4846  0.1250  0.6000
  136SAPE    HA14710   5.275   4.561  10.827 -0.4074  0.4380 -0.4455
  136SAPE    HB14711   5.196   4.411  10.881  0.8054 -3.4190 -2.3636
  136SAPE    C214712   5.241   4.411  10.665 -0.1429  0.2647 -0.3468
  136SAPE    HS14713   5.341   4.364  10.679 -0.1236  0.6265  0.8600
  136SAPE   O2114714   5.245   4.504  10.561  0.1985 -0.4696 -0.0313
  136SAPE   C2114715   5.349   4.591  10.548  1.0451  0.1626 -0.4721
  136SAPE   O2214716   5.448   4.595  10.622 -0.2886  0.5520  0.2946
  136SAPE   C2214717   5.332   4.671  10.416 -0.0248 -0.2753 -0.1050
  136SAPE   H2R14718   5.326   4.596  10.335 -0.6695 -3.5287  2.7285
  136SAPE   H2S14719   5.242   4.735  10.429 -0.5760 -1.1951  0.6897
  136SAPE    C314720   5.145   4.292  10.627 -0.8418 -0.1820  0.2649
  136SAPE    HX14721   5.043   4.329  10.605 -1.2659 -0.0310  2.3623
  136SAPE    HY14722   5.149   4.220  10.711  0.4954  1.3059  1.5511
  136SAPE   O3114723   5.195   4.217  10.515 -0.0562 -0.7826  0.4708
  136SAPE   C3114724   5.113   4.117  10.482  0.1633 -0.0143  0.5797
  136SAPE   O3214725   5.016   4.086  10.551  0.0377 -0.1464  0.0420
  136SAPE   C3214726   5.153   4.052  10.350  0.5140  0.7518  0.1499
  136SAPE   H2X14727   5.146   4.136  10.278  1.3265  0.7973  0.1104
  136SAPE   H2Y14728   5.072   3.979  10.327  0.5772  0.0959  1.8516
  136SAPE   C2314729   5.456   4.755  10.387  0.3918  1.0047 -0.4595
  136SAPE   H3R14730   5.544   4.690  10.371 -0.5878 -0.9599  1.5751
  136SAPE   H3S14731   5.483   4.815  10.478 -1.5151  1.2743 -0.0323
  136SAPE   C2414732   5.423   4.849  10.270 -0.1466  0.2537  0.6190
  136SAPE   H4R14733   5.337   4.915  10.295 -0.4543 -0.2304  0.8488
  136SAPE   H4S14734   5.403   4.784  10.182 -0.4039  0.7404  0.3098
  136SAPE   C2514735   5.539   4.942  10.246 -0.5879  0.1429  0.1304
  136SAPE   H5R14736   5.600   4.969  10.334 -0.1142  0.6408 -0.3445
  136SAPE   C2614737   5.609   4.986  10.133 -0.6058  1.3712 -0.0853
  136SAPE   H6R14738   5.691   5.059  10.141 -0.2778  0.8978  1.2127
  136SAPE   C2714739   5.565   4.948   9.995 -0.5680 -0.5331  0.0740
  136SAPE   H7R14740   5.532   5.041   9.942 -0.8056 -0.8139 -0.2796
  136SAPE   H7S14741   5.470   4.890   9.989 -1.0486  0.1004  1.2769
  136SAPE   C2814742   5.689   4.896   9.919  0.3263 -0.1316  0.5677
  136SAPE   H8R14743   5.783   4.911   9.975  0.7635  2.9819 -0.7556
  136SAPE   C2914744   5.701   4.858   9.787  0.2001  0.3588 -0.2726
  136SAPE   H9R14745   5.791   4.813   9.744  0.1892  1.8194 -1.9466
  136SAPE  C21014746   5.587   4.865   9.689 -0.1083 -0.2294 -0.3043
  136SAPE  H10R14747   5.485   4.856   9.733 -0.7084  2.7345 -0.8177
  136SAPE  H10S14748   5.601   4.782   9.617  2.3916  1.7209 -2.2555
  136SAPE  C21114749   5.577   5.003   9.624  0.3859 -0.0273  0.2423
  136SAPE  H11R14750   5.554   5.082   9.697  0.5337  1.1467 -0.9396
  136SAPE  C21214751   5.607   5.033   9.495  0.0443 -0.1454 -0.8773
  136SAPE  H12R14752   5.605   5.138   9.462  0.7560  0.7031  1.5309
  136SAPE  C21314753   5.670   4.931   9.400  0.5494  0.0968 -0.6506
  136SAPE  H13R14754   5.626   4.831   9.420  0.6374  0.3243  0.7698
  136SAPE  H13S14755   5.777   4.916   9.426  1.0549 -1.1142 -3.0912
  136SAPE  C21414756   5.663   4.979   9.259 -0.1814  0.2904 -0.1046
  136SAPE  H14R14757   5.692   5.084   9.244 -0.3677  0.4819  0.8502
  136SAPE  C21514758   5.625   4.908   9.148 -0.4706  1.2349 -0.2513
  136SAPE  H15R14759   5.643   4.947   9.047  0.2960  1.6572  0.0384
  136SAPE  C21614760   5.589   4.759   9.144 -0.0145 -0.1368 -0.5234
  136SAPE  H16R14761   5.480   4.737   9.144 -0.3570  1.4238 -0.1705
  136SAPE  H16S14762   5.641   4.703   9.225 -2.3334 -1.2905  0.2682
  136SAPE  C21714763   5.661   4.712   9.015  0.0856  0.5468  0.5271
  136SAPE  H17R14764   5.629   4.764   8.922  0.1033 -2.1653 -1.0999
  136SAPE  H17S14765   5.619   4.611   8.996 -2.8225  2.1117 -2.4929
  136SAPE  C21814766   5.810   4.705   9.034 -0.0680 -0.2022  0.2450
  136SAPE  H18R14767   5.848   4.673   9.134  0.0127 -0.6743  0.0654
  136SAPE  H18S14768   5.859   4.804   9.016  0.5896 -0.4642  0.5526
  136SAPE  C21914769   5.879   4.606   8.937 -0.2559 -0.1044 -0.0593
  136SAPE  H19R14770   5.855   4.504   8.974 -0.9496  0.1528  0.2139
  136SAPE  H19S14771   5.987   4.616   8.960 -0.6357  0.8768  1.4431
  136SAPE  C22014772   5.822   4.603   8.797  0.0439  0.3835 -0.5476
  136SAPE  H20R14773   5.724   4.552   8.810  0.7032 -0.0835  4.2009
  136SAPE  H20S14774   5.888   4.539   8.734  0.4330 -2.9412  2.8408
  136SAPE  H20T14775   5.803   4.701   8.749 -2.7898  0.9666  1.5137
  136SAPE   C3314776   5.289   3.976  10.351 -0.2750  0.5829 -0.2274
  136SAPE   H3X14777   5.267   3.891  10.419 -2.6821  1.2260 -0.1094
  136SAPE   H3Y14778   5.380   4.031  10.383 -0.6003  1.1149 -0.2038
  136SAPE   C3414779   5.306   3.908  10.214  0.2271 -0.3849 -0.6219
  136SAPE   H4X14780   5.219   3.844  10.187  0.7178 -1.1114 -0.5075
  136SAPE   H4Y14781   5.394   3.841  10.230 -0.9090 -1.1088  3.5294
  136SAPE   C3514782   5.341   3.994  10.099 -0.3691  0.0182  0.3210
  136SAPE   H5X14783   5.450   4.009  10.090 -0.5297  0.2835 -1.4950
  136SAPE   H5Y14784   5.289   4.093  10.098 -0.4742 -0.0317 -1.4276
  136SAPE   C3614785   5.273   3.937   9.968 -0.0898 -0.2637 -0.2692
  136SAPE   H6X14786   5.163   3.942   9.978 -0.1487 -1.8578  0.0758
  136SAPE   H6Y14787   5.306   3.832   9.960  3.4224  0.5922  1.0781
  136SAPE   C3714788   5.329   4.010   9.844 -0.4609 -0.5105 -0.3337
  136SAPE   H7X14789   5.430   3.967   9.826 -1.2017 -2.6567  0.3045
  136SAPE   H7Y14790   5.329   4.117   9.872 -1.3178 -0.5866 -0.0300
  136SAPE   C3814791   5.255   3.983   9.714 -0.0934  0.5794  0.2407
  136SAPE   H8X14792   5.149   4.013   9.726 -0.5283 -0.7389 -0.0614
  136SAPE   H8Y14793   5.256   3.873   9.697 -1.0613  0.3583  1.4538
  136SAPE   C3914794   5.316   4.059   9.602 -0.2788 -0.4227  0.0410
  136SAPE   H9X14795   5.424   4.036   9.590 -0.3414  0.1261 -1.9278
  136SAPE   H9Y14796   5.316   4.163   9.641 -2.6797 -0.4743  0.3593
  136SAPE  C31014797   5.240   4.033   9.467 -0.7772  0.4617 -0.3778
  136SAPE  H10X14798   5.141   4.081   9.480 -0.7806  0.3466  0.0156
  136SAPE  H10Y14799   5.225   3.923   9.453 -0.7054  0.5505 -1.2271
  136SAPE  C31114800   5.315   4.096   9.350  0.2704  0.5689  0.0775
  136SAPE  H11X14801   5.424   4.077   9.355  0.2428  0.6827  1.6505
  136SAPE  H11Y14802   5.299   4.205   9.364 -0.2165  0.6909 -1.3132
  136SAPE  C31214803   5.249   4.035   9.223  0.8041 -0.2476  0.0064
  136SAPE  H12X14804   5.155   4.092   9.206  0.4081 -1.3489 -1.6662
  136SAPE  H12Y14805   5.216   3.931   9.242 -2.1662  0.7339  0.8930
  136SAPE  C31314806   5.328   4.032   9.089  0.0527  0.3298  0.6115
  136SAPE  H13X14807   5.407   3.954   9.097  0.8151  0.5973 -2.9432
  136SAPE  H13Y14808   5.381   4.126   9.066 -1.0477  0.4312 -1.7823
  136SAPE  C31414809   5.236   4.009   8.962  0.3809  0.8989 -0.1793
  136SAPE  H14X14810   5.141   4.066   8.972  0.1280  1.1351 -3.0956
  136SAPE  H14Y14811   5.218   3.900   8.954 -1.2299  1.0814  0.5123
  136SAPE  C31514812   5.314   4.062   8.839 -0.1290  0.0538 -0.3522
  136SAPE  H15X14813   5.386   3.989   8.795 -0.1044  0.4437 -0.9786
  136SAPE  H15Y14814   5.377   4.150   8.862  2.8431 -1.8920 -0.4711
  136SAPE  C31614815   5.212   4.103   8.728 -0.1670  0.0335 -0.6004
  136SAPE  H16X14816   5.270   4.155   8.649 -0.7771  1.7741  0.0437
  136SAPE  H16Y14817   5.147   4.175   8.782 -1.1634 -0.7328 -0.7465
  136SAPE  C31714818   5.123   3.993   8.677  0.4933  0.4835  0.0517
  136SAPE  H17X14819   5.068   3.965   8.770  1.6769  2.6360  1.4925
  136SAPE  H17Y14820   5.172   3.899   8.645 -2.5274 -1.3063  0.2839
  136SAPE  C31814821   5.024   4.025   8.564 -0.3111  0.1824  0.1417
  136SAPE  H18X14822   4.948   4.101   8.595 -0.5438 -0.3038  0.7913
  136SAPE  H18Y14823   4.962   3.935   8.545 -5.0797  2.3400  3.4938
  136SAPE  H18Z14824   5.071   4.064   8.471  1.1590  1.4371  1.3537
  137SAPE     N14825   1.406   2.328  11.260  0.1225 -0.1419  0.0280
  137SAPE   HN114826   1.319   2.363  11.304 -0.8062 -0.7601 -1.2802
  137SAPE   HN214827   1.439   2.383  11.178  0.9832 -0.9070 -0.1587
  137SAPE   HN314828   1.372   2.239  11.221  0.7202 -0.6038  0.5321
  137SAPE   C1214829   1.528   2.285  11.341 -0.5028  0.3036  0.9211
  137SAPE  H12A14830   1.493   2.208  11.413 -1.0991  1.1272  1.5349
  137SAPE  H12B14831   1.567   2.371  11.399  1.2723  1.1221 -1.3274
  137SAPE   C1114832   1.636   2.227  11.237  0.1021 -0.1655  0.3594
  137SAPE  H11A14833   1.707   2.170  11.301  0.3396  0.7074  0.8808
  137SAPE  H11B14834   1.688   2.312  11.189 -0.9229  1.9732  2.7826
  137SAPE     P14835   1.635   2.067  11.018 -0.5310 -0.7626 -0.6662
  137SAPE   O1314836   1.713   1.957  11.074  0.1108 -0.5936 -0.8298
  137SAPE   O1414837   1.525   2.034  10.921 -0.9344  1.2423  0.2835
  137SAPE   O1214838   1.566   2.147  11.141  0.2192  0.2146  0.3134
  137SAPE   O1114839   1.733   2.182  10.963  0.1291  0.7114  0.7044
  137SAPE    C114840   1.699   2.301  10.901 -0.5333  0.3260  0.6513
  137SAPE    HA14841   1.596   2.331  10.926 -1.8770 -1.4792 -2.2116
  137SAPE    HB14842   1.780   2.376  10.914  1.9246 -1.8856 -0.8113
  137SAPE    C214843   1.701   2.279  10.746  0.5447  0.2190  0.2002
  137SAPE    HS14844   1.642   2.185  10.732 -0.3987  0.9164 -0.6572
  137SAPE   O2114845   1.840   2.253  10.711 -0.5325  0.2336  0.2860
  137SAPE   C2114846   1.861   2.186  10.598 -0.5990  0.2562 -0.6232
  137SAPE   O2214847   1.778   2.126  10.532 -0.1364 -0.6330  0.6680
  137SAPE   C2214848   2.012   2.198  10.565  1.1177  0.9318  0.6701
  137SAPE   H2R14849   2.042   2.297  10.605  0.7124  1.2219  0.2705
  137SAPE   H2S14850   2.064   2.110  10.609  1.5942  0.9062  0.0770
  137SAPE    C314851   1.643   2.399  10.674  0.2446 -0.1207 -0.9765
  137SAPE    HX14852   1.710   2.487  10.685 -0.5602  0.5417 -1.2903
  137SAPE    HY14853   1.552   2.432  10.727  1.3754  0.2754  0.7905
  137SAPE   O3114854   1.621   2.383  10.530 -0.1180  0.4826  0.4603
  137SAPE   C3114855   1.526   2.294  10.508 -0.3300 -0.5858  0.3045
  137SAPE   O3214856   1.458   2.238  10.597  0.3564 -0.3526  0.8079
  137SAPE   C3214857   1.505   2.272  10.356  0.2100 -0.1624 -0.4716
  137SAPE   H2X14858   1.608   2.257  10.317  0.8087  1.1353  0.5456
  137SAPE   H2Y14859   1.462   2.363  10.307 -0.4636 -0.5141 -0.5536
  137SAPE   C2314860   2.033   2.192  10.415  0.0780 -0.4599 -0.7778
  137SAPE   H3R14861   1.988   2.283  10.371 -1.5828 -0.4929  0.7094
  137SAPE   H3S14862   1.971   2.115  10.364 -0.1766  0.5921 -2.0908
  137SAPE   C2414863   2.180   2.162  10.382  0.1401 -0.4109  0.2946
  137SAPE   H4R14864   2.175   2.144  10.272 -0.7367 -0.0460  0.2645
  137SAPE   H4S14865   2.207   2.060  10.418  1.7193 -0.6636 -1.4524
  137SAPE   C2514866   2.268   2.267  10.431  0.0094 -0.0956 -0.3247
  137SAPE   H5R14867   2.318   2.242  10.526  1.4966 -1.8617 -1.5040
  137SAPE   C2614868   2.307   2.378  10.369 -0.3843  0.7746 -0.5312
  137SAPE   H6R14869   2.389   2.432  10.418  0.5118 -0.1602 -0.9817
  137SAPE   C2714870   2.268   2.429  10.238  0.1657  0.5760 -0.1655
  137SAPE   H7R14871   2.196   2.511  10.255  0.3785  0.2132  3.0994
  137SAPE   H7S14872   2.220   2.346  10.181 -1.0576 -0.2335  1.9215
  137SAPE   C2814873   2.374   2.493  10.163  0.2508 -0.5705 -0.8465
  137SAPE   H8R14874   2.476   2.501  10.202  0.8937  0.7930 -2.6655
  137SAPE   C2914875   2.376   2.539  10.031  0.3642  0.6223 -0.4105
  137SAPE   H9R14876   2.469   2.582   9.990  2.0676 -1.6534  0.7996
  137SAPE  C21014877   2.260   2.535   9.937  0.0495  0.1916  0.3661
  137SAPE  H10R14878   2.177   2.484   9.989  1.3625  0.2752  2.6509
  137SAPE  H10S14879   2.296   2.469   9.855  0.1823  1.1360 -0.3606
  137SAPE  C21114880   2.212   2.664   9.884 -0.1864  0.6392  0.3326
  137SAPE  H11R14881   2.194   2.736   9.965 -1.0145  2.0779 -1.0569
  137SAPE  C21214882   2.181   2.690   9.754  0.7739  0.5017  0.4125
  137SAPE  H12R14883   2.140   2.789   9.732 -0.6899 -0.0320  0.6442
  137SAPE  C21314884   2.179   2.598   9.634 -0.0651  0.3143 -0.3111
  137SAPE  H13R14885   2.076   2.557   9.622 -1.1739  2.1245  2.0921
  137SAPE  H13S14886   2.245   2.510   9.642 -1.3990 -0.6033  1.2064
  137SAPE  C21414887   2.229   2.662   9.510  0.4053  0.4370  1.0219
  137SAPE  H14R14888   2.332   2.630   9.490  0.0095 -0.8432  0.9009
  137SAPE  C21514889   2.157   2.731   9.425 -0.3903  0.1956  0.0816
  137SAPE  H15R14890   2.211   2.772   9.337 -0.2415  0.6136  0.3641
  137SAPE  C21614891   2.012   2.758   9.446 -0.3785 -0.6566  0.5199
  137SAPE  H16R14892   2.004   2.842   9.518 -2.4234 -2.0390  2.0039
  137SAPE  H16S14893   1.941   2.686   9.491  0.1253 -2.4683 -1.4373
  137SAPE  C21714894   1.947   2.799   9.310 -0.3078  0.1028 -0.0120
  137SAPE  H17R14895   1.837   2.801   9.324 -0.5551  0.2819 -1.7926
  137SAPE  H17S14896   1.970   2.717   9.239  0.6627  0.0397  0.3586
  137SAPE  C21814897   1.978   2.939   9.256 -0.7838 -0.3656  0.4681
  137SAPE  H18R14898   2.084   2.973   9.263  0.1635 -3.1104  0.6704
  137SAPE  H18S14899   1.916   3.017   9.304 -0.6453 -0.2163  0.4058
  137SAPE  C21914900   1.934   2.947   9.110  0.2614 -0.0284  0.5508
  137SAPE  H19R14901   1.825   2.929   9.115 -0.2586  1.9854 -1.5273
  137SAPE  H19S14902   1.987   2.875   9.043  0.2666 -0.7112  1.2764
  137SAPE  C22014903   1.954   3.085   9.043  0.4636 -0.0900 -0.4335
  137SAPE  H20R14904   2.041   3.144   9.079  0.6678 -0.1592 -0.8050
  137SAPE  H20S14905   1.868   3.150   9.071  1.3932 -0.2127  3.3898
  137SAPE  H20T14906   1.958   3.083   8.932 -1.2870  3.9358 -0.7282
  137SAPE   C3314907   1.421   2.152  10.327 -0.4922 -0.1374 -0.6267
  137SAPE   H3X14908   1.314   2.160  10.357 -0.0475  1.0571  0.8225
  137SAPE   H3Y14909   1.461   2.067  10.386 -1.3781  0.6786  1.2586
  137SAPE   C3414910   1.431   2.121  10.175 -0.4631  0.1314 -0.3454
  137SAPE   H4X14911   1.540   2.115  10.158 -0.0097  1.7253  1.5458
  137SAPE   H4Y14912   1.409   2.209  10.112 -1.0316 -1.0490 -1.8600
  137SAPE   C3514913   1.360   1.991  10.127  0.6812 -0.3021 -0.2531
  137SAPE   H5X14914   1.249   1.990  10.135  0.5705  1.7648 -0.7718
  137SAPE   H5Y14915   1.398   1.910  10.191 -0.7052  0.9742  2.3320
  137SAPE   C3614916   1.392   1.947   9.980  0.4788 -0.2112 -1.0812
  137SAPE   H6X14917   1.364   1.843   9.952 -3.5912  1.4176 -4.1181
  137SAPE   H6Y14918   1.500   1.959   9.960  1.5303 -2.7214  2.1569
  137SAPE   C3714919   1.322   2.031   9.871  0.2462 -0.5757  0.9635
  137SAPE   H7X14920   1.362   2.134   9.882 -0.8908  0.3196 -2.2675
  137SAPE   H7Y14921   1.213   2.035   9.889  0.4500  1.2240  2.0428
  137SAPE   C3814922   1.355   1.985   9.731 -0.3503 -0.5379  0.5378
  137SAPE   H8X14923   1.297   1.894   9.705  0.8399 -1.2486  0.2919
  137SAPE   H8Y14924   1.463   1.957   9.723  0.4122  2.1509  0.6437
  137SAPE   C3914925   1.345   2.103   9.635  0.5077 -0.1163  0.7611
  137SAPE   H9X14926   1.408   2.181   9.681 -0.2856  1.1477 -0.2336
  137SAPE   H9Y14927   1.238   2.132   9.644  0.3364 -0.7908  0.9435
  137SAPE  C31014928   1.383   2.079   9.486 -0.3292 -0.0072 -0.0034
  137SAPE  H10X14929   1.310   2.011   9.438  0.2481 -0.5285 -0.1483
  137SAPE  H10Y14930   1.482   2.028   9.486  0.3180  0.9477 -3.7572
  137SAPE  C31114931   1.402   2.212   9.409  1.1377  0.7974 -0.0882
  137SAPE  H11X14932   1.494   2.257   9.452  0.2789  1.9927  0.5333
  137SAPE  H11Y14933   1.314   2.271   9.442 -1.3777 -2.8845  0.4150
  137SAPE  C31214934   1.410   2.196   9.257 -0.0339 -0.1140  0.3593
  137SAPE  H12X14935   1.495   2.128   9.234  1.5010  1.4444  1.1865
  137SAPE  H12Y14936   1.436   2.293   9.209 -0.5160  0.3088  0.9415
  137SAPE  C31314937   1.276   2.148   9.201  0.4074 -0.1999  0.3541
  137SAPE  H13X14938   1.195   2.211   9.245  1.0582  0.4911  0.5880
  137SAPE  H13Y14939   1.249   2.044   9.229 -1.9056  0.3413  0.4071
  137SAPE  C31414940   1.266   2.178   9.049  0.6867  0.6980 -0.1668
  137SAPE  H14X14941   1.275   2.284   9.019  2.7912  0.5122 -0.2980
  137SAPE  H14Y14942   1.167   2.136   9.021  0.9378  0.5695 -0.8800
  137SAPE  C31514943   1.367   2.095   8.966 -0.1042 -0.6399 -0.2456
  137SAPE  H15X14944   1.370   1.988   8.994  0.2204 -0.6821 -0.4368
  137SAPE  H15Y14945   1.466   2.143   8.982 -0.5473  1.0254 -2.1197
  137SAPE  C31614946   1.342   2.105   8.812 -0.1953  1.1123 -0.3737
  137SAPE  H16X14947   1.322   2.208   8.777 -0.4909  1.5783  1.0666
  137SAPE  H16Y14948   1.255   2.039   8.789  0.1289  0.4331  0.3024
  137SAPE  C31714949   1.447   2.040   8.719  0.1617 -1.2249 -0.0862
  137SAPE  H17X14950   1.465   1.933   8.741  0.0493 -1.0119  1.1652
  137SAPE  H17Y14951   1.544   2.083   8.752 -0.2306 -0.7814  0.5227
  137SAPE  C31814952   1.430   2.072   8.568  0.2209 -0.8285 -0.1630
  137SAPE  H18X14953   1.520   2.041   8.510 -0.4711 -2.5400 -0.4010
  137SAPE  H18Y14954   1.408   2.180   8.569  2.6293 -0.2738  0.9847
  137SAPE  H18Z14955   1.351   2.002   8.534 -1.1321  0.4704  0.2173
  138SAPE     N14956   4.768   0.713  10.891 -0.8433 -0.4131 -0.0855
  138SAPE   HN114957   4.869   0.709  10.867 -0.8654  0.5395 -0.3744
  138SAPE   HN214958   4.765   0.790  10.961 -0.8723  1.1506 -1.7272
  138SAPE   HN314959   4.735   0.625  10.936  0.9202 -1.1223 -0.1359
  138SAPE   C1214960   4.690   0.746  10.763 -0.0591 -0.1052 -0.3978
  138SAPE  H12A14961   4.687   0.652  10.704 -1.1376 -0.9856  0.9886
  138SAPE  H12B14962   4.759   0.802  10.696 -0.1892  0.5631  0.0230
  138SAPE   C1114963   4.555   0.804  10.795  0.3778  0.1037 -0.5853
  138SAPE  H11A14964   4.491   0.724  10.839  0.5612  0.4498  0.3383
  138SAPE  H11B14965   4.501   0.824  10.701 -0.6449 -0.2957 -0.0963
  138SAPE     P14966   4.615   1.058  10.826  0.4281 -0.5318  0.1667
  138SAPE   O1314967   4.571   1.153  10.929 -0.0765  0.9319 -0.0658
  138SAPE   O1414968   4.757   1.063  10.787 -0.5323 -0.0642  0.2693
  138SAPE   O1214969   4.564   0.919  10.876  0.1174 -0.2326 -0.1951
  138SAPE   O1114970   4.529   1.096  10.697  0.2457  0.1993  0.5539
  138SAPE    C114971   4.385   1.074  10.698  0.0254  0.2593 -0.1991
  138SAPE    HA14972   4.363   0.969  10.726 -1.1424  0.4644 -0.2855
  138SAPE    HB14973   4.337   1.144  10.770  1.3482  0.1932  0.7816
  138SAPE    C214974   4.312   1.093  10.559 -0.2847 -0.0194  0.6859
  138SAPE    HS14975   4.231   1.016  10.559 -0.2835 -0.0322 -0.0924
  138SAPE   O2114976   4.398   1.063  10.449  0.4822  0.3285  0.2654
  138SAPE   C2114977   4.423   0.937  10.432  0.2321  0.2357 -0.3827
  138SAPE   O2214978   4.383   0.842  10.504 -0.3686 -0.3635 -0.1044
  138SAPE   C2214979   4.535   0.926  10.327  0.1084  0.7971  0.4327
  138SAPE   H2R14980   4.489   0.954  10.230 -1.4877 -0.7891  0.6723
  138SAPE   H2S14981   4.613   1.000  10.354  2.2540 -1.4896  0.9551
  138SAPE    C314982   4.256   1.226  10.548  0.4229  0.0157  0.0518
  138SAPE    HX14983   4.322   1.293  10.606 -2.4634  2.4746  0.6915
  138SAPE    HY14984   4.156   1.236  10.594  0.2798  2.7391 -0.7013
  138SAPE   O3114985   4.255   1.275  10.415 -0.5421  0.3062  0.2836
  138SAPE   C3114986   4.157   1.233  10.329 -0.0959  0.1418 -0.1099
  138SAPE   O3214987   4.053   1.181  10.361  0.4082  0.1426 -0.2721
  138SAPE   C3214988   4.201   1.271  10.188 -0.1473 -0.4441  0.0946
  138SAPE   H2X14989   4.300   1.222  10.183 -1.4286 -3.1885 -0.3050
  138SAPE   H2Y14990   4.217   1.381  10.178 -0.4731 -0.2678  1.2887
  138SAPE   C2314991   4.604   0.789  10.335  1.2718  0.1310 -0.0245
  138SAPE   H3R14992   4.528   0.709  10.325  0.8365  0.1423  2.4688
  138SAPE   H3S14993   4.659   0.783  10.432  1.5877  1.8037 -0.0715
  138SAPE   C2414994   4.713   0.762  10.228  0.2724  0.1697  0.1759
  138SAPE   H4R14995   4.794   0.834  10.254  0.0637  0.4047  0.1790
  138SAPE   H4S14996   4.680   0.793  10.127  0.7226 -0.7231 -0.2529
  138SAPE   C2514997   4.777   0.628  10.230  0.0900  0.4620 -0.1410
  138SAPE   H5R14998   4.860   0.616  10.302 -1.0310  0.2845  1.1759
  138SAPE   C2614999   4.747   0.519  10.150 -0.9243 -0.1775  0.4317
  138SAPE   H6R15000   4.810   0.429  10.156 -0.3044  0.2286  0.1617
  138SAPE   C2715001   4.634   0.512  10.058  0.5070 -0.2056 -0.2701
  138SAPE   H7R15002   4.616   0.609  10.006  1.1178 -1.3677 -2.8040
  138SAPE   H7S15003   4.546   0.492  10.122 -0.7842  0.3714 -1.8129
  138SAPE   C2815004   4.650   0.403   9.957 -0.1441 -0.4575 -0.6439
  138SAPE   H8R15005   4.579   0.321   9.977 -2.9706  1.6095 -1.4488
  138SAPE   C2915006   4.741   0.397   9.861 -0.5716  0.1459  0.3178
  138SAPE   H9R15007   4.728   0.324   9.780 -3.8982  1.5297 -0.5310
  138SAPE  C21015008   4.847   0.503   9.840  0.5459 -0.5938 -0.7517
  138SAPE  H10R15009   4.860   0.573   9.925  2.2706 -0.9638 -0.6779
  138SAPE  H10S15010   4.813   0.565   9.754  0.6145  0.5366  0.0240
  138SAPE  C21115011   4.986   0.450   9.806  0.0329  0.8216 -0.0647
  138SAPE  H11R15012   5.049   0.433   9.895 -0.4879 -0.3373  0.1062
  138SAPE  C21215013   5.032   0.415   9.687 -0.1711 -0.3103 -0.0439
  138SAPE  H12R15014   5.137   0.386   9.669 -0.2863 -0.3608 -0.6433
  138SAPE  C21315015   4.945   0.425   9.557 -0.1552 -0.0041 -0.4071
  138SAPE  H13R15016   4.900   0.525   9.540 -1.1053  0.0228  1.7805
  138SAPE  H13S15017   4.853   0.363   9.568  0.7066 -1.0996  1.0448
  138SAPE  C21415018   5.031   0.393   9.437 -0.4900  0.7654 -0.1627
  138SAPE  H14R15019   5.122   0.334   9.453 -1.8674 -1.3248  0.2726
  138SAPE  C21515020   4.996   0.414   9.305  0.7760 -0.6422 -1.1155
  138SAPE  H15R15021   5.073   0.380   9.234  2.1480  0.2750 -0.1303
  138SAPE  C21615022   4.870   0.463   9.257  0.0161 -0.4305  0.2398
  138SAPE  H16R15023   4.877   0.570   9.225 -1.9314  0.1493  1.5442
  138SAPE  H16S15024   4.797   0.471   9.341 -1.5599 -0.1734 -1.1065
  138SAPE  C21715025   4.801   0.388   9.138  0.1433  1.3687  0.2422
  138SAPE  H17R15026   4.697   0.422   9.120 -0.3705  0.1437  0.7436
  138SAPE  H17S15027   4.785   0.287   9.182 -0.3132  1.6139  0.6583
  138SAPE  C21815028   4.881   0.374   9.006 -0.5511 -0.3105  0.1924
  138SAPE  H18R15029   4.978   0.334   9.041  0.1703  0.4633 -0.8197
  138SAPE  H18S15030   4.906   0.470   8.955  1.7291 -0.9945 -0.1019
  138SAPE  C21915031   4.802   0.286   8.907  0.5435  0.7894 -0.5537
  138SAPE  H19R15032   4.703   0.334   8.891 -0.2009 -0.8797 -1.1902
  138SAPE  H19S15033   4.768   0.188   8.946  0.3256  0.7373 -0.8719
  138SAPE  C22015034   4.860   0.279   8.771 -0.4578  0.2272 -0.1658
  138SAPE  H20R15035   4.848   0.379   8.725 -1.1133 -0.7974 -2.4036
  138SAPE  H20S15036   4.805   0.212   8.700  0.8835 -0.0085 -1.0189
  138SAPE  H20T15037   4.967   0.252   8.759 -0.6840  0.0937 -2.4226
  138SAPE   C3315038   4.096   1.226  10.092  0.0683  0.0924  0.4696
  138SAPE   H3X15039   3.992   1.263  10.110 -0.0244  0.8182 -1.3346
  138SAPE   H3Y15040   4.096   1.116  10.084  3.1576  0.1317 -1.9010
  138SAPE   C3415041   4.124   1.274   9.952 -0.2221 -0.4702  0.3670
  138SAPE   H4X15042   4.225   1.256   9.909 -0.9203 -2.3165 -0.6149
  138SAPE   H4Y15043   4.114   1.384   9.948  0.5605 -0.4200 -0.6487
  138SAPE   C3515044   4.031   1.203   9.853 -0.3468  0.0697 -0.2514
  138SAPE   H5X15045   3.923   1.218   9.871 -0.8979 -1.2130 -2.1583
  138SAPE   H5Y15046   4.053   1.094   9.858 -1.4078 -0.2276 -1.4216
  138SAPE   C3615047   4.061   1.250   9.708 -0.1958 -0.0455 -1.6866
  138SAPE   H6X15048   4.066   1.361   9.702 -2.8674  0.2162 -0.5701
  138SAPE   H6Y15049   3.965   1.219   9.660 -2.3323  0.7538  1.7005
  138SAPE   C3715050   4.189   1.188   9.645 -0.3405  0.0094 -0.4388
  138SAPE   H7X15051   4.193   1.077   9.647  1.4801  0.0106 -1.6307
  138SAPE   H7Y15052   4.279   1.221   9.702 -1.8433  0.5980  1.7003
  138SAPE   C3815053   4.224   1.241   9.501 -0.8329 -0.1426 -0.1266
  138SAPE   H8X15054   4.259   1.346   9.501 -0.7030 -0.1591 -1.5391
  138SAPE   H8Y15055   4.127   1.239   9.447 -0.3018 -1.1442 -1.0868
  138SAPE   C3915056   4.327   1.158   9.422 -0.1037 -0.2174  0.2997
  138SAPE   H9X15057   4.300   1.051   9.430  0.1261 -0.2844  0.1753
  138SAPE   H9Y15058   4.429   1.192   9.450  0.1086  1.3535 -2.0443
  138SAPE  C31015059   4.300   1.181   9.270  0.3221  0.3318 -0.7223
  138SAPE  H10X15060   4.339   1.282   9.249 -1.7428  1.6402  1.3056
  138SAPE  H10Y15061   4.196   1.175   9.233  0.1121 -3.4026  0.0906
  138SAPE  C31115062   4.385   1.084   9.192  0.8439  0.2242 -0.0091
  138SAPE  H11X15063   4.332   0.986   9.195 -3.0823  2.0960 -0.9023
  138SAPE  H11Y15064   4.480   1.071   9.247  0.2801 -1.2430  0.6715
  138SAPE  C31215065   4.409   1.127   9.039  0.1079  0.6454  0.0825
  138SAPE  H12X15066   4.314   1.091   8.994  0.7319  0.8010 -1.4206
  138SAPE  H12Y15067   4.500   1.087   8.991  0.0103 -1.0794  1.2387
  138SAPE  C31315068   4.410   1.279   9.008 -0.9904 -0.1852  0.1727
  138SAPE  H13X15069   4.488   1.323   9.073  1.0029 -3.1901  0.0070
  138SAPE  H13Y15070   4.308   1.312   9.036 -1.2215 -1.7862  1.3265
  138SAPE  C31415071   4.424   1.302   8.859  0.9847  0.3414  0.1063
  138SAPE  H14X15072   4.406   1.408   8.831  3.6435  0.4252 -1.6277
  138SAPE  H14Y15073   4.344   1.245   8.806 -0.1480  2.8249 -1.0189
  138SAPE  C31515074   4.551   1.256   8.789 -0.1227  0.5071 -0.3854
  138SAPE  H15X15075   4.602   1.172   8.841 -0.7205  0.8120  0.7336
  138SAPE  H15Y15076   4.629   1.334   8.798  2.4441 -2.0012  0.7395
  138SAPE  C31615077   4.548   1.226   8.636 -0.5534 -0.1116 -0.6368
  138SAPE  H16X15078   4.649   1.184   8.618 -0.5231 -1.2811  1.8989
  138SAPE  H16Y15079   4.533   1.319   8.576 -0.8157  0.1223 -0.2119
  138SAPE  C31715080   4.446   1.119   8.589 -0.3413  0.3126 -0.3966
  138SAPE  H17X15081   4.430   1.128   8.479 -1.1107  1.5696 -0.2067
  138SAPE  H17Y15082   4.347   1.136   8.636  0.2393  0.9201  0.6451
  138SAPE  C31815083   4.489   0.986   8.642  0.8325 -0.0381  0.5388
  138SAPE  H18X15084   4.417   0.915   8.595 -0.5226  2.0479 -0.7308
  138SAPE  H18Y15085   4.481   0.974   8.752 -0.6713 -0.3150  0.4285
  138SAPE  H18Z15086   4.592   0.961   8.611 -0.0755 -2.3438 -0.9093
  139SAPE     N15087   4.114   6.255  10.850 -0.9065 -0.5691  0.7272
  139SAPE   HN115088   4.051   6.260  10.933 -0.6263  1.2677  0.8904
  139SAPE   HN215089   4.202   6.306  10.872 -0.1990 -1.8265  0.8601
  139SAPE   HN315090   4.056   6.312  10.785  0.8468 -0.0522 -0.4416
  139SAPE   C1215091   4.150   6.124  10.795  0.2750 -0.0184 -0.2919
  139SAPE  H12A15092   4.055   6.069  10.783  0.1949  0.1293 -0.3328
  139SAPE  H12B15093   4.216   6.067  10.864  1.0842 -1.6438 -2.3133
  139SAPE   C1115094   4.220   6.136  10.655  0.2542  0.2143  0.5684
  139SAPE  H11A15095   4.135   6.178  10.598 -0.5309 -0.9709  0.8303
  139SAPE  H11B15096   4.240   6.032  10.621 -2.3815 -0.5099  1.0654
  139SAPE     P15097   4.345   6.330  10.541  0.5219  0.0730 -0.1152
  139SAPE   O1315098   4.238   6.431  10.579  0.4432 -0.3542  0.6560
  139SAPE   O1415099   4.478   6.384  10.531  0.2240  0.3390  0.0820
  139SAPE   O1215100   4.339   6.214  10.655 -0.5848  0.0605 -0.3175
  139SAPE   O1115101   4.306   6.259  10.403  0.0093 -0.5240  0.5875
  139SAPE    C115102   4.376   6.135  10.377  0.8730 -0.4238  0.4733
  139SAPE    HA15103   4.369   6.065  10.464  2.5061 -0.2933  0.7336
  139SAPE    HB15104   4.318   6.074  10.304  1.7454 -1.7348  0.8309
  139SAPE    C215105   4.511   6.150  10.324  0.0538 -0.8421 -0.3788
  139SAPE    HS15106   4.549   6.247  10.362 -1.9796 -0.0697 -0.1922
  139SAPE   O2115107   4.493   6.136  10.180 -0.1582 -0.7271  0.0033
  139SAPE   C2115108   4.497   6.252  10.119 -0.2578 -0.0430  0.4089
  139SAPE   O2215109   4.553   6.351  10.160  0.1226 -0.4046  0.0736
  139SAPE   C2215110   4.411   6.240   9.999  0.3144  0.4090  0.2682
  139SAPE   H2R15111   4.426   6.143   9.947 -0.8133  1.2060 -1.6581
  139SAPE   H2S15112   4.309   6.244  10.043  0.6562 -3.0411  1.7272
  139SAPE    C315113   4.621   6.046  10.368 -0.5749  0.1981 -0.2815
  139SAPE    HX15114   4.577   5.946  10.351 -1.4571  0.1471  2.0634
  139SAPE    HY15115   4.640   6.065  10.475 -1.5192  1.8056 -0.3674
  139SAPE   O3115116   4.743   6.065  10.289  0.6631 -0.2024  0.2318
  139SAPE   C3115117   4.821   6.168  10.323  0.6971  0.1987 -0.2818
  139SAPE   O3215118   4.806   6.232  10.424 -0.2670  0.1227 -0.5393
  139SAPE   C3215119   4.934   6.183  10.226 -0.5203 -0.2152  0.1133
  139SAPE   H2X15120   4.914   6.113  10.142 -2.2770 -0.4636  0.6987
  139SAPE   H2Y15121   5.035   6.162  10.267  1.3120  1.9633 -2.9245
  139SAPE   C2315122   4.434   6.345   9.895 -0.5821  0.2630  0.0919
  139SAPE   H3R15123   4.443   6.451   9.927  1.0219  0.4887 -1.0264
  139SAPE   H3S15124   4.336   6.345   9.843  0.3284 -1.0413 -1.7520
  139SAPE   C2415125   4.537   6.316   9.787  0.3606 -0.6625 -0.0833
  139SAPE   H4R15126   4.501   6.370   9.697 -2.9929 -0.7877  1.0320
  139SAPE   H4S15127   4.535   6.208   9.760 -0.3949 -0.7434  0.2923
  139SAPE   C2515128   4.673   6.367   9.828 -0.6798  0.4133  0.0366
  139SAPE   H5R15129   4.673   6.406   9.931 -3.3751  1.2703 -0.1932
  139SAPE   C2615130   4.783   6.370   9.756 -0.3249 -0.3166  0.5745
  139SAPE   H6R15131   4.875   6.422   9.786 -0.3439  0.8891 -1.3082
  139SAPE   C2715132   4.786   6.326   9.615  0.0592  0.5176  0.1109
  139SAPE   H7R15133   4.769   6.417   9.553 -0.6132  0.9502  0.9231
  139SAPE   H7S15134   4.703   6.256   9.592  0.1279  0.1569  0.9400
  139SAPE   C2815135   4.920   6.271   9.567  0.6948 -0.2589 -0.1228
  139SAPE   H8R15136   5.002   6.267   9.640  0.9119  1.4763 -0.2260
  139SAPE   C2915137   4.936   6.203   9.453 -1.2131  0.3153 -0.7589
  139SAPE   H9R15138   5.038   6.173   9.427 -0.8772 -0.2011  1.0563
  139SAPE  C21015139   4.829   6.177   9.352  0.5189 -0.0758  0.3638
  139SAPE  H10R15140   4.858   6.202   9.247 -1.1591  0.4872  0.0078
  139SAPE  H10S15141   4.741   6.242   9.371  0.5806 -0.3149  1.5100
  139SAPE  C21115142   4.757   6.043   9.367 -0.4798  0.1206  0.1499
  139SAPE  H11R15143   4.717   6.027   9.469 -0.9151  1.9131  0.2852
  139SAPE  C21215144   4.731   5.943   9.272  0.0721  0.6822 -0.0970
  139SAPE  H12R15145   4.687   5.849   9.307  3.8956 -1.6471 -1.0636
  139SAPE  C21315146   4.761   5.939   9.122  0.4234 -0.3625 -0.1586
  139SAPE  H13R15147   4.772   6.043   9.084  1.6491 -0.9756 -1.5576
  139SAPE  H13S15148   4.666   5.911   9.071  0.7746 -0.3804 -0.8051
  139SAPE  C21415149   4.884   5.867   9.086  0.3225  0.7840 -0.1167
  139SAPE  H14R15150   4.894   5.759   9.103  0.2470  0.5598 -1.3993
  139SAPE  C21515151   4.993   5.928   9.031  0.7221  0.3713 -0.0060
  139SAPE  H15R15152   5.079   5.867   9.000  1.4484  1.2148  0.2997
  139SAPE  C21615153   5.011   6.072   9.002 -0.1706 -0.7917  0.1430
  139SAPE  H16R15154   5.115   6.109   9.013 -0.4953  0.6157 -1.1340
  139SAPE  H16S15155   4.957   6.129   9.081 -0.2335 -1.1540  0.3638
  139SAPE  C21715156   4.970   6.127   8.867 -0.3906 -0.2320  0.1704
  139SAPE  H17R15157   4.872   6.081   8.838 -1.3855  1.9556 -0.1407
  139SAPE  H17S15158   5.051   6.111   8.792 -0.8316  1.4987 -0.7260
  139SAPE  C21815159   4.947   6.286   8.882 -0.8602 -0.1193 -1.2573
  139SAPE  H18R15160   4.944   6.320   8.776  0.1433 -3.1886 -2.4049
  139SAPE  H18S15161   5.037   6.332   8.927 -0.3880 -2.8906  0.9010
  139SAPE  C21915162   4.818   6.335   8.948 -0.7175 -0.1081 -0.5128
  139SAPE  H19R15163   4.803   6.287   9.047  0.4881  0.7173  0.0877
  139SAPE  H19S15164   4.723   6.302   8.900 -2.4237  0.6010  2.1130
  139SAPE  C22015165   4.808   6.482   8.959  0.0338 -0.0973 -0.4287
  139SAPE  H20R15166   4.825   6.539   8.865 -3.0822  1.9573  0.1064
  139SAPE  H20S15167   4.886   6.521   9.028 -0.8857 -1.4800  1.4516
  139SAPE  H20T15168   4.707   6.505   8.999 -1.4224 -1.6582 -2.9833
  139SAPE   C3315169   4.945   6.331  10.171  0.1715  0.4730 -0.3583
  139SAPE   H3X15170   4.967   6.401  10.254  1.8036 -0.2799 -0.1153
  139SAPE   H3Y15171   4.842   6.356  10.137  0.0478 -1.4929 -1.6027
  139SAPE   C3415172   5.043   6.351  10.066  0.1252 -0.3336 -0.6196
  139SAPE   H4X15173   5.013   6.303   9.971 -1.7786  1.7833 -1.1840
  139SAPE   H4Y15174   5.140   6.312  10.106 -1.1105 -1.0809  1.8752
  139SAPE   C3515175   5.073   6.504  10.040 -0.3182 -0.3077 -0.0509
  139SAPE   H5X15176   5.094   6.556  10.136 -0.0700 -1.1187  0.3505
  139SAPE   H5Y15177   4.985   6.546   9.987  0.2026  1.3341  0.3295
  139SAPE   C3615178   5.183   6.515   9.934  0.6316 -0.0216 -0.7020
  139SAPE   H6X15179   5.282   6.481   9.972  1.6111  0.8804 -2.3474
  139SAPE   H6Y15180   5.185   6.624   9.911 -0.9284  0.8353  2.5773
  139SAPE   C3715181   5.162   6.448   9.798  0.2797  0.8088  0.3379
  139SAPE   H7X15182   5.071   6.493   9.753  0.2238  0.6568  0.2972
  139SAPE   H7Y15183   5.159   6.338   9.809 -0.8413  0.8535  0.6332
  139SAPE   C3815184   5.286   6.474   9.713 -0.2351  0.0109  0.2431
  139SAPE   H8X15185   5.380   6.453   9.768 -0.2966 -2.3331 -0.4467
  139SAPE   H8Y15186   5.291   6.581   9.682 -0.9079 -0.4129 -1.4493
  139SAPE   C3915187   5.295   6.393   9.588 -0.0636 -0.6144  0.5707
  139SAPE   H9X15188   5.201   6.397   9.530  0.5350 -1.3765 -0.4870
  139SAPE   H9Y15189   5.292   6.284   9.608 -2.0075 -0.1359  3.6065
  139SAPE  C31015190   5.412   6.421   9.492 -0.1244 -0.0413 -0.4326
  139SAPE  H10X15191   5.503   6.400   9.551  2.1976 -0.1742 -3.8143
  139SAPE  H10Y15192   5.412   6.529   9.467 -0.6528  0.6199  2.0547
  139SAPE  C31115193   5.409   6.333   9.357 -0.1946 -0.1603 -0.4678
  139SAPE  H11X15194   5.390   6.226   9.379 -0.2248 -0.0879 -0.1397
  139SAPE  H11Y15195   5.506   6.336   9.303  0.6813  1.3206  1.0618
  139SAPE  C31215196   5.307   6.391   9.255  0.0516 -0.2280  0.8870
  139SAPE  H12X15197   5.340   6.496   9.236 -1.1120  0.3147  1.7262
  139SAPE  H12Y15198   5.210   6.394   9.309 -0.9659 -0.0757 -0.8914
  139SAPE  C31315199   5.288   6.322   9.121  0.6053 -0.5984 -0.2877
  139SAPE  H13X15200   5.231   6.392   9.056  1.2454  2.3653  2.0972
  139SAPE  H13Y15201   5.226   6.232   9.141 -0.2803 -0.2569 -1.4119
  139SAPE  C31415202   5.413   6.285   9.049  0.0193  0.4088 -0.7052
  139SAPE  H14X15203   5.467   6.217   9.119  0.8216  0.7457 -0.9865
  139SAPE  H14Y15204   5.487   6.365   9.030 -0.4333  0.7661 -0.9624
  139SAPE  C31515205   5.398   6.226   8.908  0.5640 -0.2099  0.2051
  139SAPE  H15X15206   5.436   6.310   8.846  2.5052 -1.2607 -0.1025
  139SAPE  H15Y15207   5.290   6.202   8.894  0.8019 -1.6552  0.7506
  139SAPE  C31615208   5.483   6.111   8.889  0.8486  0.5279  0.0547
  139SAPE  H16X15209   5.585   6.120   8.932  0.2019  2.7047  1.2505
  139SAPE  H16Y15210   5.444   6.022   8.943  1.2389  0.6242  0.4943
  139SAPE  C31715211   5.492   6.088   8.732 -0.2070  0.4866  0.0283
  139SAPE  H17X15212   5.515   6.188   8.690 -2.1378  2.5671  3.4081
  139SAPE  H17Y15213   5.394   6.056   8.690  0.4169  0.9355 -1.8455
  139SAPE  C31815214   5.603   5.985   8.705 -0.0620  0.0676  0.0325
  139SAPE  H18X15215   5.583   5.884   8.746  0.5906 -1.4432 -3.0812
  139SAPE  H18Y15216   5.695   6.014   8.760  1.7173 -2.4218 -1.4475
  139SAPE  H18Z15217   5.635   5.972   8.599 -1.5875 -0.5413 -0.3799
  140SAPE     N15218   1.748   4.015  11.126 -0.3397  0.3868  0.0187
  140SAPE   HN115219   1.676   4.051  11.191  0.4809 -1.6796  2.2131
  140SAPE   HN215220   1.830   4.078  11.127  0.2008 -0.2601 -1.1201
  140SAPE   HN315221   1.717   4.024  11.027 -2.6551  0.3130  0.6869
  140SAPE   C1215222   1.785   3.869  11.151 -0.5630  0.3205  0.0773
  140SAPE  H12A15223   1.692   3.811  11.133 -0.1546 -1.0813  2.1583
  140SAPE  H12B15224   1.805   3.856  11.259 -0.2347 -1.9218 -0.2036
  140SAPE   C1115225   1.911   3.829  11.074 -0.1521 -0.0914 -0.2704
  140SAPE  H11A15226   1.908   3.868  10.970  1.9292  1.3668  0.1580
  140SAPE  H11B15227   1.916   3.719  11.065 -3.4188 -0.5289  1.5365
  140SAPE     P15228   2.109   3.995  11.129 -0.0372  0.1245 -0.3625
  140SAPE   O1315229   2.018   4.112  11.129  0.1936 -0.6168 -0.3828
  140SAPE   O1415230   2.212   3.995  11.237  0.7564  0.4137  0.4032
  140SAPE   O1215231   2.029   3.866  11.137 -0.5208 -0.2867  0.4636
  140SAPE   O1115232   2.183   3.989  10.997 -0.2481  0.8261 -0.0352
  140SAPE    C115233   2.277   3.886  10.962 -0.4653 -0.0082 -0.0888
  140SAPE    HA15234   2.370   3.888  11.024  0.1593 -1.5284 -0.9347
  140SAPE    HB15235   2.228   3.789  10.984 -0.1468  0.0164  0.7956
  140SAPE    C215236   2.313   3.877  10.810  0.1924  0.0811  0.4521
  140SAPE    HS15237   2.366   3.970  10.782  0.5399 -0.6590 -1.5149
  140SAPE   O2115238   2.191   3.851  10.737 -0.0995 -0.2805  0.4091
  140SAPE   C2115239   2.140   3.961  10.673 -0.1326  0.5696 -0.4162
  140SAPE   O2215240   2.189   4.069  10.678  0.5645  0.0504  0.0487
  140SAPE   C2215241   2.007   3.926  10.606  0.2669 -0.1741 -0.5846
  140SAPE   H2R15242   2.016   3.826  10.559 -3.2343 -0.6976 -0.3541
  140SAPE   H2S15243   1.932   3.915  10.686 -0.2816  0.8042 -0.9488
  140SAPE    C315244   2.412   3.766  10.782 -0.0835 -0.4264  1.1631
  140SAPE    HX15245   2.357   3.671  10.802 -1.3978 -0.4616 -2.0286
  140SAPE    HY15246   2.494   3.775  10.856  0.2291  1.8472  0.6058
  140SAPE   O3115247   2.450   3.759  10.642 -0.3193 -0.1414 -0.7202
  140SAPE   C3115248   2.563   3.815  10.619 -0.3481 -0.1162 -0.2587
  140SAPE   O3215249   2.625   3.882  10.701 -0.0309  0.0064  0.4520
  140SAPE   C3215250   2.610   3.773  10.477  0.3274 -0.2042  0.0163
  140SAPE   H2X15251   2.647   3.669  10.490 -1.7521 -1.0572 -0.4659
  140SAPE   H2Y15252   2.697   3.836  10.446  0.9426 -0.3704  1.3078
  140SAPE   C2315253   1.965   4.024  10.498  0.0572 -0.4344  0.1828
  140SAPE   H3R15254   1.995   4.128  10.523 -0.2485 -0.5488  1.0614
  140SAPE   H3S15255   1.855   4.022  10.514 -0.0720  3.3685  0.7388
  140SAPE   C2415256   2.018   3.977  10.360 -0.0853 -0.2314  0.5238
  140SAPE   H4R15257   1.964   4.037  10.283  1.2117  1.4816  0.8819
  140SAPE   H4S15258   1.988   3.873  10.338 -0.4855  0.2890 -1.6955
  140SAPE   C2515259   2.169   3.990  10.330  0.7953 -0.0602  0.4213
  140SAPE   H5R15260   2.233   3.975  10.418  1.0131  0.3506  0.3362
  140SAPE   C2615261   2.226   4.027  10.210  0.3182 -0.4407 -0.7255
  140SAPE   H6R15262   2.334   4.044  10.207  0.1649  0.5835 -0.6737
  140SAPE   C2715263   2.154   4.050  10.082  0.4968 -0.4228 -0.4721
  140SAPE   H7R15264   2.128   4.158  10.079  0.9885 -0.3155 -0.8960
  140SAPE   H7S15265   2.057   3.995  10.087 -1.3933  2.7118  0.5739
  140SAPE   C2815266   2.231   4.016   9.955  0.4829  0.2053  0.0640
  140SAPE   H8R15267   2.340   4.028   9.964  0.4206  0.1328  1.0451
  140SAPE   C2915268   2.188   3.971   9.832 -0.1732  0.1629 -0.0437
  140SAPE   H9R15269   2.266   3.938   9.761 -0.6520 -0.6811 -0.1858
  140SAPE  C21015270   2.045   3.945   9.790 -0.0695 -0.0698  0.6521
  140SAPE  H10R15271   1.993   3.912   9.884  0.4208 -1.9826  0.3065
  140SAPE  H10S15272   2.032   3.854   9.727 -1.1064  0.5498 -0.0545
  140SAPE  C21115273   1.981   4.069   9.731 -0.2922 -0.1069 -0.7363
  140SAPE  H11R15274   1.937   4.145   9.797  1.2951  0.5280 -0.3598
  140SAPE  C21215275   1.983   4.095   9.598 -0.7773 -0.1768  0.2816
  140SAPE  H12R15276   1.938   4.191   9.569 -0.6991  0.3590  1.8550
  140SAPE  C21315277   2.043   4.011   9.488  0.1062  0.2163  0.1509
  140SAPE  H13R15278   2.116   3.937   9.528  0.0970  0.6100  0.9141
  140SAPE  H13S15279   2.108   4.070   9.421 -1.2860  0.7911 -0.7183
  140SAPE  C21415280   1.936   3.944   9.405  0.1249  0.1058  0.1697
  140SAPE  H14R15281   1.890   3.850   9.441  0.8666  0.1060  1.1412
  140SAPE  C21515282   1.889   3.979   9.285 -0.1414 -0.4107  0.8505
  140SAPE  H15R15283   1.825   3.906   9.232  0.6240 -0.3628 -0.1581
  140SAPE  C21615284   1.925   4.103   9.205 -0.4051  0.0492  0.9959
  140SAPE  H16R15285   2.012   4.158   9.249 -0.3714  1.0992 -0.3183
  140SAPE  H16S15286   1.842   4.177   9.205  0.9249  1.6174  1.2731
  140SAPE  C21715287   1.950   4.061   9.056  0.4083  0.1959  0.3442
  140SAPE  H17R15288   1.861   4.006   9.018  2.1559 -2.3444 -0.3025
  140SAPE  H17S15289   2.036   3.992   9.042 -0.5809 -0.8911 -0.6921
  140SAPE  C21815290   1.967   4.190   8.977 -0.3446 -0.2732  0.5826
  140SAPE  H18R15291   2.068   4.230   9.003 -0.9475  1.8862 -0.2636
  140SAPE  H18S15292   1.888   4.257   9.016  0.1525 -0.5534  2.1412
  140SAPE  C21915293   1.951   4.183   8.828 -0.1156 -0.1359  0.4255
  140SAPE  H19R15294   2.026   4.106   8.799 -0.1479  0.5561 -1.6171
  140SAPE  H19S15295   1.970   4.282   8.781 -2.0882  1.0644  1.9529
  140SAPE  C22015296   1.810   4.155   8.788 -0.4839  0.1039 -0.1945
  140SAPE  H20R15297   1.813   4.137   8.678  0.8153 -0.7658 -0.0353
  140SAPE  H20S15298   1.746   4.243   8.813  0.9177  0.4002  2.7582
  140SAPE  H20T15299   1.764   4.072   8.846  2.7720  0.3989  3.1237
  140SAPE   C3315300   2.505   3.782  10.374 -0.9635  0.2043 -0.2774
  140SAPE   H3X15301   2.452   3.878  10.354  0.6321  1.6102  1.8494
  140SAPE   H3Y15302   2.430   3.703  10.392 -0.0928 -0.3567  1.0446
  140SAPE   C3415303   2.561   3.727  10.238  0.2529 -0.4626 -0.0091
  140SAPE   H4X15304   2.591   3.623  10.263 -1.5427 -0.9568  0.2073
  140SAPE   H4Y15305   2.652   3.786  10.211 -0.3894  0.4315 -0.2526
  140SAPE   C3515306   2.458   3.728  10.122  0.1924 -0.9314  0.9705
  140SAPE   H5X15307   2.414   3.830  10.128 -2.6452 -2.1411  2.6613
  140SAPE   H5Y15308   2.377   3.655  10.143 -1.6897  1.5422  2.8984
  140SAPE   C3615309   2.528   3.695   9.988  0.7072 -0.4190 -0.9995
  140SAPE   H6X15310   2.603   3.613  10.001  0.7107 -0.8444 -3.3740
  140SAPE   H6Y15311   2.589   3.783   9.960  0.5662 -0.0384 -0.1441
  140SAPE   C3715312   2.446   3.667   9.862  0.2378  0.0551 -0.2911
  140SAPE   H7X15313   2.372   3.747   9.842 -0.8626 -0.9739 -0.5225
  140SAPE   H7Y15314   2.391   3.571   9.876  0.1991  0.0574 -0.4239
  140SAPE   C3815315   2.543   3.657   9.750 -0.0370 -0.8501  0.2833
  140SAPE   H8X15316   2.624   3.585   9.774 -0.6010 -1.5854 -0.0057
  140SAPE   H8Y15317   2.595   3.751   9.722  0.5747 -1.4075 -0.4813
  140SAPE   C3915318   2.467   3.601   9.623  0.8548 -0.3684  0.3855
  140SAPE   H9X15319   2.389   3.678   9.608 -0.7111 -2.0111 -0.2008
  140SAPE   H9Y15320   2.410   3.511   9.651  2.7054 -1.5029  0.6825
  140SAPE  C31015321   2.553   3.567   9.507 -0.6384  0.4332  0.6638
  140SAPE  H10X15322   2.632   3.497   9.541  0.3231  1.2145  0.1071
  140SAPE  H10Y15323   2.615   3.651   9.470 -0.3269 -0.0143  0.1559
  140SAPE  C31115324   2.463   3.515   9.391 -0.2045 -0.2339 -0.0911
  140SAPE  H11X15325   2.395   3.599   9.366 -0.2901 -0.9563 -2.5547
  140SAPE  H11Y15326   2.411   3.423   9.427  2.3585 -1.9167 -0.4364
  140SAPE  C31215327   2.545   3.471   9.274  0.4079  1.1239 -1.0982
  140SAPE  H12X15328   2.493   3.396   9.212  0.3507 -1.6059  1.9844
  140SAPE  H12Y15329   2.634   3.420   9.316 -1.1528  1.1080  2.5778
  140SAPE  C31315330   2.598   3.581   9.181 -0.1804 -0.0411 -0.2756
  140SAPE  H13X15331   2.670   3.645   9.238 -2.4749  0.6330  2.0987
  140SAPE  H13Y15332   2.525   3.658   9.148  0.4979  1.0840  0.7600
  140SAPE  C31415333   2.654   3.524   9.053  0.4190  0.7459  0.0411
  140SAPE  H14X15334   2.689   3.423   9.084  0.2122 -0.1417 -2.4506
  140SAPE  H14Y15335   2.743   3.581   9.019  0.3922  1.0051  0.3917
  140SAPE  C31515336   2.555   3.504   8.935 -0.6132 -0.0020  0.8477
  140SAPE  H15X15337   2.475   3.447   8.987 -1.3493 -0.4165 -0.6610
  140SAPE  H15Y15338   2.598   3.437   8.857  0.7876  1.9925 -0.2049
  140SAPE  C31615339   2.510   3.627   8.857  0.1344  0.3282  0.6645
  140SAPE  H16X15340   2.466   3.694   8.934  0.9347 -0.6201  1.9880
  140SAPE  H16Y15341   2.432   3.594   8.786 -0.4536 -1.7036  2.1505
  140SAPE  C31715342   2.625   3.705   8.803 -0.1742  0.1304  0.4431
  140SAPE  H17X15343   2.671   3.658   8.714 -0.9724  1.7869 -0.9225
  140SAPE  H17Y15344   2.700   3.717   8.884 -1.4937 -1.4941  1.9809
  140SAPE  C31815345   2.585   3.847   8.755 -0.2463 -0.4052  0.2517
  140SAPE  H18X15346   2.675   3.902   8.723 -2.3167  1.9300 -1.9365
  140SAPE  H18Y15347   2.538   3.915   8.829  2.6382  1.0665  0.8377
  140SAPE  H18Z15348   2.519   3.838   8.667 -2.4075  1.4174  1.5626
  141SAPE     N15349   2.892   3.553  11.003  0.3407  0.1033 -0.7622
  141SAPE   HN115350   2.885   3.656  10.994  2.0768  0.2405 -0.7945
  141SAPE   HN215351   2.983   3.532  11.049 -0.7960 -0.5488  1.3230
  141SAPE   HN315352   2.907   3.506  10.911  0.5547  0.1629 -0.7589
  141SAPE   C1215353   2.771   3.505  11.086  0.5024 -0.1371 -0.0218
  141SAPE  H12A15354   2.681   3.551  11.039 -1.5036 -2.4590  1.3070
  141SAPE  H12B15355   2.792   3.527  11.192  1.9856  0.4982 -0.4193
  141SAPE   C1115356   2.774   3.354  11.066  0.2064  0.0479 -0.0208
  141SAPE  H11A15357   2.679   3.319  11.110 -1.1317  0.6075 -2.3339
  141SAPE  H11B15358   2.856   3.298  11.117 -0.8754 -1.1761  0.4183
  141SAPE     P15359   2.811   3.188  10.872 -0.0284 -0.4152 -0.1776
  141SAPE   O1315360   2.959   3.181  10.856  0.6419 -0.4787  0.0466
  141SAPE   O1415361   2.749   3.085  10.962 -0.3456 -0.9467  0.4126
  141SAPE   O1215362   2.767   3.331  10.924  0.1632  0.2807 -0.0801
  141SAPE   O1115363   2.746   3.193  10.734 -0.5445  0.0440  0.2972
  141SAPE    C115364   2.792   3.105  10.632 -0.4522  0.0796 -0.8021
  141SAPE    HA15365   2.836   3.167  10.551 -0.2678  1.8808  0.6011
  141SAPE    HB15366   2.872   3.033  10.662 -0.9324  0.1090  0.6615
  141SAPE    C215367   2.676   3.010  10.582  0.0050  0.4143 -0.4427
  141SAPE    HS15368   2.684   2.921  10.649  1.6195  1.4991  0.8945
  141SAPE   O2115369   2.703   2.978  10.444  0.0971 -0.4074 -0.5246
  141SAPE   C2115370   2.679   2.866  10.392 -0.1220  0.3851  0.0070
  141SAPE   O2215371   2.626   2.769  10.441 -0.2510  1.0470  0.2064
  141SAPE   C2215372   2.739   2.867  10.253  0.0712 -0.1515 -0.4753
  141SAPE   H2R15373   2.786   2.966  10.231 -1.4143  0.7798  0.3475
  141SAPE   H2S15374   2.812   2.783  10.247 -1.4048 -1.4366 -0.9156
  141SAPE    C315375   2.535   3.078  10.598 -0.3780 -0.0246  0.0955
  141SAPE    HX15376   2.527   3.131  10.695 -1.9817  0.6963 -0.3908
  141SAPE    HY15377   2.459   2.997  10.594 -2.4604  1.7384  1.3769
  141SAPE   O3115378   2.504   3.181  10.499 -0.2244  0.7141  0.4208
  141SAPE   C3115379   2.444   3.138  10.391 -0.2541 -0.2902  0.4892
  141SAPE   O3215380   2.409   3.025  10.369  0.4699 -0.0665 -0.0165
  141SAPE   C3215381   2.446   3.246  10.282 -0.1851  0.7224 -0.0031
  141SAPE   H2X15382   2.487   3.344  10.315 -0.0408  0.5701  0.2785
  141SAPE   H2Y15383   2.339   3.257  10.253  0.3309  1.0241 -1.9108
  141SAPE   C2315384   2.635   2.824  10.148  0.1410 -0.2082 -0.8448
  141SAPE   H3R15385   2.548   2.892  10.158 -0.4260 -0.8876 -1.0667
  141SAPE   H3S15386   2.597   2.720  10.156 -1.9202  0.3819 -2.1294
  141SAPE   C2415387   2.694   2.835  10.005  0.2101 -0.3078  0.2477
  141SAPE   H4R15388   2.771   2.755  10.006 -1.5252 -2.0703 -0.2307
  141SAPE   H4S15389   2.734   2.938   9.997 -1.5117  0.5961  2.2356
  141SAPE   C2515390   2.590   2.837   9.887 -0.6604 -0.2951 -0.5312
  141SAPE   H5R15391   2.503   2.901   9.906 -1.4706 -1.0438 -1.6074
  141SAPE   C2615392   2.595   2.765   9.776 -0.1097 -0.8393 -0.1502
  141SAPE   H6R15393   2.511   2.779   9.706  0.5455  3.1336 -0.3919
  141SAPE   C2715394   2.702   2.665   9.747 -0.0583  0.0974 -0.2028
  141SAPE   H7R15395   2.726   2.615   9.844 -2.2917 -1.2790 -0.2995
  141SAPE   H7S15396   2.788   2.726   9.711 -1.3130  2.0624 -0.0390
  141SAPE   C2815397   2.691   2.557   9.645 -0.1729 -0.1919  0.5344
  141SAPE   H8R15398   2.689   2.453   9.681 -0.1834  0.0070  1.1228
  141SAPE   C2915399   2.702   2.578   9.508  0.0588  0.5993 -0.0540
  141SAPE   H9R15400   2.688   2.496   9.436 -3.2873  0.9423  0.0461
  141SAPE  C21015401   2.727   2.707   9.441 -0.4935  0.1574 -0.2733
  141SAPE  H10R15402   2.836   2.692   9.425 -0.2703  1.4696 -0.1572
  141SAPE  H10S15403   2.712   2.798   9.504 -1.4264 -0.4394  0.4036
  141SAPE  C21115404   2.640   2.725   9.323 -1.1335 -0.6208  0.0170
  141SAPE  H11R15405   2.540   2.765   9.349 -1.2169  0.0136 -1.2338
  141SAPE  C21215406   2.670   2.690   9.196 -0.6116 -0.0623 -0.5816
  141SAPE  H12R15407   2.592   2.702   9.119 -0.6789 -3.3427 -1.1788
  141SAPE  C21315408   2.803   2.633   9.149  0.5244 -0.4211  0.1943
  141SAPE  H13R15409   2.860   2.557   9.207  0.3772 -0.8349 -0.1989
  141SAPE  H13S15410   2.868   2.722   9.161  0.1461  0.2309 -2.1886
  141SAPE  C21415411   2.815   2.580   9.006  0.8138  0.0096 -0.6336
  141SAPE  H14R15412   2.746   2.500   8.977 -0.3669  0.7933 -0.1122
  141SAPE  C21515413   2.891   2.629   8.911  0.2669  0.4366  0.6107
  141SAPE  H15R15414   2.882   2.582   8.811 -0.6022  0.4249  0.6815
  141SAPE  C21615415   3.002   2.736   8.912 -0.5005 -0.1311  0.0176
  141SAPE  H16R15416   3.012   2.782   9.012 -0.3860  0.8612 -0.4416
  141SAPE  H16S15417   2.963   2.818   8.848 -1.3342 -0.6025 -0.0963
  141SAPE  C21715418   3.138   2.677   8.866 -0.7733 -0.0122  0.0589
  141SAPE  H17R15419   3.135   2.613   8.776 -0.8545  0.6230 -0.3920
  141SAPE  H17S15420   3.170   2.609   8.948  0.7490 -0.9968 -1.2971
  141SAPE  C21815421   3.248   2.792   8.847  0.8161 -0.2814  0.1575
  141SAPE  H18R15422   3.259   2.845   8.944  0.4610 -0.4607  0.2969
  141SAPE  H18S15423   3.204   2.860   8.771  1.0361  0.2181  0.4696
  141SAPE  C21915424   3.384   2.747   8.792  0.2655  0.0656 -0.5083
  141SAPE  H19R15425   3.457   2.831   8.799  1.4240 -0.8988 -0.6577
  141SAPE  H19S15426   3.369   2.716   8.686 -0.3529  2.9582 -1.3645
  141SAPE  C22015427   3.434   2.626   8.868 -0.3413  0.4205 -0.2246
  141SAPE  H20R15428   3.472   2.645   8.970  0.9198  0.3345 -0.6597
  141SAPE  H20S15429   3.516   2.583   8.806 -0.3193  2.7836 -1.9753
  141SAPE  H20T15430   3.359   2.544   8.865  1.1706 -1.0221 -0.1833
  141SAPE   C3315431   2.524   3.212  10.150 -0.6518 -0.4253  0.0819
  141SAPE   H3X15432   2.486   3.117  10.108 -1.0821 -0.5925  0.8253
  141SAPE   H3Y15433   2.629   3.197  10.182 -0.6800  0.3078  0.5513
  141SAPE   C3415434   2.527   3.327  10.050  0.0455  0.2379  0.8228
  141SAPE   H4X15435   2.578   3.410  10.102 -2.7167  1.4112  1.8313
  141SAPE   H4Y15436   2.424   3.359  10.025  0.1755 -1.4979 -2.5427
  141SAPE   C3515437   2.597   3.280   9.918  0.4279 -0.1660  0.3422
  141SAPE   H5X15438   2.572   3.356   9.841 -2.3368 -2.0424 -0.7767
  141SAPE   H5Y15439   2.566   3.184   9.871 -0.6501  0.2339  0.2266
  141SAPE   C3615440   2.749   3.286   9.923 -0.1729 -0.4918 -0.2600
  141SAPE   H6X15441   2.797   3.217   9.996  1.5040  0.0374 -0.8212
  141SAPE   H6Y15442   2.786   3.388   9.947  0.9682 -1.1416  0.9050
  141SAPE   C3715443   2.813   3.262   9.786 -0.5285  1.1753  0.4398
  141SAPE   H7X15444   2.920   3.290   9.789 -0.5850  1.5482 -0.5137
  141SAPE   H7Y15445   2.779   3.332   9.706  2.3113  0.8438 -1.1796
  141SAPE   C3815446   2.813   3.113   9.740 -0.0728 -0.2469  0.3710
  141SAPE   H8X15447   2.708   3.077   9.734  0.1614 -0.8516 -0.3321
  141SAPE   H8Y15448   2.869   3.054   9.815 -2.0412  0.1300  2.2560
  141SAPE   C3915449   2.892   3.094   9.604  0.3018  0.0123 -0.1210
  141SAPE   H9X15450   2.911   2.985   9.595 -0.7221 -0.0312 -2.8435
  141SAPE   H9Y15451   2.986   3.152   9.606  1.1308 -1.2016 -1.6255
  141SAPE  C31015452   2.808   3.136   9.478  0.0532  0.0271 -0.9351
  141SAPE  H10X15453   2.821   3.247   9.470 -0.1346  0.3157  1.7331
  141SAPE  H10Y15454   2.706   3.099   9.499  0.5905 -0.8499  0.2816
  141SAPE  C31115455   2.869   3.070   9.356  0.7609  0.6664 -0.0999
  141SAPE  H11X15456   2.862   2.960   9.368  0.9811  0.5904 -0.6460
  141SAPE  H11Y15457   2.978   3.092   9.350  1.2584 -0.8823  2.2646
  141SAPE  C31215458   2.806   3.131   9.230  0.7615  0.0734 -0.2763
  141SAPE  H12X15459   2.792   3.241   9.235 -0.5686  0.2513 -4.2922
  141SAPE  H12Y15460   2.704   3.088   9.219  0.7809 -1.2155  3.2637
  141SAPE  C31315461   2.883   3.091   9.105  0.1362  0.3373 -0.6614
  141SAPE  H13X15462   2.899   2.981   9.095  0.7038 -0.6276  6.2477
  141SAPE  H13Y15463   2.986   3.128   9.125 -0.5746  1.6312  0.8091
  141SAPE  C31415464   2.820   3.140   8.965  0.2677  0.6702  0.0533
  141SAPE  H14X15465   2.821   3.251   8.966 -1.4878  0.7626 -1.6415
  141SAPE  H14Y15466   2.713   3.111   8.954  0.2269  1.3301 -1.5520
  141SAPE  C31515467   2.883   3.086   8.836 -0.9030 -0.5552  0.0966
  141SAPE  H15X15468   2.835   3.133   8.748 -3.4186 -1.0570  1.1268
  141SAPE  H15Y15469   2.867   2.977   8.824 -1.3613 -0.5631  0.7482
  141SAPE  C31615470   3.033   3.115   8.833  0.5828  0.2737 -0.0387
  141SAPE  H16X15471   3.094   3.051   8.900 -0.1873  0.9412  1.3454
  141SAPE  H16Y15472   3.052   3.220   8.864 -0.2348  0.1477  0.9333
  141SAPE  C31715473   3.090   3.093   8.693  0.3616 -0.2867 -0.3030
  141SAPE  H17X15474   3.017   3.143   8.626  0.6746  0.7596  0.1244
  141SAPE  H17Y15475   3.102   2.988   8.658  0.7243  0.0771 -1.3195
  141SAPE  C31815476   3.222   3.157   8.669  0.2361 -0.2904 -1.0443
  141SAPE  H18X15477   3.223   3.257   8.622  0.7496 -0.0056 -0.4470
  141SAPE  H18Y15478   3.279   3.092   8.599 -1.3852 -1.7557 -1.0758
  141SAPE  H18Z15479   3.287   3.153   8.759 -2.8271  0.5689  1.3663
  142SAPE     N15480   0.979   2.509  11.012  0.5014 -0.4217 -0.5312
  142SAPE   HN115481   1.002   2.496  11.112 -1.1411  2.1005  0.2965
  142SAPE   HN215482   0.877   2.529  11.016 -0.1574 -3.5182  2.5670
  142SAPE   HN315483   0.975   2.414  10.970 -1.1486 -0.6577  0.0636
  142SAPE   C1215484   1.053   2.605  10.920 -0.6782  0.0170 -0.3668
  142SAPE  H12A15485   1.080   2.698  10.975  1.1878  0.1867 -1.4860
  142SAPE  H12B15486   0.984   2.630  10.837  0.0478  0.4305 -0.8526
  142SAPE   C1115487   1.184   2.543  10.880  0.4199  0.3618 -0.0758
  142SAPE  H11A15488   1.226   2.607  10.800 -1.7497 -1.6468 -3.0436
  142SAPE  H11B15489   1.172   2.445  10.828 -0.9605  0.7821 -0.5895
  142SAPE     P15490   1.385   2.617  11.032  0.0699  0.1326  0.0708
  142SAPE   O1315491   1.331   2.746  11.088 -0.6401  0.1880 -0.1733
  142SAPE   O1415492   1.480   2.535  11.122  0.3749 -0.7350  0.4676
  142SAPE   O1215493   1.261   2.526  11.000 -0.2010 -0.2532  0.2015
  142SAPE   O1115494   1.451   2.631  10.894 -0.6179  0.9126 -0.0269
  142SAPE    C115495   1.554   2.729  10.866  0.4502 -0.9400  0.3688
  142SAPE    HA15496   1.560   2.803  10.948 -1.8353  0.7026 -0.8122
  142SAPE    HB15497   1.651   2.676  10.856  0.6837 -0.5757  0.6618
  142SAPE    C215498   1.509   2.806  10.740 -0.6232 -0.3657 -0.4506
  142SAPE    HS15499   1.412   2.855  10.761 -0.5385 -0.3504 -0.0798
  142SAPE   O2115500   1.504   2.712  10.626  0.0541  0.2645  0.2915
  142SAPE   C2115501   1.395   2.726  10.551 -0.1310 -0.3971  0.2504
  142SAPE   O2215502   1.287   2.761  10.592 -0.6050  0.2396  0.1385
  142SAPE   C2215503   1.434   2.686  10.407  0.8884  0.0231 -0.2626
  142SAPE   H2R15504   1.529   2.738  10.383  0.4690  1.0937  0.3133
  142SAPE   H2S15505   1.439   2.576  10.392 -2.0874 -0.3201  0.4675
  142SAPE    C315506   1.607   2.917  10.704  0.4625  0.3455  0.5990
  142SAPE    HX15507   1.708   2.877  10.681 -1.1728 -2.7635 -2.0420
  142SAPE    HY15508   1.607   2.977  10.797  0.0423  0.1602  0.7227
  142SAPE   O3115509   1.554   2.984  10.584 -0.2919 -0.2426  0.1576
  142SAPE   C3115510   1.626   3.077  10.541  0.2653 -0.0240  0.0395
  142SAPE   O3215511   1.726   3.120  10.594 -0.6868  0.2101 -0.1272
  142SAPE   C3215512   1.573   3.127  10.405 -0.9358  0.3559 -0.0361
  142SAPE   H2X15513   1.521   3.226  10.406 -2.5747 -0.4446 -1.3871
  142SAPE   H2Y15514   1.493   3.056  10.373 -1.0886  0.1819  0.7102
  142SAPE   C2315515   1.319   2.738  10.313  0.9490 -0.9518 -0.4579
  142SAPE   H3R15516   1.330   2.848  10.307  0.0415 -0.8358 -0.0512
  142SAPE   H3S15517   1.220   2.713  10.356  1.2804  3.3381  3.6118
  142SAPE   C2415518   1.326   2.678  10.178 -0.0064 -0.6822  0.2808
  142SAPE   H4R15519   1.320   2.568  10.189 -1.1613 -0.6338  0.3004
  142SAPE   H4S15520   1.425   2.712  10.140 -0.7602 -1.1265 -2.2356
  142SAPE   C2515521   1.207   2.720  10.092 -0.0541 -0.5999 -0.1615
  142SAPE   H5R15522   1.105   2.699  10.129  0.4009 -0.6658  1.1043
  142SAPE   C2615523   1.215   2.784   9.972  0.2343  0.6432  0.1873
  142SAPE   H6R15524   1.119   2.807   9.924 -0.8225 -1.7780  0.9537
  142SAPE   C2715525   1.336   2.820   9.886  0.3268 -0.5225  0.0279
  142SAPE   H7R15526   1.323   2.785   9.781  0.5053  0.4036 -0.3115
  142SAPE   H7S15527   1.432   2.781   9.927  1.7639  1.2758 -1.4772
  142SAPE   C2815528   1.346   2.971   9.888 -0.0181 -0.7546 -0.0133
  142SAPE   H8R15529   1.393   3.019   9.975 -0.5132  0.8067 -0.5649
  142SAPE   C2915530   1.322   3.058   9.787  0.6918 -0.4025  0.0260
  142SAPE   H9R15531   1.346   3.163   9.809 -0.7670  0.2608 -1.2978
  142SAPE  C21015532   1.265   3.029   9.650  0.6463 -0.4483  0.2341
  142SAPE  H10R15533   1.194   3.113   9.636  0.4016 -0.7740 -0.5181
  142SAPE  H10S15534   1.204   2.937   9.662 -0.8148  0.5014  0.4561
  142SAPE  C21115535   1.368   3.028   9.540 -0.2829 -0.7200 -0.4447
  142SAPE  H11R15536   1.473   3.018   9.570  0.0273  0.6143 -0.9964
  142SAPE  C21215537   1.349   3.045   9.412 -0.2594  0.5184  0.0379
  142SAPE  H12R15538   1.441   3.043   9.351 -0.3868 -1.6532 -0.1663
  142SAPE  C21315539   1.211   3.056   9.344  0.7675  0.1434  0.0787
  142SAPE  H13R15540   1.202   3.162   9.312  1.4038  0.5546  1.2019
  142SAPE  H13S15541   1.123   3.029   9.406 -0.0940  1.3360 -0.5694
  142SAPE  C21415542   1.207   2.975   9.217  0.3300  0.4304  0.2518
  142SAPE  H14R15543   1.184   2.869   9.236 -0.1947  0.7556  1.5440
  142SAPE  C21515544   1.225   3.016   9.090  0.0139 -0.5550 -0.0611
  142SAPE  H15R15545   1.210   2.957   9.000  0.4799  2.0010 -1.9363
  142SAPE  C21615546   1.275   3.152   9.059  0.0868  0.5175  0.6537
  142SAPE  H16R15547   1.369   3.177   9.112  1.8134  0.2239 -2.0705
  142SAPE  H16S15548   1.198   3.230   9.079 -0.8551  0.6920 -2.9389
  142SAPE  C21715549   1.310   3.165   8.901 -0.6051 -0.3832 -0.2632
  142SAPE  H17R15550   1.217   3.129   8.852 -0.9425  1.5474 -1.1672
  142SAPE  H17S15551   1.388   3.092   8.872 -1.0094 -0.5234 -1.0327
  142SAPE  C21815552   1.358   3.303   8.857 -0.2824  0.2615  0.2640
  142SAPE  H18R15553   1.279   3.378   8.881  1.5332  2.3191  0.1852
  142SAPE  H18S15554   1.367   3.298   8.746 -1.7534  0.2299  0.1202
  142SAPE  C21915555   1.493   3.335   8.914 -0.1442  0.6936  0.2375
  142SAPE  H19R15556   1.489   3.332   9.025  0.2552 -1.1809  0.2355
  142SAPE  H19S15557   1.511   3.440   8.882 -3.2272  1.7439  1.6452
  142SAPE  C22015558   1.613   3.252   8.862  0.2309 -0.5861  0.1185
  142SAPE  H20R15559   1.619   3.264   8.751  2.2095 -0.6413  0.1834
  142SAPE  H20S15560   1.601   3.143   8.878 -0.0341 -0.6416 -0.4235
  142SAPE  H20T15561   1.701   3.299   8.912 -1.4229  2.3654  0.5301
  142SAPE   C3315562   1.690   3.121  10.299 -0.2746 -0.2123  0.6794
  142SAPE   H3X15563   1.750   3.027  10.302  1.0722  0.5729 -0.5012
  142SAPE   H3Y15564   1.761   3.203  10.322 -0.4205 -0.0055  0.3785
  142SAPE   C3415565   1.639   3.146  10.153  0.5305  0.1258 -0.2988
  142SAPE   H4X15566   1.606   3.252  10.148  1.8457  0.5070 -1.6192
  142SAPE   H4Y15567   1.554   3.077  10.131  0.3775  0.0197  0.5873
  142SAPE   C3515568   1.744   3.139  10.043  0.5386  0.2647 -0.6343
  142SAPE   H5X15569   1.788   3.038  10.045  0.2786  0.1461  1.5243
  142SAPE   H5Y15570   1.826   3.211  10.062  1.5271 -1.0388  0.1009
  142SAPE   C3615571   1.681   3.165   9.910  0.0879 -0.5765 -0.3573
  142SAPE   H6X15572   1.610   3.250   9.908  0.3217 -0.2682  2.0279
  142SAPE   H6Y15573   1.617   3.078   9.883  0.8092 -1.3377  0.3187
  142SAPE   C3715574   1.784   3.210   9.809 -0.6330  0.5995 -0.4650
  142SAPE   H7X15575   1.874   3.155   9.845  0.4228  1.0144 -2.3196
  142SAPE   H7Y15576   1.809   3.317   9.824 -0.3889  0.4665  0.0955
  142SAPE   C3815577   1.745   3.169   9.669  0.1138  0.1071  0.1791
  142SAPE   H8X15578   1.724   3.060   9.670  0.8730 -0.0331  1.1778
  142SAPE   H8Y15579   1.838   3.181   9.610  0.5526 -0.4262  0.7590
  142SAPE   C3915580   1.632   3.248   9.599 -0.2269  0.2408 -0.0735
  142SAPE   H9X15581   1.537   3.227   9.653  0.2943 -1.6010  0.2074
  142SAPE   H9Y15582   1.618   3.222   9.492 -0.9805  1.8443 -0.3871
  142SAPE  C31015583   1.652   3.400   9.604 -0.1712  1.1337 -0.1132
  142SAPE  H10X15584   1.758   3.427   9.622 -0.3455  1.9421 -0.2331
  142SAPE  H10Y15585   1.606   3.433   9.700  1.2060 -2.3292  1.9146
  142SAPE  C31115586   1.586   3.478   9.491  0.3210  0.1939  0.1496
  142SAPE  H11X15587   1.557   3.581   9.521 -2.8169 -0.2215 -1.0514
  142SAPE  H11Y15588   1.496   3.425   9.454  0.4001 -1.5199  2.2559
  142SAPE  C31215589   1.686   3.480   9.375 -0.0592  0.4632 -0.3527
  142SAPE  H12X15590   1.682   3.380   9.327  1.0139  0.0550  0.3847
  142SAPE  H12Y15591   1.783   3.513   9.416 -2.1757  4.2921  2.2529
  142SAPE  C31315592   1.651   3.578   9.264  0.1452  0.4795  0.2808
  142SAPE  H13X15593   1.676   3.681   9.297  1.6815  0.4103 -0.5617
  142SAPE  H13Y15594   1.541   3.580   9.249  0.3489  0.3101 -1.4399
  142SAPE  C31415595   1.729   3.552   9.142 -0.0031  1.1820 -0.2074
  142SAPE  H14X15596   1.692   3.461   9.089  0.9046  1.2403 -0.9699
  142SAPE  H14Y15597   1.831   3.519   9.172 -0.6145 -0.1993  0.4428
  142SAPE  C31515598   1.732   3.669   9.043 -0.4568 -0.0914  0.4620
  142SAPE  H15X15599   1.776   3.763   9.082 -1.2158  1.5287 -2.3166
  142SAPE  H15Y15600   1.631   3.712   9.028 -0.6578 -1.0362 -1.1051
  142SAPE  C31615601   1.777   3.627   8.902  0.1768 -0.4689 -0.2695
  142SAPE  H16X15602   1.715   3.544   8.863 -1.8775  0.4656  0.8298
  142SAPE  H16Y15603   1.884   3.603   8.918  0.5321  2.4365  3.1444
  142SAPE  C31715604   1.771   3.747   8.804  0.4790  0.1394  0.6153
  142SAPE  H17X15605   1.834   3.832   8.838 -0.4378  1.0072  0.2165
  142SAPE  H17Y15606   1.665   3.776   8.784  0.4202 -0.8547 -0.6593
  142SAPE  C31815607   1.817   3.710   8.663  0.6181 -0.7926  0.2708
  142SAPE  H18X15608   1.770   3.615   8.632  0.0858 -0.8288  1.1682
  142SAPE  H18Y15609   1.926   3.688   8.656  0.3780 -2.6030  1.7096
  142SAPE  H18Z15610   1.788   3.793   8.594  0.3935  0.1408  1.4555
  143SAPE     N15611   3.450   3.787  11.164 -0.3250 -0.1385  0.1663
  143SAPE   HN115612   3.358   3.824  11.134 -0.5003  0.9938  1.9875
  143SAPE   HN215613   3.488   3.842  11.244 -0.5945  0.4819 -0.1320
  143SAPE   HN315614   3.522   3.796  11.089  1.9314  1.9581  2.3798
  143SAPE   C1215615   3.426   3.649  11.206 -0.3308 -0.8821  0.8180
  143SAPE  H12A15616   3.333   3.642  11.266  0.0059 -1.5720  1.2794
  143SAPE  H12B15617   3.518   3.628  11.265  0.4428  1.6438  0.6544
  143SAPE   C1115618   3.411   3.552  11.092  0.2717  0.1621 -0.4713
  143SAPE  H11A15619   3.510   3.529  11.048  1.1402 -0.9517  1.8887
  143SAPE  H11B15620   3.367   3.603  11.004  1.5568  0.5404 -0.9159
  143SAPE     P15621   3.234   3.361  11.068 -0.5326 -0.0636  0.5848
  143SAPE   O1315622   3.231   3.220  11.110 -0.6433 -0.6258 -0.1636
  143SAPE   O1415623   3.117   3.450  11.090 -0.0698 -0.2937 -0.2211
  143SAPE   O1215624   3.352   3.437  11.137  0.1105  0.1048  1.3438
  143SAPE   O1115625   3.275   3.369  10.913  0.0639 -0.0410  0.3288
  143SAPE    C115626   3.402   3.304  10.869  0.1319 -0.0077  0.0128
  143SAPE    HA15627   3.486   3.334  10.936  0.1628  0.5104 -0.2496
  143SAPE    HB15628   3.392   3.194  10.878 -0.4552  0.0437  0.0270
  143SAPE    C215629   3.426   3.323  10.720  0.6210  0.3279  0.2757
  143SAPE    HS15630   3.460   3.429  10.718  0.2159  0.5358  2.2538
  143SAPE   O2115631   3.314   3.306  10.643 -0.0293  0.1270  1.6720
  143SAPE   C2115632   3.301   3.389  10.531 -0.3785  0.7450 -0.4719
  143SAPE   O2215633   3.371   3.487  10.521  0.3507 -0.7444 -0.3820
  143SAPE   C2215634   3.199   3.334  10.433 -0.2403  0.5052 -0.1389
  143SAPE   H2R15635   3.134   3.267  10.493  1.7154  0.8141  2.5280
  143SAPE   H2S15636   3.147   3.421  10.388  1.0891  0.9905 -0.7899
  143SAPE    C315637   3.535   3.225  10.683  0.4600  0.2885 -0.9348
  143SAPE    HX15638   3.504   3.119  10.694  2.2384 -0.1522  0.5093
  143SAPE    HY15639   3.614   3.254  10.756 -1.5047  1.4661  0.8356
  143SAPE   O3115640   3.575   3.249  10.550 -0.3253 -0.0921  0.6621
  143SAPE   C3115641   3.695   3.284  10.524 -0.3825  0.3244 -0.7490
  143SAPE   O3215642   3.793   3.284  10.600 -0.1580 -0.2373 -0.5091
  143SAPE   C3215643   3.713   3.299  10.373 -0.9007 -0.4111 -0.5528
  143SAPE   H2X15644   3.812   3.346  10.357 -0.2746 -1.7629 -0.8123
  143SAPE   H2Y15645   3.639   3.371  10.331 -2.8613 -1.0021  1.6652
  143SAPE   C2315646   3.263   3.243  10.324  0.6506  0.0618  0.6137
  143SAPE   H3R15647   3.182   3.184  10.277 -0.3060  1.4481  0.4799
  143SAPE   H3S15648   3.340   3.179  10.373 -0.2612  0.0215  2.0364
  143SAPE   C2415649   3.337   3.330  10.208  0.1336  1.6137 -0.0619
  143SAPE   H4R15650   3.405   3.258  10.157 -1.4695  0.4858 -0.6778
  143SAPE   H4S15651   3.407   3.408  10.246  1.4169  1.1629 -1.3806
  143SAPE   C2515652   3.247   3.389  10.107  0.5881 -0.5094  0.2556
  143SAPE   H5R15653   3.161   3.441  10.150  0.9589  3.8064 -3.3682
  143SAPE   C2615654   3.251   3.383   9.968  0.1082 -0.2643  0.6419
  143SAPE   H6R15655   3.178   3.435   9.904  1.3154  0.1589 -0.4293
  143SAPE   C2715656   3.363   3.316   9.886  1.0216  0.0286  0.3942
  143SAPE   H7R15657   3.319   3.289   9.787 -0.6867 -2.0696  1.6132
  143SAPE   H7S15658   3.391   3.221   9.937  2.5664 -0.0310 -0.5260
  143SAPE   C2815659   3.486   3.403   9.873  0.2238  0.3431  0.4994
  143SAPE   H8R15660   3.539   3.441   9.961 -1.3901  1.4044  1.0467
  143SAPE   C2915661   3.547   3.431   9.753  0.1869 -0.7747 -0.6885
  143SAPE   H9R15662   3.636   3.496   9.759 -2.7465  3.6470 -0.4699
  143SAPE  C21015663   3.501   3.387   9.614 -0.2144 -1.1272  0.4256
  143SAPE  H10R15664   3.401   3.420   9.579 -1.9078 -1.9394  4.0119
  143SAPE  H10S15665   3.497   3.277   9.624  2.3002 -1.2419  0.8565
  143SAPE  C21115666   3.605   3.404   9.502 -0.8735  0.1379  0.6325
  143SAPE  H11R15667   3.704   3.438   9.536  1.9673 -3.8438 -2.6002
  143SAPE  C21215668   3.589   3.384   9.369  0.0877  0.1795  0.4429
  143SAPE  H12R15669   3.674   3.390   9.299  1.1487 -2.2381  1.4147
  143SAPE  C21315670   3.462   3.329   9.319  0.2080 -0.0504  0.3094
  143SAPE  H13R15671   3.418   3.401   9.246 -2.4970  1.9735  3.6659
  143SAPE  H13S15672   3.376   3.318   9.387  0.6266 -0.1068  0.8393
  143SAPE  C21415673   3.481   3.204   9.237 -0.1337 -0.2258  0.3252
  143SAPE  H14R15674   3.491   3.109   9.292 -0.1677  1.9256  4.4407
  143SAPE  C21515675   3.476   3.196   9.102  0.3995  0.0433  0.5513
  143SAPE  H15R15676   3.485   3.093   9.065 -0.5062  0.1304  0.0653
  143SAPE  C21615677   3.446   3.302   8.992  0.2337  0.3516  0.3847
  143SAPE  H16R15678   3.411   3.396   9.039  0.8623  0.8903 -0.2000
  143SAPE  H16S15679   3.364   3.266   8.927  0.3827 -2.2696  1.5045
  143SAPE  C21715680   3.560   3.337   8.903  0.0711  0.3418  0.1644
  143SAPE  H17R15681   3.607   3.244   8.864 -1.7633 -0.8837  0.7501
  143SAPE  H17S15682   3.636   3.391   8.963 -0.2057  0.6191  0.2649
  143SAPE  C21815683   3.523   3.412   8.772 -0.2464 -0.4775 -0.2874
  143SAPE  H18R15684   3.439   3.362   8.720 -0.7367  1.0296 -0.9879
  143SAPE  H18S15685   3.610   3.405   8.704 -0.0440  2.9291 -0.5463
  143SAPE  C21915686   3.490   3.558   8.797 -0.0593 -0.7050  0.4234
  143SAPE  H19R15687   3.557   3.599   8.875  1.0296 -1.2043 -0.2233
  143SAPE  H19S15688   3.390   3.572   8.843 -0.4873  2.0516 -1.1382
  143SAPE  C22015689   3.526   3.645   8.676  0.1384 -0.1108 -0.2487
  143SAPE  H20R15690   3.520   3.751   8.706 -0.4537  0.1804 -1.3440
  143SAPE  H20S15691   3.460   3.622   8.590  1.0194  0.3327 -1.0667
  143SAPE  H20T15692   3.625   3.610   8.638 -1.4230 -4.2255 -1.0658
  143SAPE   C3315693   3.699   3.168  10.292  0.2387  0.4210  0.9418
  143SAPE   H3X15694   3.604   3.124  10.329  1.1820 -1.2833  1.4593
  143SAPE   H3Y15695   3.778   3.093  10.312 -0.6260 -0.7971 -0.0651
  143SAPE   C3415696   3.690   3.200  10.138  0.0314  0.3279  0.3136
  143SAPE   H4X15697   3.768   3.271  10.103 -0.0502  0.7865  1.0343
  143SAPE   H4Y15698   3.597   3.258  10.118 -1.0614 -1.8750 -1.5429
  143SAPE   C3515699   3.699   3.076  10.053  0.3171  0.4347 -0.2374
  143SAPE   H5X15700   3.609   3.011  10.064  1.3275 -0.6846  2.0467
  143SAPE   H5Y15701   3.785   3.015  10.088 -0.8107 -1.3932 -0.4960
  143SAPE   C3615702   3.729   3.111   9.905 -0.5246  0.8056  0.2812
  143SAPE   H6X15703   3.824   3.168   9.899  0.1009 -0.2033  0.4560
  143SAPE   H6Y15704   3.648   3.183   9.877 -1.2630 -0.8827 -2.2981
  143SAPE   C3715705   3.731   2.990   9.815 -0.6972 -0.2183  0.8978
  143SAPE   H7X15706   3.640   2.927   9.832  0.0593 -1.3445  0.9086
  143SAPE   H7Y15707   3.819   2.926   9.838 -1.3344 -1.1094  0.9179
  143SAPE   C3815708   3.743   3.028   9.670  0.0954 -0.3651 -0.0528
  143SAPE   H8X15709   3.842   3.078   9.662  0.1377 -0.2767  0.9463
  143SAPE   H8Y15710   3.667   3.104   9.641 -1.4053 -1.7819  0.0200
  143SAPE   C3915711   3.731   2.911   9.571 -0.4432  0.5400 -0.0939
  143SAPE   H9X15712   3.653   2.843   9.611  0.5592 -0.4508  0.2616
  143SAPE   H9Y15713   3.833   2.865   9.573 -0.4396  0.5539  0.3113
  143SAPE  C31015714   3.694   2.955   9.430 -0.1177  0.0149 -0.3820
  143SAPE  H10X15715   3.776   3.025   9.401  0.4189 -0.8156 -0.9050
  143SAPE  H10Y15716   3.607   3.023   9.438  0.8240  1.0808  1.4301
  143SAPE  C31115717   3.688   2.830   9.334 -0.4790  0.1811  0.0931
  143SAPE  H11X15718   3.593   2.775   9.357  0.2343 -0.9553  0.4005
  143SAPE  H11Y15719   3.771   2.762   9.362 -2.7882 -2.4913  1.0159
  143SAPE  C31215720   3.705   2.870   9.184 -0.6167 -0.2058 -0.4055
  143SAPE  H12X15721   3.617   2.935   9.164  0.0198  0.9621  0.4650
  143SAPE  H12Y15722   3.701   2.779   9.121 -0.8271 -1.8809  1.8841
  143SAPE  C31315723   3.842   2.932   9.153 -0.1750  0.2972  0.3690
  143SAPE  H13X15724   3.904   2.877   9.227 -0.7034 -1.3075 -0.3346
  143SAPE  H13Y15725   3.837   3.037   9.188 -0.0795 -0.1475  1.7831
  143SAPE  C31415726   3.906   2.911   9.024 -0.2579  0.4330 -0.1096
  143SAPE  H14X15727   3.937   2.805   9.015  4.1554  1.5938 -0.8221
  143SAPE  H14Y15728   4.010   2.949   9.023  1.1640 -3.1483 -0.9421
  143SAPE  C31515729   3.831   2.950   8.894  0.0197 -0.2840  0.2466
  143SAPE  H15X15730   3.814   3.060   8.894  1.7888  0.0473  2.0689
  143SAPE  H15Y15731   3.729   2.906   8.888  0.0260 -0.3717  0.7074
  143SAPE  C31615732   3.904   2.898   8.769 -0.8131 -0.5297  0.4903
  143SAPE  H16X15733   3.940   2.794   8.785  0.4313 -0.0976  0.6484
  143SAPE  H16Y15734   3.986   2.965   8.733 -2.3285  1.3569  0.3803
  143SAPE  C31715735   3.814   2.891   8.650  0.3811 -0.0654 -0.3540
  143SAPE  H17X15736   3.721   2.830   8.659 -0.2532  0.8840 -0.2430
  143SAPE  H17Y15737   3.872   2.842   8.569  0.7065 -0.5665  0.1697
  143SAPE  C31815738   3.750   3.030   8.608 -0.7561  0.9930 -0.1311
  143SAPE  H18X15739   3.684   3.056   8.694 -2.1499 -1.3891 -0.3814
  143SAPE  H18Y15740   3.684   2.993   8.527 -0.0741 -4.0846  1.2730
  143SAPE  H18Z15741   3.821   3.109   8.575 -2.1639  1.7104 -1.5517
  144SAPE     N15742   0.086   1.540  10.691  0.1386 -0.6197  0.6727
  144SAPE   HN115743   0.036   1.630  10.674  1.3832  0.2828  1.5699
  144SAPE   HN215744   0.184   1.573  10.699  0.3189  0.0685 -2.6113
  144SAPE   HN315745   0.071   1.496  10.598  0.4345 -0.9591  0.7828
  144SAPE   C1215746   0.049   1.450  10.803  0.3084 -0.1963 -0.4948
  144SAPE  H12A15747  -0.045   1.401  10.769  0.9704 -1.5986 -0.3852
  144SAPE  H12B15748   0.024   1.517  10.887 -0.4524 -0.5460 -0.4356
  144SAPE   C1115749   0.147   1.333  10.822 -0.7640  0.3317  0.2290
  144SAPE  H11A15750   0.224   1.378  10.888 -0.7634 -0.4086  0.7417
  144SAPE  H11B15751   0.196   1.300  10.728  2.5732 -2.8723  2.8207
  144SAPE     P15752   0.158   1.084  10.883  0.4113  0.1564  0.0224
  144SAPE   O1315753   0.303   1.098  10.857 -0.5221 -0.6891 -0.4013
  144SAPE   O1415754   0.122   1.012  11.009  0.1945  0.2712  0.5617
  144SAPE   O1215755   0.089   1.225  10.887 -0.4576 -0.0646 -0.4466
  144SAPE   O1115756   0.085   1.019  10.760 -0.2794  1.2820 -0.1966
  144SAPE    C115757  -0.053   0.992  10.749  0.4192  0.2236 -0.5060
  144SAPE    HA15758  -0.084   0.886  10.761  2.6192 -0.4007  0.1359
  144SAPE    HB15759  -0.115   1.040  10.827 -1.9393  1.4308 -2.9810
  144SAPE    C215760  -0.113   1.042  10.607 -0.1424 -0.1532 -0.1442
  144SAPE    HS15761  -0.223   1.035  10.599 -0.2323  0.5060  0.4102
  144SAPE   O2115762  -0.049   0.959  10.505 -0.3765  0.2086 -0.1736
  144SAPE   C2115763  -0.116   0.854  10.467  0.0794  0.4099  0.0738
  144SAPE   O2215764  -0.211   0.800  10.522 -0.4188 -0.4818  0.4224
  144SAPE   C2215765  -0.077   0.814  10.327 -0.1618 -1.0385  0.4802
  144SAPE   H2R15766  -0.083   0.889  10.246  2.4966 -0.5528  0.6624
  144SAPE   H2S15767   0.033   0.797  10.326 -0.2730 -1.9673 -1.9679
  144SAPE    C315768  -0.079   1.189  10.581  0.0703  0.1291  0.6559
  144SAPE    HX15769   0.031   1.201  10.592  0.2788 -1.8082  1.0464
  144SAPE    HY15770  -0.128   1.236  10.669 -0.1931  0.1082  0.5221
  144SAPE   O3115771  -0.148   1.239  10.458 -0.2987  0.2772  0.3171
  144SAPE   C3115772  -0.111   1.355  10.414  0.2305 -0.6598  0.4861
  144SAPE   O3215773  -0.024   1.425  10.466 -0.0553 -0.0199 -0.1684
  144SAPE   C3215774  -0.197   1.387  10.292  0.2872  1.0268  0.2904
  144SAPE   H2X15775  -0.301   1.373  10.330  0.1043  0.4278 -0.3998
  144SAPE   H2Y15776  -0.178   1.310  10.213 -2.0121  0.9292 -0.2601
  144SAPE   C2315777  -0.144   0.685  10.274  0.0999 -0.8133  0.4230
  144SAPE   H3R15778  -0.246   0.710  10.235 -0.1514 -0.6443  1.1823
  144SAPE   H3S15779  -0.157   0.614  10.359 -3.7501 -0.7464  0.0746
  144SAPE   C2415780  -0.059   0.611  10.170  0.3714  0.2088 -0.2049
  144SAPE   H4R15781  -0.114   0.515  10.161 -0.2177  0.5437 -0.2488
  144SAPE   H4S15782   0.044   0.591  10.206  0.0470  0.1560  0.7003
  144SAPE   C2515783  -0.041   0.680  10.040 -0.3051  0.7983 -0.2856
  144SAPE   H5R15784   0.026   0.768  10.046 -0.7954  1.0975  1.2341
  144SAPE   C2615785  -0.105   0.646   9.928  0.2369 -0.4572  0.3163
  144SAPE   H6R15786  -0.079   0.695   9.833 -1.6835 -2.7597 -1.5266
  144SAPE   C2715787  -0.206   0.535   9.906 -0.1606  0.3896  0.0423
  144SAPE   H7R15788  -0.225   0.474   9.997  0.4875  0.0617 -0.0398
  144SAPE   H7S15789  -0.168   0.467   9.827 -0.8234 -0.7147  0.6417
  144SAPE   C2815790  -0.337   0.590   9.854  0.3995 -0.3306 -0.8497
  144SAPE   H8R15791  -0.362   0.687   9.900 -2.8633 -0.7840 -1.4559
  144SAPE   C2915792  -0.418   0.547   9.753  0.2850 -0.0547 -0.2655
  144SAPE   H9R15793  -0.510   0.599   9.724 -0.4996 -1.2579 -0.0381
  144SAPE  C21015794  -0.394   0.429   9.668 -0.0097 -0.0474 -0.0971
  144SAPE  H10R15795  -0.472   0.352   9.691  1.8701 -1.7037  1.0644
  144SAPE  H10S15796  -0.309   0.369   9.709 -2.0222 -1.4744  2.2945
  144SAPE  C21115797  -0.374   0.452   9.521  0.1867  0.9717  0.7597
  144SAPE  H11R15798  -0.458   0.413   9.461  0.6392  1.0021  0.0939
  144SAPE  C21215799  -0.262   0.504   9.456  0.2775  0.0755 -0.1973
  144SAPE  H12R15800  -0.274   0.517   9.347  0.9563 -1.5623 -0.4842
  144SAPE  C21315801  -0.132   0.556   9.513  0.5677 -0.6536 -0.0691
  144SAPE  H13R15802  -0.049   0.523   9.447 -0.5417 -2.1762 -0.7838
  144SAPE  H13S15803  -0.122   0.507   9.613 -1.9575 -0.3786  0.3931
  144SAPE  C21415804  -0.134   0.702   9.536 -0.4769  0.4727 -0.0088
  144SAPE  H14R15805  -0.222   0.739   9.592  0.9947  0.8970  2.1332
  144SAPE  C21515806  -0.044   0.791   9.500 -0.1997 -0.6128 -0.0617
  144SAPE  H15R15807  -0.069   0.897   9.516  1.3531  0.2143 -2.5936
  144SAPE  C21615808   0.087   0.756   9.428  0.2147  0.5407 -0.3611
  144SAPE  H16R15809   0.101   0.650   9.458 -1.6752 -0.2575 -2.0041
  144SAPE  H16S15810   0.173   0.810   9.472  0.1027  0.0811  0.4427
  144SAPE  C21715811   0.097   0.769   9.275  0.4780 -0.6148  0.1981
  144SAPE  H17R15812   0.204   0.745   9.256  0.1496 -1.7129 -0.4249
  144SAPE  H17S15813   0.086   0.876   9.247  1.9208 -0.1767  1.1923
  144SAPE  C21815814   0.010   0.668   9.202 -0.6572 -0.4778  0.0688
  144SAPE  H18R15815  -0.092   0.678   9.246 -1.0798  0.3143 -1.0276
  144SAPE  H18S15816   0.051   0.570   9.234  0.3867 -0.1129 -0.1447
  144SAPE  C21915817   0.030   0.686   9.055 -0.4169 -0.6977 -0.1610
  144SAPE  H19R15818   0.023   0.795   9.031  0.7258 -0.7269 -0.7191
  144SAPE  H19S15819  -0.058   0.645   9.002 -1.2943  1.1703 -0.2275
  144SAPE  C22015820   0.157   0.633   8.988 -0.1575 -0.3169  0.3005
  144SAPE  H20R15821   0.158   0.522   8.989  0.6661 -0.3494 -1.1399
  144SAPE  H20S15822   0.253   0.672   9.026 -0.3406 -0.9189  1.4292
  144SAPE  H20T15823   0.159   0.660   8.880 -0.6491 -0.4998  0.2433
  144SAPE   C3315824  -0.180   1.522  10.224  0.6562 -0.0020  0.3195
  144SAPE   H3X15825  -0.204   1.609  10.289  0.4627 -1.2640  1.9803
  144SAPE   H3Y15826  -0.255   1.530  10.142  0.1315  3.2359  0.9751
  144SAPE   C3415827  -0.040   1.543  10.156  0.6208  0.6573  0.5957
  144SAPE   H4X15828  -0.002   1.447  10.114  0.5468  1.3145 -1.0220
  144SAPE   H4Y15829   0.020   1.564  10.247  0.1905  1.3500  0.7213
  144SAPE   C3515830  -0.037   1.658  10.049 -0.0608  0.0138 -0.0024
  144SAPE   H5X15831  -0.060   1.754  10.099 -1.8116 -0.2378 -0.2736
  144SAPE   H5Y15832  -0.108   1.632   9.967  0.5173  1.2506 -0.9292
  144SAPE   C3615833   0.100   1.656   9.980  0.2280 -0.3566 -0.5938
  144SAPE   H6X15834   0.184   1.672  10.051 -0.7521  1.2249  0.2497
  144SAPE   H6Y15835   0.109   1.747   9.917 -2.5574  1.0549  0.8528
  144SAPE   C3715836   0.136   1.534   9.899 -0.0377 -0.4083  0.8014
  144SAPE   H7X15837   0.043   1.508   9.843 -0.6959  2.1848  0.5685
  144SAPE   H7Y15838   0.154   1.460   9.980 -0.9727 -1.0845  0.4201
  144SAPE   C3815839   0.250   1.554   9.806 -0.0585  0.0280  0.0588
  144SAPE   H8X15840   0.342   1.580   9.862  1.9157 -2.0404 -1.9895
  144SAPE   H8Y15841   0.231   1.631   9.729  1.4687  1.8433  1.3944
  144SAPE   C3915842   0.301   1.426   9.747  0.3667  1.0947  0.3495
  144SAPE   H9X15843   0.304   1.346   9.824  0.5796  0.4560 -0.3105
  144SAPE   H9Y15844   0.407   1.440   9.718  0.0279  2.1434 -0.4577
  144SAPE  C31015845   0.235   1.375   9.621 -0.1529 -0.4740 -0.1725
  144SAPE  H10X15846   0.131   1.349   9.650  0.5657 -2.6535  0.6276
  144SAPE  H10Y15847   0.275   1.277   9.588 -0.7797 -0.0245 -2.4740
  144SAPE  C31115848   0.243   1.461   9.496  0.0234 -0.1126  0.7024
  144SAPE  H11X15849   0.352   1.485   9.491 -0.3756  2.0721  1.2772
  144SAPE  H11Y15850   0.204   1.563   9.518  1.5045  0.5200  0.5500
  144SAPE  C31215851   0.218   1.374   9.375  0.4491  0.4542  0.5248
  144SAPE  H12X15852   0.107   1.370   9.373  0.4769 -0.9807 -1.8722
  144SAPE  H12Y15853   0.251   1.269   9.383  0.5045  0.3555 -0.7446
  144SAPE  C31315854   0.274   1.443   9.247  0.4543 -0.3498  0.3749
  144SAPE  H13X15855   0.385   1.430   9.249  0.6125  0.8238  0.1981
  144SAPE  H13Y15856   0.245   1.550   9.254 -1.3943 -0.9610  4.0373
  144SAPE  C31415857   0.222   1.397   9.111  0.5808  0.2200  0.5111
  144SAPE  H14X15858   0.270   1.457   9.031 -0.9862  0.2990 -0.4006
  144SAPE  H14Y15859   0.115   1.420   9.094  0.7713  1.9490  1.4167
  144SAPE  C31515860   0.261   1.251   9.102  0.4726 -0.1318 -0.3882
  144SAPE  H15X15861   0.219   1.200   9.191  2.1070  0.8303  0.9874
  144SAPE  H15Y15862   0.371   1.237   9.100  0.3907 -0.8248 -0.4194
  144SAPE  C31615863   0.195   1.191   8.969 -0.4585 -1.3180 -0.2644
  144SAPE  H16X15864   0.233   1.261   8.892  1.0327  2.0277  3.1674
  144SAPE  H16Y15865   0.086   1.210   8.981 -0.4356  0.0914 -1.9317
  144SAPE  C31715866   0.223   1.047   8.946  0.1027  0.4202 -0.2539
  144SAPE  H17X15867   0.150   1.027   8.865  2.4400  1.5934 -2.8141
  144SAPE  H17Y15868   0.200   0.982   9.032 -0.0794 -0.2618 -0.8084
  144SAPE  C31815869   0.363   1.014   8.896 -0.7777  0.5228 -0.1948
  144SAPE  H18X15870   0.363   0.929   8.825  0.5711  0.9386 -0.7383
  144SAPE  H18Y15871   0.425   0.983   8.983  1.5037 -2.9885 -2.7992
  144SAPE  H18Z15872   0.414   1.100   8.848 -0.6538  2.0611  2.4595
  145SAPE     N15873   4.437   2.795  11.584  0.6622 -0.7669  0.2454
  145SAPE   HN115874   4.535   2.817  11.556 -0.1288  0.3374 -1.9374
  145SAPE   HN215875   4.397   2.888  11.607  0.4767 -0.8353  0.2029
  145SAPE   HN315876   4.425   2.738  11.670  1.1753  0.2264  1.0048
  145SAPE   C1215877   4.372   2.728  11.465 -0.2846  0.3978 -0.2864
  145SAPE  H12A15878   4.276   2.676  11.489  0.3648 -0.8454 -0.2822
  145SAPE  H12B15879   4.446   2.650  11.437  0.6205  1.3372 -0.5523
  145SAPE   C1115880   4.363   2.835  11.355  0.3669 -0.3572  0.6186
  145SAPE  H11A15881   4.306   2.781  11.277 -2.6198  2.2384  0.8122
  145SAPE  H11B15882   4.468   2.856  11.325  1.1803 -0.9063  2.8771
  145SAPE     P15883   4.149   2.990  11.373 -0.3611 -0.0077 -0.0822
  145SAPE   O1315884   4.092   3.075  11.482  0.4992 -0.2028  0.6324
  145SAPE   O1415885   4.163   3.066  11.243 -0.3228 -0.3305 -0.4099
  145SAPE   O1215886   4.295   2.954  11.405  0.7554 -0.0165  0.3526
  145SAPE   O1115887   4.085   2.847  11.362  0.1108 -0.3793 -0.5367
  145SAPE    C115888   3.986   2.817  11.258  0.0399  0.8380  0.3945
  145SAPE    HA15889   4.021   2.843  11.156  0.6155  1.5815  0.7623
  145SAPE    HB15890   3.973   2.707  11.254 -1.4063  0.9888  0.5740
  145SAPE    C215891   3.845   2.883  11.291 -0.1152  0.2405 -0.3821
  145SAPE    HS15892   3.865   2.989  11.316 -0.3563  0.0232  0.7799
  145SAPE   O2115893   3.790   2.824  11.411  0.0667 -0.0452 -0.0567
  145SAPE   C2115894   3.690   2.893  11.465  0.3395  0.1589 -0.3458
  145SAPE   O2215895   3.657   3.006  11.439  0.6016  0.0137  0.1361
  145SAPE   C2215896   3.606   2.806  11.563  0.0966 -0.5145  1.1679
  145SAPE   H2R15897   3.558   2.865  11.644 -5.0744  0.0604 -1.8691
  145SAPE   H2S15898   3.524   2.769  11.498  1.3484  2.0317 -2.1950
  145SAPE    C315899   3.748   2.879  11.175 -0.1092 -0.1151 -0.6440
  145SAPE    HX15900   3.803   2.921  11.088  1.3844  0.7553  0.6686
  145SAPE    HY15901   3.657   2.941  11.192  1.0448  1.5534 -0.3227
  145SAPE   O3115902   3.727   2.740  11.142  0.1392  0.0760  0.9768
  145SAPE   C3115903   3.612   2.693  11.164  0.7901  0.3546 -0.2723
  145SAPE   O3215904   3.512   2.748  11.215 -0.2699  0.1103  0.0817
  145SAPE   C3215905   3.609   2.554  11.120 -0.2592  0.7892  0.2937
  145SAPE   H2X15906   3.635   2.479  11.197  1.3633 -0.3391 -1.2595
  145SAPE   H2Y15907   3.687   2.529  11.044  1.0214  2.1491  1.1009
  145SAPE   C2315908   3.686   2.693  11.624 -0.1066 -0.4761  0.0184
  145SAPE   H3R15909   3.638   2.660  11.719 -1.1091 -3.1849 -1.3148
  145SAPE   H3S15910   3.791   2.723  11.644 -0.0902  1.0645 -2.0910
  145SAPE   C2415911   3.683   2.563  11.544  0.3619  0.4462  0.2530
  145SAPE   H4R15912   3.730   2.583  11.445 -2.7007 -0.3966 -1.5152
  145SAPE   H4S15913   3.578   2.533  11.522  0.0562  1.5329  0.1716
  145SAPE   C2515914   3.766   2.450  11.607 -0.2507  0.3834 -0.0750
  145SAPE   H5R15915   3.753   2.439  11.715 -0.3271  1.0284 -0.0123
  145SAPE   C2615916   3.875   2.387  11.558  0.5663 -0.7897 -0.3837
  145SAPE   H6R15917   3.920   2.312  11.624  1.3240  1.2862  1.5673
  145SAPE   C2715918   3.930   2.406  11.417  0.7194  0.0494  0.0484
  145SAPE   H7R15919   3.992   2.498  11.416  1.0702 -0.0601  2.9115
  145SAPE   H7S15920   3.847   2.430  11.347  1.4172  0.7870 -0.5442
  145SAPE   C2815921   4.015   2.286  11.367 -0.4607 -0.6824  0.3407
  145SAPE   H8R15922   4.084   2.235  11.436 -3.3213 -1.0539  3.1618
  145SAPE   C2915923   4.010   2.244  11.236 -0.1805 -0.0754  0.4813
  145SAPE   H9R15924   4.079   2.164  11.205 -0.4413 -0.2093  0.2489
  145SAPE  C21015925   3.917   2.298  11.131  0.3285  0.0988 -0.0103
  145SAPE  H10R15926   3.828   2.341  11.182  1.2451  0.6811  1.1680
  145SAPE  H10S15927   3.874   2.215  11.071 -0.0647 -0.5275  1.0885
  145SAPE  C21115928   3.987   2.390  11.028  0.0701  0.0385 -0.4387
  145SAPE  H11R15929   4.079   2.437  11.065  1.8714 -4.6268  1.9226
  145SAPE  C21215930   3.956   2.395  10.899  0.4778 -0.0143 -0.0321
  145SAPE  H12R15931   4.027   2.455  10.840  1.2903 -1.3725 -0.4997
  145SAPE  C21315932   3.857   2.312  10.818 -0.6682  0.0682 -0.2130
  145SAPE  H13R15933   3.785   2.376  10.761 -0.6404  0.9706  0.7319
  145SAPE  H13S15934   3.792   2.244  10.877 -3.0142  0.1390 -2.5078
  145SAPE  C21415935   3.935   2.235  10.711  0.1587  0.7192  0.3293
  145SAPE  H14R15936   3.967   2.134  10.742 -0.8606  0.4212  0.4364
  145SAPE  C21515937   3.989   2.277  10.592  0.5160  0.0272 -0.3817
  145SAPE  H15R15938   4.040   2.202  10.529  1.6024  1.0231 -0.7186
  145SAPE  C21615939   3.985   2.422  10.543 -0.6031  0.5971 -0.0869
  145SAPE  H16R15940   4.090   2.457  10.537  0.3274 -2.1418 -2.2806
  145SAPE  H16S15941   3.931   2.489  10.612  0.0103  0.3562  0.6318
  145SAPE  C21715942   3.937   2.442  10.402 -0.0078  0.0835  0.5615
  145SAPE  H17R15943   3.826   2.439  10.400 -0.2470  3.7672  0.4384
  145SAPE  H17S15944   3.980   2.365  10.336  2.2980  0.8521  1.0844
  145SAPE  C21815945   3.970   2.582  10.343 -0.3555  0.1695  0.3786
  145SAPE  H18R15946   4.079   2.579  10.363 -0.6603 -0.9800  2.0590
  145SAPE  H18S15947   3.925   2.660  10.408  2.1372  0.5618  1.7522
  145SAPE  C21915948   3.926   2.606  10.198  0.2230 -0.0688 -0.0712
  145SAPE  H19R15949   3.818   2.581  10.185 -0.1701  0.4647  1.8735
  145SAPE  H19S15950   3.986   2.534  10.139  1.0288  1.4042 -1.1135
  145SAPE  C22015951   3.947   2.753  10.151  0.4723 -0.2321 -0.0964
  145SAPE  H20R15952   3.906   2.826  10.224 -1.4231 -0.6550 -0.6706
  145SAPE  H20S15953   3.885   2.783  10.064  1.1227  1.7797  0.0715
  145SAPE  H20T15954   4.055   2.778  10.148  0.6443  0.6313  4.8695
  145SAPE   C3315955   3.470   2.510  11.074  0.1005  0.4561  0.6203
  145SAPE   H3X15956   3.396   2.534  11.154 -2.6991  0.2541 -1.7470
  145SAPE   H3Y15957   3.471   2.399  11.071 -1.2119  0.4603 -1.5999
  145SAPE   C3415958   3.422   2.572  10.935 -0.2914  0.0915 -0.2296
  145SAPE   H4X15959   3.406   2.681  10.952 -1.0955  0.3767 -2.5614
  145SAPE   H4Y15960   3.323   2.535  10.902  0.0993 -1.3909  0.1920
  145SAPE   C3515961   3.518   2.548  10.812  0.0090 -0.5240 -0.0445
  145SAPE   H5X15962   3.516   2.439  10.787 -3.6076 -1.0554  1.8245
  145SAPE   H5Y15963   3.620   2.576  10.845 -0.6753  1.5194  0.4476
  145SAPE   C3615964   3.480   2.624  10.685 -0.5927 -0.7139  1.2139
  145SAPE   H6X15965   3.483   2.734  10.702 -1.4500 -0.3117 -0.8538
  145SAPE   H6Y15966   3.378   2.605  10.647  0.8904 -1.8256 -2.7311
  145SAPE   C3715967   3.570   2.601  10.562  0.0393  0.5947 -0.0474
  145SAPE   H7X15968   3.582   2.495  10.532  2.0695  0.9616 -0.6856
  145SAPE   H7Y15969   3.674   2.622  10.594 -0.7105  1.2503  2.1279
  145SAPE   C3815970   3.518   2.686  10.445  0.6536 -1.0007 -0.2790
  145SAPE   H8X15971   3.512   2.794  10.468 -1.0351 -1.1679  0.2572
  145SAPE   H8Y15972   3.412   2.651  10.438  0.3447 -0.2301  0.4171
  145SAPE   C3915973   3.592   2.665  10.310 -0.1035 -0.2841  0.2753
  145SAPE   H9X15974   3.603   2.554  10.311 -1.1395 -0.3960  0.8532
  145SAPE   H9Y15975   3.696   2.703  10.302 -1.0050  2.0352 -2.0693
  145SAPE  C31015976   3.500   2.721  10.194 -0.3557 -0.3761 -0.1141
  145SAPE  H10X15977   3.496   2.831  10.206  0.4149 -0.2816 -0.7028
  145SAPE  H10Y15978   3.394   2.691  10.210 -0.9700  0.9152 -1.6097
  145SAPE  C31115979   3.540   2.697  10.049  0.1054 -0.2488  0.7269
  145SAPE  H11X15980   3.626   2.761  10.020  2.1256 -2.9757  0.2914
  145SAPE  H11Y15981   3.459   2.720   9.976  1.1149 -0.5221 -0.5254
  145SAPE  C31215982   3.585   2.548  10.026 -0.3634  0.5801  0.0243
  145SAPE  H12X15983   3.493   2.485  10.033  1.6580 -2.6234 -0.1954
  145SAPE  H12Y15984   3.653   2.526  10.110 -0.1404 -1.3170 -0.5984
  145SAPE  C31315985   3.662   2.525   9.896 -0.5240  0.2889  0.0326
  145SAPE  H13X15986   3.660   2.414   9.885 -2.5601  0.4664 -2.1455
  145SAPE  H13Y15987   3.771   2.543   9.911  0.1347 -1.2501 -2.3660
  145SAPE  C31415988   3.585   2.570   9.771 -0.1323 -0.2342 -0.4316
  145SAPE  H14X15989   3.596   2.676   9.741  1.8498 -0.2293  0.2056
  145SAPE  H14Y15990   3.477   2.549   9.786 -0.1453 -0.3939 -0.7357
  145SAPE  C31515991   3.629   2.493   9.646  0.1148 -0.4171 -0.3543
  145SAPE  H15X15992   3.625   2.385   9.673 -1.7371  0.0868  1.6560
  145SAPE  H15Y15993   3.737   2.514   9.631  0.3515 -1.5967 -0.4368
  145SAPE  C31615994   3.555   2.529   9.519 -0.1664  0.2148 -0.0029
  145SAPE  H16X15995   3.536   2.638   9.519  1.1971  0.4673  0.0105
  145SAPE  H16Y15996   3.464   2.466   9.518  0.3394 -0.5469  0.7702
  145SAPE  C31715997   3.623   2.490   9.390 -0.2448 -0.9435  0.5456
  145SAPE  H17X15998   3.650   2.385   9.411  0.7080 -0.0733  4.4759
  145SAPE  H17Y15999   3.723   2.534   9.369 -1.2795  0.5819 -1.5889
  145SAPE  C31816000   3.539   2.511   9.266  0.0602 -0.2977 -0.7220
  145SAPE  H18X16001   3.444   2.454   9.271  0.9954 -1.9207 -0.8628
  145SAPE  H18Y16002   3.589   2.481   9.172  1.1910  0.5883 -0.4193
  145SAPE  H18Z16003   3.514   2.620   9.260 -0.9103 -0.2943  2.0085
  146SAPE     N16004   2.448   2.475  11.150  0.0105 -0.0118  0.2285
  146SAPE   HN116005   2.502   2.503  11.234  0.2682  2.5897 -0.7102
  146SAPE   HN216006   2.346   2.462  11.166 -0.0882  0.2150 -0.1976
  146SAPE   HN316007   2.482   2.383  11.117  0.8674  0.5707 -0.5752
  146SAPE   C1216008   2.473   2.572  11.036  0.1715  1.6818  0.1756
  146SAPE  H12A16009   2.571   2.549  10.989 -0.0040 -0.0349  0.6108
  146SAPE  H12B16010   2.486   2.672  11.084 -0.0491  2.4135 -1.2186
  146SAPE   C1116011   2.350   2.576  10.947  0.3978  0.0294 -0.2548
  146SAPE  H11A16012   2.352   2.479  10.892  1.2653  0.8158 -1.6748
  146SAPE  H11B16013   2.376   2.638  10.859  1.1197 -3.6381 -2.8991
  146SAPE     P16014   2.127   2.733  10.984 -0.3145 -0.2160 -0.1885
  146SAPE   O1316015   1.986   2.696  11.025  0.0672  0.1790 -0.0070
  146SAPE   O1416016   2.178   2.866  11.033  0.2577 -0.4522 -0.1169
  146SAPE   O1216017   2.224   2.616  11.014 -0.5402  0.1320 -0.4908
  146SAPE   O1116018   2.139   2.752  10.827 -0.1746  0.2266  0.0735
  146SAPE    C116019   2.072   2.865  10.769  0.1492 -0.5425 -0.4716
  146SAPE    HA16020   1.974   2.883  10.817 -0.3138 -2.4401 -0.6085
  146SAPE    HB16021   2.134   2.955  10.786  1.6951 -1.6600  0.0409
  146SAPE    C216022   2.040   2.857  10.614 -0.0444 -0.1251 -0.3479
  146SAPE    HS16023   1.989   2.954  10.595  0.2595 -0.2516 -1.9464
  146SAPE   O2116024   1.968   2.738  10.579  0.4990  0.3502 -0.0833
  146SAPE   C2116025   1.885   2.758  10.477 -0.1356 -1.0564 -0.0011
  146SAPE   O2216026   1.842   2.866  10.440 -0.1928  0.4151 -0.1270
  146SAPE   C2216027   1.837   2.622  10.427 -0.0025 -0.3358 -0.7253
  146SAPE   H2R16028   1.891   2.542  10.482  1.5157  0.2391 -1.3180
  146SAPE   H2S16029   1.729   2.610  10.449 -0.0541 -0.8003 -1.1990
  146SAPE    C316030   2.173   2.850  10.535 -0.0369  0.1990 -0.1972
  146SAPE    HX16031   2.223   2.755  10.563  1.3149  0.1589 -2.4499
  146SAPE    HY16032   2.247   2.928  10.563  0.8019 -0.4836 -0.4514
  146SAPE   O3116033   2.149   2.857  10.392  0.0588  0.6793  0.0315
  146SAPE   C3116034   2.112   2.980  10.355 -0.9353  0.4030  0.5067
  146SAPE   O3216035   2.109   3.075  10.426 -0.8386  0.4002 -0.3187
  146SAPE   C3216036   2.071   2.979  10.207 -0.4624  0.3821  0.4876
  146SAPE   H2X16037   1.982   3.042  10.185  0.2680  0.6812 -1.9070
  146SAPE   H2Y16038   2.046   2.877  10.172 -1.4580  0.0763  1.9946
  146SAPE   C2316039   1.870   2.600  10.280 -0.1165  0.1845 -0.3292
  146SAPE   H3R16040   1.857   2.493  10.252  0.8844  0.5074 -2.2449
  146SAPE   H3S16041   1.981   2.608  10.268 -0.1261 -0.5806 -1.0366
  146SAPE   C2416042   1.798   2.682  10.176  0.6868  0.3681 -0.4952
  146SAPE   H4R16043   1.819   2.786  10.209  1.9787  0.4277 -1.4240
  146SAPE   H4S16044   1.689   2.660  10.180  0.7956 -0.1032  0.1344
  146SAPE   C2516045   1.869   2.661  10.038  0.5999 -0.5598 -0.0131
  146SAPE   H5R16046   1.949   2.736  10.025  1.3504 -1.2825  0.4139
  146SAPE   C2616047   1.837   2.583   9.938 -0.2748 -0.1554 -0.0016
  146SAPE   H6R16048   1.924   2.565   9.874  0.5847 -1.3490  1.4342
  146SAPE   C2716049   1.717   2.488   9.942  0.0770 -0.1947 -0.0103
  146SAPE   H7R16050   1.703   2.435  10.038 -2.8170 -2.1538 -1.3675
  146SAPE   H7S16051   1.761   2.401   9.888  1.3293 -1.8221  3.3623
  146SAPE   C2816052   1.577   2.529   9.901  0.7370  0.8772  0.7466
  146SAPE   H8R16053   1.514   2.545   9.989  0.1987  0.6995  0.3979
  146SAPE   C2916054   1.524   2.559   9.783 -0.0757 -0.0875 -0.5061
  146SAPE   H9R16055   1.418   2.588   9.783 -0.0313  0.0783 -0.8010
  146SAPE  C21016056   1.603   2.557   9.655 -0.1802  0.1104 -0.8004
  146SAPE  H10R16057   1.583   2.468   9.592 -1.4828 -0.4964  0.4029
  146SAPE  H10S16058   1.710   2.542   9.679 -1.1250 -3.3867  2.2422
  146SAPE  C21116059   1.585   2.694   9.594 -0.5680  0.8419 -0.3305
  146SAPE  H11R16060   1.597   2.782   9.659 -2.5622  0.4370  0.6468
  146SAPE  C21216061   1.561   2.716   9.464  0.0535 -0.0227  0.1875
  146SAPE  H12R16062   1.563   2.819   9.425  0.5548  0.7628  2.1511
  146SAPE  C21316063   1.548   2.601   9.361 -0.2359 -0.1351 -0.4435
  146SAPE  H13R16064   1.513   2.509   9.415  1.6803 -0.1846  0.8355
  146SAPE  H13S16065   1.654   2.584   9.333 -0.5275 -1.6437 -0.7253
  146SAPE  C21416066   1.450   2.639   9.247 -0.7150  0.1670 -0.2744
  146SAPE  H14R16067   1.362   2.701   9.271 -0.7363  0.0707 -0.0978
  146SAPE  C21516068   1.476   2.628   9.112 -0.4396 -0.1041 -0.4206
  146SAPE  H15R16069   1.404   2.671   9.040 -1.3807  0.7404  0.9790
  146SAPE  C21616070   1.602   2.574   9.054 -0.9613  0.3118 -0.1938
  146SAPE  H16R16071   1.671   2.532   9.131 -2.8696 -2.5903  0.0700
  146SAPE  H16S16072   1.656   2.644   8.986  2.1114 -0.8237  0.8884
  146SAPE  C21716073   1.566   2.454   8.959 -0.1073 -0.3637 -0.4778
  146SAPE  H17R16074   1.531   2.494   8.862 -1.6055  0.3925  0.3403
  146SAPE  H17S16075   1.488   2.386   9.001 -0.9106  0.9488  0.2042
  146SAPE  C21816076   1.677   2.350   8.938  0.4068 -0.6509  0.6535
  146SAPE  H18R16077   1.770   2.397   8.900 -0.3800  1.0173  0.7146
  146SAPE  H18S16078   1.644   2.266   8.873  0.2996 -0.8026  0.9033
  146SAPE  C21916079   1.716   2.278   9.066 -0.2772 -0.2661  0.3148
  146SAPE  H19R16080   1.628   2.218   9.099 -0.2132 -1.9783 -2.2914
  146SAPE  H19S16081   1.750   2.353   9.140 -3.0015 -1.3460  2.8364
  146SAPE  C22016082   1.826   2.177   9.039  0.3998 -0.1364  0.7955
  146SAPE  H20R16083   1.864   2.134   9.135  3.1496 -1.3310 -0.6849
  146SAPE  H20S16084   1.910   2.229   8.988  0.8777 -0.3004  1.3909
  146SAPE  H20T16085   1.796   2.092   8.973  3.4361  1.7591 -3.5169
  146SAPE   C3316086   2.185   3.021  10.113 -0.5463  0.1364  0.3135
  146SAPE   H3X16087   2.259   2.940  10.097 -0.7101 -0.2731  1.5315
  146SAPE   H3Y16088   2.234   3.112  10.153  1.1379 -0.7739  0.3925
  146SAPE   C3416089   2.124   3.056   9.974  0.5173  0.5538  0.0321
  146SAPE   H4X16090   2.054   3.142   9.986  1.2318  1.2900 -0.9511
  146SAPE   H4Y16091   2.071   2.971   9.926 -0.1515  0.6770  0.5339
  146SAPE   C3516092   2.232   3.106   9.883  0.3111  0.7481 -0.8010
  146SAPE   H5X16093   2.324   3.047   9.900 -1.9637 -3.1460 -0.6950
  146SAPE   H5Y16094   2.267   3.210   9.900  3.6203 -0.3720 -0.1706
  146SAPE   C3616095   2.205   3.093   9.734 -0.0711  0.6035 -0.6037
  146SAPE   H6X16096   2.130   3.173   9.719 -1.2548 -0.4040 -0.1447
  146SAPE   H6Y16097   2.153   2.997   9.718 -2.8719  2.1699 -1.6319
  146SAPE   C3716098   2.337   3.106   9.654 -0.0161  0.2055  0.4491
  146SAPE   H7X16099   2.407   3.025   9.685  0.4571  0.9430  1.3621
  146SAPE   H7Y16100   2.382   3.207   9.662 -1.9382  1.0252  1.8199
  146SAPE   C3816101   2.308   3.082   9.507  0.0623  0.7911  0.2315
  146SAPE   H8X16102   2.243   3.165   9.470  2.6122  2.5806 -0.4916
  146SAPE   H8Y16103   2.250   2.987   9.507 -0.4235  1.0670 -0.8101
  146SAPE   C3916104   2.432   3.053   9.419 -0.5494 -0.0294  0.0187
  146SAPE   H9X16105   2.500   2.983   9.472  1.2936  1.7066  0.0412
  146SAPE   H9Y16106   2.490   3.144   9.394 -0.5941 -0.3795 -1.4572
  146SAPE  C31016107   2.397   3.007   9.273 -0.1520  0.6311 -0.8887
  146SAPE  H10X16108   2.318   2.929   9.279  0.2011  0.3637  2.0241
  146SAPE  H10Y16109   2.489   2.969   9.223  0.2815  0.4154  0.0375
  146SAPE  C31116110   2.342   3.116   9.190  0.3785  0.4897 -0.0537
  146SAPE  H11X16111   2.414   3.200   9.176  2.1609 -0.7449  1.3072
  146SAPE  H11Y16112   2.252   3.159   9.239  1.4730 -0.8950  3.4673
  146SAPE  C31216113   2.300   3.071   9.042 -0.2772 -0.2095 -0.5258
  146SAPE  H12X16114   2.245   3.145   8.981  0.8968  2.0920  1.0594
  146SAPE  H12Y16115   2.225   2.989   9.053 -2.5085  1.5472 -1.8147
  146SAPE  C31316116   2.413   3.022   8.953  0.0632  0.3645 -0.1846
  146SAPE  H13X16117   2.439   2.920   8.989 -1.0370 -0.9264 -2.7520
  146SAPE  H13Y16118   2.489   3.101   8.970 -0.8165  1.0580  0.5831
  146SAPE  C31416119   2.380   3.009   8.803  0.1006 -0.0705 -0.6014
  146SAPE  H14X16120   2.474   3.004   8.743 -0.7218 -2.3922 -1.8032
  146SAPE  H14Y16121   2.318   3.093   8.766 -1.7587 -1.9804 -2.0367
  146SAPE  C31516122   2.294   2.885   8.765  0.4572 -0.1258  0.5030
  146SAPE  H15X16123   2.323   2.802   8.833  2.0280  0.5067  0.6248
  146SAPE  H15Y16124   2.330   2.849   8.666  1.3025  1.4883  0.1949
  146SAPE  C31616125   2.141   2.913   8.783 -0.5004 -0.6600 -0.2958
  146SAPE  H16X16126   2.136   2.951   8.888 -0.5655 -0.4748 -0.3659
  146SAPE  H16Y16127   2.094   2.813   8.794 -3.9823  0.8510 -0.1119
  146SAPE  C31716128   2.065   2.993   8.676 -0.9835  0.4647 -0.5187
  146SAPE  H17X16129   2.126   3.085   8.665 -1.4674  0.7504 -0.8333
  146SAPE  H17Y16130   1.964   3.017   8.717 -0.5220 -1.1223  1.7393
  146SAPE  C31816131   2.078   2.927   8.539  0.5628 -0.5750 -0.2849
  146SAPE  H18X16132   2.001   2.848   8.527  1.1587 -1.1468 -0.3897
  146SAPE  H18Y16133   2.182   2.889   8.530  0.5034 -0.3972 -1.8701
  146SAPE  H18Z16134   2.065   3.001   8.457 -1.1916 -0.2833  0.2163
  147SAPE     N16135   0.998   0.506   6.153 -0.7683 -0.2822 -1.1172
  147SAPE   HN116136   1.019   0.476   6.251 -1.7253  1.5038 -0.3022
  147SAPE   HN216137   1.078   0.482   6.091  1.0456 -0.7027  1.2219
  147SAPE   HN316138   1.005   0.610   6.163  0.1753 -0.3171 -1.3404
  147SAPE   C1216139   0.859   0.456   6.105 -0.4256  0.3023  0.4418
  147SAPE  H12A16140   0.811   0.520   6.027 -0.0271  0.3918  0.2633
  147SAPE  H12B16141   0.784   0.464   6.186 -1.3793 -0.4797 -0.3300
  147SAPE   C1116142   0.869   0.305   6.062 -0.2554  0.9384  0.2749
  147SAPE  H11A16143   0.923   0.301   5.965 -2.0033  0.8116 -0.7466
  147SAPE  H11B16144   0.765   0.268   6.046 -0.5437  1.7870  0.1567
  147SAPE     P16145   0.855   0.164   6.292 -0.1442  0.0453  0.7782
  147SAPE   O1316146   0.779   0.269   6.360 -0.7084  0.4463 -0.5652
  147SAPE   O1416147   0.769   0.056   6.248 -0.0709 -0.0147 -0.1726
  147SAPE   O1216148   0.936   0.226   6.161  0.5378  0.4010  0.0765
  147SAPE   O1116149   0.977   0.115   6.380  0.1748 -0.0536 -0.1673
  147SAPE    C116150   1.098   0.062   6.337  0.0643  0.4036 -0.5061
  147SAPE    HA16151   1.075  -0.008   6.253  3.0238 -0.4398 -0.7516
  147SAPE    HB16152   1.169   0.132   6.287  0.7724 -0.4998 -0.8023
  147SAPE    C216153   1.167  -0.009   6.462 -0.2405  0.3585 -0.2927
  147SAPE    HS16154   1.260  -0.063   6.435 -0.4106 -0.5911  0.9598
  147SAPE   O2116155   1.075  -0.093   6.545 -0.2065  0.1251  0.3043
  147SAPE   C2116156   1.041  -0.202   6.467 -0.3527 -0.4804 -0.8186
  147SAPE   O2216157   1.095  -0.223   6.357 -0.0191 -0.4149 -0.2864
  147SAPE   C2216158   0.935  -0.286   6.535 -0.4136  0.4569 -0.5874
  147SAPE   H2R16159   0.956  -0.290   6.644  0.7860 -1.3671 -0.8492
  147SAPE   H2S16160   0.828  -0.265   6.513 -0.2606  0.6900 -1.1417
  147SAPE    C316161   1.223   0.107   6.557  0.1460 -0.3606 -0.4483
  147SAPE    HX16162   1.131   0.164   6.582  0.5580 -0.5351  1.6206
  147SAPE    HY16163   1.301   0.159   6.498  0.1133 -0.8585 -0.9429
  147SAPE   O3116164   1.274   0.046   6.677 -0.0920 -0.7877  0.1616
  147SAPE   C3116165   1.324   0.140   6.756 -0.0536  0.9635  0.0347
  147SAPE   O3216166   1.311   0.260   6.753 -0.6440 -0.3099  0.5662
  147SAPE   C3216167   1.398   0.062   6.872  0.1417  0.3061  0.2624
  147SAPE   H2X16168   1.470  -0.006   6.823  0.7649  0.3643  1.0932
  147SAPE   H2Y16169   1.319   0.007   6.928 -0.6181 -0.2409 -1.2736
  147SAPE   C2316170   0.959  -0.434   6.498  0.2337  0.4038 -0.3624
  147SAPE   H3R16171   1.060  -0.476   6.513 -0.4094 -2.3737 -2.9815
  147SAPE   H3S16172   0.937  -0.454   6.391  2.3783  4.3630 -1.7598
  147SAPE   C2416173   0.860  -0.529   6.575  0.4376 -0.5184  0.9527
  147SAPE   H4R16174   0.758  -0.538   6.530  0.0411 -1.5806  2.0156
  147SAPE   H4S16175   0.843  -0.490   6.678 -0.2964 -1.9720  1.4088
  147SAPE   C2516176   0.919  -0.667   6.588 -0.0975 -0.4709 -0.4373
  147SAPE   H5R16177   0.938  -0.724   6.496  2.8139  0.5713 -0.5799
  147SAPE   C2616178   0.975  -0.718   6.700  0.4570 -0.6499 -0.3026
  147SAPE   H6R16179   1.023  -0.817   6.700  0.4934 -0.6478  0.9614
  147SAPE   C2716180   0.979  -0.644   6.830 -0.0706 -0.4862  0.1830
  147SAPE   H7R16181   1.005  -0.537   6.822  2.0569 -0.9116  0.9007
  147SAPE   H7S16182   1.064  -0.689   6.884 -0.5329 -1.0282  0.4684
  147SAPE   C2816183   0.852  -0.661   6.913  0.1762  0.4753  0.2217
  147SAPE   H8R16184   0.809  -0.759   6.888  1.3958  0.2188 -0.9617
  147SAPE   C2916185   0.798  -0.583   7.016  0.4331 -0.5540  0.1791
  147SAPE   H9R16186   0.705  -0.619   7.061  0.0114  0.7109  0.3621
  147SAPE  C21016187   0.852  -0.448   7.062  0.7268  0.5162  0.8034
  147SAPE  H10R16188   0.953  -0.436   7.018  1.0629 -0.6840  1.2066
  147SAPE  H10S16189   0.864  -0.471   7.170  0.4103 -1.2595  0.4976
  147SAPE  C21116190   0.769  -0.327   7.035  0.6354 -0.1569 -1.1122
  147SAPE  H11R16191   0.758  -0.291   6.932  1.5130  1.0163 -0.8169
  147SAPE  C21216192   0.707  -0.243   7.129  0.4065  0.2942  0.0208
  147SAPE  H12R16193   0.648  -0.159   7.090 -0.6774 -0.9125 -1.0526
  147SAPE  C21316194   0.718  -0.245   7.274 -0.3803  0.3177  0.6737
  147SAPE  H13R16195   0.740  -0.352   7.294 -1.0213 -0.3210 -1.7223
  147SAPE  H13S16196   0.625  -0.215   7.326 -0.6845 -0.0013  0.3173
  147SAPE  C21416197   0.840  -0.162   7.309 -0.2502  0.6883 -0.9686
  147SAPE  H14R16198   0.918  -0.153   7.232  0.4416 -2.1008 -0.7017
  147SAPE  C21516199   0.858  -0.114   7.434 -0.2788  0.1288 -0.3613
  147SAPE  H15R16200   0.957  -0.068   7.448  0.4234 -1.0569 -1.2055
  147SAPE  C21616201   0.779  -0.139   7.559 -0.1595 -0.1697  0.3151
  147SAPE  H16R16202   0.683  -0.190   7.536 -0.0829 -1.1195  1.9705
  147SAPE  H16S16203   0.751  -0.036   7.592  1.8368  0.3077  0.6152
  147SAPE  C21716204   0.849  -0.212   7.674 -0.4917 -0.3369  0.0059
  147SAPE  H17R16205   0.891  -0.301   7.622 -2.1098  0.2651 -2.5275
  147SAPE  H17S16206   0.773  -0.265   7.734  0.6472 -1.0206  0.8785
  147SAPE  C21816207   0.957  -0.141   7.752  0.0667  0.5758 -0.1863
  147SAPE  H18R16208   1.033  -0.085   7.692  1.9792  1.7640  3.0957
  147SAPE  H18S16209   1.013  -0.219   7.809  0.5552  1.7653  0.9985
  147SAPE  C21916210   0.906  -0.043   7.858  0.3237 -0.1460  0.3687
  147SAPE  H19R16211   0.845   0.035   7.808 -0.0658 -0.5846  0.1519
  147SAPE  H19S16212   0.987   0.006   7.916 -1.2005  0.7637  1.7992
  147SAPE  C22016213   0.808  -0.089   7.967  0.5685  0.5713 -0.7046
  147SAPE  H20R16214   0.788  -0.014   8.046 -0.3523 -1.4664  1.1006
  147SAPE  H20S16215   0.844  -0.177   8.023 -2.2172 -0.4421 -0.3422
  147SAPE  H20T16216   0.704  -0.114   7.935 -0.6072 -1.7741  4.1518
  147SAPE   C3316217   1.477   0.157   6.970 -0.0854  0.3963 -0.0549
  147SAPE   H3X16218   1.428   0.255   6.989  3.6344  2.3468  0.3078
  147SAPE   H3Y16219   1.570   0.192   6.921  0.4387  1.4961  1.6551
  147SAPE   C3416220   1.500   0.087   7.095  0.6038  0.2306  0.5099
  147SAPE   H4X16221   1.560  -0.005   7.075 -1.5831 -0.6114 -3.1207
  147SAPE   H4Y16222   1.408   0.063   7.152  1.8999  0.8775  3.0159
  147SAPE   C3516223   1.572   0.173   7.193  0.2987  0.2032  0.2951
  147SAPE   H5X16224   1.517   0.262   7.229  2.1812  1.3715  0.3906
  147SAPE   H5Y16225   1.669   0.200   7.147  1.0294 -1.4574  0.7687
  147SAPE   C3616226   1.606   0.094   7.323  0.5515 -0.0998  0.8842
  147SAPE   H6X16227   1.677   0.019   7.282  2.2131  2.0562 -0.4201
  147SAPE   H6Y16228   1.514   0.046   7.363  0.1466  0.0774  0.1812
  147SAPE   C3716229   1.674   0.177   7.431  0.1520  0.6514 -0.4369
  147SAPE   H7X16230   1.614   0.264   7.467 -0.3703 -0.3213  1.1403
  147SAPE   H7Y16231   1.769   0.207   7.382  0.8864 -1.8034 -0.6102
  147SAPE   C3816232   1.712   0.088   7.552  0.3244 -0.3401 -0.5167
  147SAPE   H8X16233   1.749  -0.014   7.528  1.8691  0.5268 -2.0648
  147SAPE   H8Y16234   1.618   0.063   7.606 -0.2237  1.6738 -0.4546
  147SAPE   C3916235   1.806   0.156   7.659 -0.3322 -0.1397 -0.0761
  147SAPE   H9X16236   1.767   0.257   7.685  1.2420  0.5130 -0.1433
  147SAPE   H9Y16237   1.908   0.162   7.617 -0.5153  2.7983 -0.3188
  147SAPE  C31016238   1.810   0.064   7.788 -0.0558 -0.7625 -0.9591
  147SAPE  H10X16239   1.821  -0.039   7.747  0.1195 -0.9880 -0.3519
  147SAPE  H10Y16240   1.714   0.086   7.839  1.1213  1.1924  0.5951
  147SAPE  C31116241   1.917   0.106   7.899  0.4910  0.0087  0.8581
  147SAPE  H11X16242   1.893   0.203   7.947 -0.8836 -0.5641  1.4009
  147SAPE  H11Y16243   2.018   0.108   7.853  0.0887 -3.6903 -0.6152
  147SAPE  C31216244   1.913   0.002   8.021  0.4156  0.5079  0.0051
  147SAPE  H12X16245   1.949  -0.093   7.976  2.4148  1.0381  0.3808
  147SAPE  H12Y16246   1.806   0.000   8.050  0.3768 -0.9901 -0.1466
  147SAPE  C31316247   2.002   0.043   8.138 -0.2200 -0.0876  0.2041
  147SAPE  H13X16248   1.983   0.146   8.176 -1.1428  0.7209 -2.2339
  147SAPE  H13Y16249   2.104   0.056   8.095  1.8394  0.1833  4.6709
  147SAPE  C31416250   2.023  -0.061   8.247  0.7345 -0.0531 -0.3555
  147SAPE  H14X16251   2.059  -0.161   8.216  1.0001 -0.2381  0.5267
  147SAPE  H14Y16252   1.924  -0.081   8.293  2.1050  0.8022  3.3074
  147SAPE  C31516253   2.111  -0.023   8.367  0.3956  0.0684  0.6052
  147SAPE  H15X16254   2.065  -0.063   8.459 -2.2480 -1.4302 -1.2250
  147SAPE  H15Y16255   2.106   0.088   8.366  1.6794  0.1623 -1.0996
  147SAPE  C31616256   2.263  -0.057   8.343  0.7920 -0.3713 -0.5337
  147SAPE  H16X16257   2.313   0.029   8.392  0.2948 -0.1457 -0.4143
  147SAPE  H16Y16258   2.290  -0.051   8.235 -0.7690 -0.9056 -0.9708
  147SAPE  C31716259   2.306  -0.182   8.411  0.8128 -0.0854 -0.6199
  147SAPE  H17X16260   2.267  -0.272   8.360 -1.1751 -0.5156  1.4768
  147SAPE  H17Y16261   2.280  -0.182   8.519  3.4285 -1.1077  0.0838
  147SAPE  C31816262   2.456  -0.197   8.415 -0.1900  0.1211 -0.0262
  147SAPE  H18X16263   2.515  -0.181   8.322  3.0579  1.1542  2.0249
  147SAPE  H18Y16264   2.476  -0.301   8.449  1.3881  0.9161  1.6329
  147SAPE  H18Z16265   2.515  -0.127   8.478 -1.6036  0.9420  0.4276
  148SAPE     N16266   5.657   5.404   6.450  1.0984  0.6414 -0.5043
  148SAPE   HN116267   5.695   5.428   6.544  0.4198 -1.3108  0.3091
  148SAPE   HN216268   5.595   5.322   6.463  0.8037  0.7253 -1.3500
  148SAPE   HN316269   5.735   5.367   6.392  0.1299 -1.2947 -0.6260
  148SAPE   C1216270   5.576   5.507   6.373 -0.3046 -0.0803 -0.5128
  148SAPE  H12A16271   5.520   5.444   6.301 -1.2966  0.6911 -0.4421
  148SAPE  H12B16272   5.647   5.585   6.337  1.4424 -1.5103 -0.2641
  148SAPE   C1116273   5.477   5.585   6.468 -0.0063  0.3404 -0.0810
  148SAPE  H11A16274   5.423   5.662   6.408  1.4365  0.0542 -1.8193
  148SAPE  H11B16275   5.543   5.643   6.537  1.3767 -1.0557 -0.1776
  148SAPE     P16276   5.269   5.452   6.511 -0.0743 -0.0252  0.3671
  148SAPE   O1316277   5.276   5.413   6.369  0.1945  0.4305  0.9481
  148SAPE   O1416278   5.223   5.346   6.604  0.2990 -0.1848  0.1267
  148SAPE   O1216279   5.406   5.491   6.551 -0.2591 -0.0444 -0.0581
  148SAPE   O1116280   5.182   5.585   6.538 -0.0318  0.4789  0.0696
  148SAPE    C116281   5.222   5.669   6.650 -0.3740  0.3293  0.2069
  148SAPE    HA16282   5.324   5.648   6.688 -0.2370  1.0338  0.2359
  148SAPE    HB16283   5.233   5.775   6.620 -0.4070  0.3149  0.1453
  148SAPE    C216284   5.106   5.671   6.763 -0.5195 -1.0591 -0.7880
  148SAPE    HS16285   5.030   5.738   6.718 -1.1226 -1.7479 -0.8040
  148SAPE   O2116286   5.170   5.722   6.881  0.4482 -0.1002 -0.0160
  148SAPE   C2116287   5.130   5.841   6.921  0.0834  0.0166  0.5821
  148SAPE   O2216288   5.040   5.904   6.869 -0.0384  0.3570  0.4482
  148SAPE   C2216289   5.207   5.895   7.040  0.1823  0.8791  0.1368
  148SAPE   H2R16290   5.225   5.820   7.121  3.6429  0.7602 -0.5578
  148SAPE   H2S16291   5.307   5.932   7.008  1.9143 -1.8570  1.9176
  148SAPE    C316292   5.047   5.527   6.782 -0.9366 -0.6952  0.0144
  148SAPE    HX16293   5.129   5.456   6.803 -0.8430  0.0343  2.4439
  148SAPE    HY16294   5.001   5.508   6.682  2.0831 -0.0280 -1.6290
  148SAPE   O3116295   4.951   5.535   6.888 -0.0416 -0.7004  0.4918
  148SAPE   C3116296   4.984   5.495   7.008  0.3328 -0.1388  0.3163
  148SAPE   O3216297   5.093   5.451   7.036  0.5740 -0.1796 -0.2016
  148SAPE   C3216298   4.857   5.513   7.106 -0.4879 -0.0623  0.8790
  148SAPE   H2X16299   4.827   5.409   7.128  0.4728 -0.2225  1.4926
  148SAPE   H2Y16300   4.777   5.564   7.049 -1.0854 -0.5292  1.2924
  148SAPE   C2316301   5.134   6.019   7.099 -0.2418  0.1978 -0.0421
  148SAPE   H3R16302   5.035   5.989   7.138  0.7940 -0.9598  1.7989
  148SAPE   H3S16303   5.113   6.085   7.011  1.1107 -0.3782 -0.8408
  148SAPE   C2416304   5.216   6.084   7.208 -1.0303 -0.2649  0.1501
  148SAPE   H4R16305   5.318   6.120   7.182 -1.2563 -0.0806 -0.4733
  148SAPE   H4S16306   5.222   6.007   7.288  1.9225  0.1350  0.4119
  148SAPE   C2516307   5.156   6.219   7.251 -0.3040  0.1906  0.0469
  148SAPE   H5R16308   5.149   6.293   7.170  0.7465  1.0690  0.7365
  148SAPE   C2616309   5.108   6.247   7.377 -0.1226 -0.1460  0.6503
  148SAPE   H6R16310   5.074   6.350   7.395 -1.5580 -0.6594  1.0061
  148SAPE   C2716311   5.091   6.149   7.488 -0.0509 -0.0062  0.2598
  148SAPE   H7R16312   5.121   6.045   7.461  0.2325 -0.4817  2.2237
  148SAPE   H7S16313   4.985   6.145   7.523 -0.0803  3.5020  0.9024
  148SAPE   C2816314   5.179   6.180   7.600 -0.0000 -0.2418  0.9639
  148SAPE   H8R16315   5.280   6.205   7.566 -0.1701 -0.4592  0.2895
  148SAPE   C2916316   5.151   6.173   7.737 -0.4625  0.1281 -0.2207
  148SAPE   H9R16317   5.227   6.202   7.811 -1.8282  2.6882  0.2992
  148SAPE  C21016318   5.022   6.130   7.802 -0.4376 -0.8051  0.3297
  148SAPE  H10R16319   5.059   6.054   7.874 -1.2270 -2.8809 -1.3689
  148SAPE  H10S16320   4.949   6.065   7.751 -2.1324  0.9908  0.3517
  148SAPE  C21116321   4.941   6.231   7.884 -0.3467  0.4679  0.4550
  148SAPE  H11R16322   4.891   6.308   7.824 -0.4093  0.1546  0.0986
  148SAPE  C21216323   4.931   6.225   8.017  0.1925  0.3723 -0.4600
  148SAPE  H12R16324   4.870   6.297   8.075  0.0872 -0.3949  0.3985
  148SAPE  C21316325   5.004   6.120   8.105 -0.5825  0.0000  0.7564
  148SAPE  H13R16326   5.105   6.099   8.064 -0.4250  1.2612  0.4570
  148SAPE  H13S16327   4.954   6.021   8.096 -2.4607  1.0314 -0.8080
  148SAPE  C21416328   5.017   6.153   8.249  0.3042 -0.2960 -0.7448
  148SAPE  H14R16329   5.111   6.207   8.270  1.6245 -2.4706 -0.6769
  148SAPE  C21516330   4.928   6.125   8.350  0.3962  0.5552  0.7949
  148SAPE  H15R16331   4.964   6.163   8.446  1.2281 -2.1362  1.6392
  148SAPE  C21616332   4.791   6.064   8.341  0.3716  0.3939 -0.5630
  148SAPE  H16R16333   4.786   5.977   8.410 -0.9337  0.0545 -1.0526
  148SAPE  H16S16334   4.780   6.020   8.240  0.6299 -1.7742  0.3029
  148SAPE  C21716335   4.681   6.156   8.393  0.4333  0.0846  0.9041
  148SAPE  H17R16336   4.588   6.116   8.347  0.0365  1.9674 -0.0477
  148SAPE  H17S16337   4.698   6.254   8.344 -0.2651 -1.4006 -2.6879
  148SAPE  C21816338   4.684   6.177   8.543  0.1983  0.1654  0.3106
  148SAPE  H18R16339   4.787   6.208   8.570  0.6667 -0.4543 -0.7106
  148SAPE  H18S16340   4.655   6.080   8.589  0.9218 -0.5357 -0.6574
  148SAPE  C21916341   4.571   6.272   8.594 -0.6302 -0.3929  0.3617
  148SAPE  H19R16342   4.584   6.376   8.558 -1.0590 -0.8295 -1.1503
  148SAPE  H19S16343   4.565   6.285   8.704  0.2911 -0.0735  0.3806
  148SAPE  C22016344   4.435   6.229   8.552 -0.5448 -0.3656  0.4933
  148SAPE  H20R16345   4.425   6.229   8.442 -0.6315 -0.0914  0.5008
  148SAPE  H20S16346   4.354   6.299   8.584 -1.5814 -1.2998 -0.0412
  148SAPE  H20T16347   4.402   6.130   8.588 -1.9370  0.0680  0.4914
  148SAPE   C3316348   4.894   5.597   7.225  0.8302  0.3652  0.9007
  148SAPE   H3X16349   4.924   5.698   7.190  0.2927 -0.4178 -2.0283
  148SAPE   H3Y16350   4.981   5.565   7.286 -0.0506  0.0758  2.0484
  148SAPE   C3416351   4.778   5.612   7.323 -0.4473 -0.0455 -0.7764
  148SAPE   H4X16352   4.765   5.529   7.395 -2.0541  1.6590  1.0304
  148SAPE   H4Y16353   4.676   5.612   7.279 -1.4930  0.6969  1.4990
  148SAPE   C3516354   4.796   5.731   7.414  0.4290 -0.1877 -0.1622
  148SAPE   H5X16355   4.757   5.827   7.373  1.3480  0.3288  0.1436
  148SAPE   H5Y16356   4.904   5.738   7.439  0.3458  2.3487 -0.2257
  148SAPE   C3616357   4.725   5.707   7.549  0.2485 -0.4974 -0.8064
  148SAPE   H6X16358   4.734   5.605   7.592  1.9236  0.2046  0.6004
  148SAPE   H6Y16359   4.615   5.720   7.534  0.1783  0.7306  0.5173
  148SAPE   C3716360   4.754   5.800   7.664  0.4598  0.2530 -0.3564
  148SAPE   H7X16361   4.724   5.902   7.632 -0.7686 -0.3022 -1.0398
  148SAPE   H7Y16362   4.864   5.789   7.677  0.9164 -1.2799 -4.1045
  148SAPE   C3816363   4.673   5.759   7.784 -0.3870 -0.0494 -0.1787
  148SAPE   H8X16364   4.663   5.649   7.771 -0.0534 -0.0129 -0.8078
  148SAPE   H8Y16365   4.575   5.810   7.775  0.0834  1.3238  1.8664
  148SAPE   C3916366   4.739   5.802   7.921  0.0892 -0.1904  0.3636
  148SAPE   H9X16367   4.749   5.912   7.913  1.0261 -0.4155 -2.4591
  148SAPE   H9Y16368   4.843   5.764   7.921  0.1180 -0.6656 -4.4378
  148SAPE  C31016369   4.665   5.764   8.050  0.4657 -0.0189  0.0009
  148SAPE  H10X16370   4.559   5.794   8.051  0.4217 -0.1474  2.0442
  148SAPE  H10Y16371   4.709   5.826   8.131 -0.3123  0.7408 -0.1492
  148SAPE  C31116372   4.685   5.622   8.099 -0.3054  0.6414 -0.1444
  148SAPE  H11X16373   4.778   5.606   8.157  0.4495 -0.9319 -1.6922
  148SAPE  H11Y16374   4.684   5.561   8.006 -1.9243  0.5611 -0.1138
  148SAPE  C31216375   4.568   5.579   8.192  0.4547 -0.0430  0.2147
  148SAPE  H12X16376   4.468   5.600   8.147 -0.0182  0.8846  1.6022
  148SAPE  H12Y16377   4.568   5.640   8.285 -0.2606  0.8524 -0.3551
  148SAPE  C31316378   4.575   5.425   8.230 -0.6141  0.3592  0.9067
  148SAPE  H13X16379   4.675   5.410   8.276  0.0446 -0.5276 -0.7138
  148SAPE  H13Y16380   4.571   5.361   8.139 -2.3222  3.0989 -1.0949
  148SAPE  C31416381   4.466   5.385   8.324  0.1512  1.3008  0.5375
  148SAPE  H14X16382   4.368   5.398   8.273 -0.4256  2.0041  1.7912
  148SAPE  H14Y16383   4.462   5.444   8.418  2.4779  1.0336  0.8702
  148SAPE  C31516384   4.480   5.238   8.374 -0.3461  0.1627  0.0309
  148SAPE  H15X16385   4.400   5.208   8.445  0.2415  0.9683  1.0497
  148SAPE  H15Y16386   4.563   5.232   8.447  0.0933  0.7322 -0.4047
  148SAPE  C31616387   4.476   5.124   8.266  0.6337 -0.3219 -0.2902
  148SAPE  H16X16388   4.532   5.040   8.313 -1.5498 -2.5143 -1.3673
  148SAPE  H16Y16389   4.533   5.160   8.178 -1.9198  4.1259 -0.4380
  148SAPE  C31716390   4.346   5.075   8.213  0.4001 -0.0694 -0.0691
  148SAPE  H17X16391   4.294   5.164   8.172 -0.0615  0.5752  1.8100
  148SAPE  H17Y16392   4.293   5.050   8.307  0.8841  0.8568  0.4598
  148SAPE  C31816393   4.353   4.961   8.112  0.1473  0.0203  0.6838
  148SAPE  H18X16394   4.254   4.920   8.087  0.3502  0.3952 -0.8140
  148SAPE  H18Y16395   4.413   4.884   8.166 -0.7221 -1.9115 -0.9941
  148SAPE  H18Z16396   4.409   4.989   8.021 -2.2371 -2.3814 -1.6944
  149SAPE     N16397   5.088   6.032   6.219 -0.4377  0.3881 -0.5019
  149SAPE   HN116398   5.156   5.957   6.243  1.4650  2.6474  1.7030
  149SAPE   HN216399   5.000   5.989   6.184 -0.6864 -2.5962  3.0915
  149SAPE   HN316400   5.128   6.080   6.136  0.3876 -1.7263 -1.4160
  149SAPE   C1216401   5.050   6.117   6.335  0.1461 -0.0755  0.1810
  149SAPE  H12A16402   5.150   6.141   6.378  0.1875 -0.4596  0.3080
  149SAPE  H12B16403   4.995   6.049   6.404  0.3922  1.5972  2.1306
  149SAPE   C1116404   4.968   6.246   6.292 -0.7397  0.0661  0.0480
  149SAPE  H11A16405   4.944   6.300   6.387  2.9136 -1.1116  1.8175
  149SAPE  H11B16406   4.873   6.216   6.243 -0.6770 -0.9183  0.5048
  149SAPE     P16407   5.153   6.428   6.228  0.4581  0.2920 -0.3524
  149SAPE   O1316408   5.275   6.361   6.280 -0.2556  0.2162 -0.4927
  149SAPE   O1416409   5.152   6.525   6.124 -0.2034 -0.2615  0.5534
  149SAPE   O1216410   5.040   6.320   6.196  0.3211  0.0871 -0.3823
  149SAPE   O1116411   5.095   6.503   6.357 -0.2071  0.3306  0.5212
  149SAPE    C116412   5.200   6.552   6.450  0.3778 -0.1864  0.1165
  149SAPE    HA16413   5.304   6.571   6.415  0.4570 -0.6250  0.1051
  149SAPE    HB16414   5.167   6.647   6.496  0.9713 -0.9305  2.1670
  149SAPE    C216415   5.215   6.444   6.562 -0.3431 -0.1474 -0.4348
  149SAPE    HS16416   5.249   6.351   6.511 -0.4909 -1.6356  2.0243
  149SAPE   O2116417   5.085   6.428   6.622 -0.0696 -0.7583  0.2282
  149SAPE   C2116418   5.081   6.309   6.680 -0.4586 -0.7040 -0.7745
  149SAPE   O2216419   5.170   6.221   6.674  0.2325 -0.0359  0.6674
  149SAPE   C2216420   4.953   6.292   6.752  0.5175 -0.4612 -0.1851
  149SAPE   H2R16421   4.868   6.341   6.700  0.8760  0.5240  0.1179
  149SAPE   H2S16422   4.928   6.184   6.753 -0.7397 -0.1825  0.1326
  149SAPE    C316423   5.321   6.469   6.677  0.0082  0.3183  0.3178
  149SAPE    HX16424   5.417   6.475   6.622 -0.9742 -3.4799 -2.2354
  149SAPE    HY16425   5.336   6.373   6.730 -1.2393  0.0288  0.1863
  149SAPE   O3116426   5.288   6.582   6.761  0.1150  0.1506 -0.1059
  149SAPE   C3116427   5.272   6.548   6.888  0.4421 -0.3942 -0.3136
  149SAPE   O3216428   5.274   6.438   6.940  0.4162  0.6854 -0.0877
  149SAPE   C3216429   5.250   6.682   6.967 -0.7784 -0.0765  0.3135
  149SAPE   H2X16430   5.233   6.763   6.893  2.6820  0.4128 -0.1133
  149SAPE   H2Y16431   5.348   6.710   7.012 -1.1240 -1.2525  1.8599
  149SAPE   C2316432   4.964   6.340   6.897  0.0975 -0.0415 -0.5264
  149SAPE   H3R16433   4.988   6.447   6.881  0.0920 -0.1485 -1.2956
  149SAPE   H3S16434   5.054   6.296   6.945  2.6323  0.5722 -4.2769
  149SAPE   C2416435   4.838   6.326   6.988  0.2013  0.4224  0.5858
  149SAPE   H4R16436   4.753   6.364   6.927  1.8823 -1.9952 -3.7768
  149SAPE   H4S16437   4.856   6.406   7.063 -0.7962  1.8514 -0.6379
  149SAPE   C2516438   4.832   6.179   7.036  0.1512 -0.8828  0.0403
  149SAPE   H5R16439   4.888   6.107   6.976  0.5113 -0.2526 -0.3879
  149SAPE   C2616440   4.758   6.130   7.139 -0.0653 -0.1153 -0.8437
  149SAPE   H6R16441   4.761   6.026   7.174 -1.2776  0.5340  1.4203
  149SAPE   C2716442   4.667   6.221   7.225 -0.8072 -0.1608  0.3204
  149SAPE   H7R16443   4.570   6.172   7.247 -1.3871  0.9285  0.2329
  149SAPE   H7S16444   4.638   6.312   7.168  0.6137  0.7315  0.9433
  149SAPE   C2816445   4.755   6.272   7.331 -0.3212 -0.0540 -0.1095
  149SAPE   H8R16446   4.855   6.311   7.306 -0.1403  1.1761  2.3226
  149SAPE   C2916447   4.724   6.276   7.461  0.0252  0.0519  0.2731
  149SAPE   H9R16448   4.798   6.319   7.530 -2.2208  2.7253  1.2044
  149SAPE  C21016449   4.593   6.226   7.521  0.6796  0.7380 -0.1888
  149SAPE  H10R16450   4.604   6.122   7.557 -4.2155  0.5187  1.4673
  149SAPE  H10S16451   4.510   6.235   7.447  1.1352  0.1962 -0.7807
  149SAPE  C21116452   4.532   6.304   7.635 -0.1556 -0.0618  0.2741
  149SAPE  H11R16453   4.511   6.409   7.609  0.3001 -0.4731 -2.0215
  149SAPE  C21216454   4.505   6.270   7.765  0.7031 -0.1471  0.8193
  149SAPE  H12R16455   4.454   6.343   7.829 -0.4563  0.7756 -1.0461
  149SAPE  C21316456   4.524   6.135   7.831 -0.5506  0.0129 -0.1849
  149SAPE  H13R16457   4.535   6.155   7.939  3.9666 -1.2584 -0.1915
  149SAPE  H13S16458   4.618   6.081   7.804 -2.1730 -2.5065 -1.2044
  149SAPE  C21416459   4.410   6.038   7.811 -0.0733  0.6968  0.0724
  149SAPE  H14R16460   4.409   6.006   7.705 -0.5576  1.3486 -0.1289
  149SAPE  C21516461   4.331   5.984   7.903  1.1804 -0.2307  0.4536
  149SAPE  H15R16462   4.248   5.923   7.866  0.6853  1.2134 -0.8884
  149SAPE  C21616463   4.340   6.013   8.052 -0.1689  0.5616 -0.3108
  149SAPE  H16R16464   4.341   6.122   8.076  0.6524  0.7587 -1.1507
  149SAPE  H16S16465   4.432   5.967   8.093 -0.6811 -1.7434 -1.6264
  149SAPE  C21716466   4.208   5.957   8.109 -0.1109 -0.7714  0.4117
  149SAPE  H17R16467   4.193   5.853   8.073 -0.7317  0.1879 -2.3377
  149SAPE  H17S16468   4.125   6.014   8.062  1.0640 -1.4030 -2.6938
  149SAPE  C21816469   4.207   5.949   8.260 -0.7554 -0.9517  0.2405
  149SAPE  H18R16470   4.106   5.918   8.294 -0.4821 -0.7750  1.2587
  149SAPE  H18S16471   4.219   6.052   8.301 -1.7007  1.0628 -3.9550
  149SAPE  C21916472   4.315   5.853   8.321 -0.2510 -0.0494  0.0817
  149SAPE  H19R16473   4.409   5.903   8.290  0.1489 -1.6438 -1.4859
  149SAPE  H19S16474   4.316   5.754   8.269  0.9113  1.5980 -3.3548
  149SAPE  C22016475   4.311   5.836   8.468 -0.1466  0.8788 -0.3582
  149SAPE  H20R16476   4.296   5.934   8.519 -2.5950 -0.3355  1.4836
  149SAPE  H20S16477   4.392   5.772   8.511 -2.4014 -0.1496  2.7503
  149SAPE  H20T16478   4.221   5.776   8.493 -0.4212  1.5886  0.4161
  149SAPE   C3316479   5.134   6.673   7.068  0.8250  0.2209 -0.4244
  149SAPE   H3X16480   5.052   6.614   7.023  0.3612  0.7994 -0.3466
  149SAPE   H3Y16481   5.090   6.774   7.080 -0.7059 -0.5457  0.8353
  149SAPE   C3416482   5.176   6.619   7.203  0.6653 -0.4703 -0.6554
  149SAPE   H4X16483   5.275   6.665   7.226 -0.6319  1.9952  0.3146
  149SAPE   H4Y16484   5.196   6.510   7.206 -0.3768 -0.6885 -1.1228
  149SAPE   C3516485   5.088   6.659   7.321  0.2737  0.1525  0.2434
  149SAPE   H5X16486   4.993   6.602   7.312  1.3563 -1.8204  0.6624
  149SAPE   H5Y16487   5.063   6.767   7.324 -0.2394  0.0982 -1.1666
  149SAPE   C3616488   5.150   6.628   7.461  0.2881  0.2275  0.6693
  149SAPE   H6X16489   5.237   6.694   7.481  0.1053  1.2299 -1.5393
  149SAPE   H6Y16490   5.184   6.523   7.469 -2.9688 -0.9171  0.8949
  149SAPE   C3716491   5.044   6.643   7.577 -0.6744  0.6759  0.7251
  149SAPE   H7X16492   4.972   6.560   7.561  0.5499  0.0202 -2.0421
  149SAPE   H7Y16493   4.993   6.740   7.557  0.6334  0.8698 -2.2342
  149SAPE   C3816494   5.100   6.623   7.721  0.4741  0.4263  0.5717
  149SAPE   H8X16495   5.188   6.690   7.735  0.7032 -0.2469  2.8504
  149SAPE   H8Y16496   5.138   6.521   7.742  1.0611  0.0836 -1.9058
  149SAPE   C3916497   5.002   6.662   7.832  0.2040 -0.9093 -0.4478
  149SAPE   H9X16498   4.903   6.612   7.827 -0.3204 -0.1324  1.4377
  149SAPE   H9Y16499   4.989   6.772   7.825  1.3659 -0.8867 -4.0075
  149SAPE  C31016500   5.052   6.648   7.975 -0.0044  0.3469 -0.4234
  149SAPE  H10X16501   5.130   6.723   7.997 -1.2929  1.9262 -1.0914
  149SAPE  H10Y16502   5.099   6.547   7.984  0.7698  0.7756  0.4665
  149SAPE  C31116503   4.934   6.630   8.078 -0.6381 -0.0070 -0.6153
  149SAPE  H11X16504   4.859   6.558   8.039 -1.8712 -0.1874  1.8456
  149SAPE  H11Y16505   4.888   6.726   8.107 -0.2457 -0.2900  1.0573
  149SAPE  C31216506   4.981   6.573   8.216  0.3310  0.3636  0.7893
  149SAPE  H12X16507   5.061   6.636   8.262 -0.9539  0.4456  3.0596
  149SAPE  H12Y16508   5.033   6.477   8.196  1.1414  1.0097 -0.3242
  149SAPE  C31316509   4.867   6.552   8.311 -0.6124 -0.5976 -0.4013
  149SAPE  H13X16510   4.894   6.472   8.383 -1.8472 -0.2009  0.5346
  149SAPE  H13Y16511   4.781   6.510   8.255 -0.4397 -0.7975 -0.5190
  149SAPE  C31416512   4.834   6.684   8.379 -0.0016  0.1583 -0.5504
  149SAPE  H14X16513   4.798   6.756   8.303  1.3064  0.2480 -1.1185
  149SAPE  H14Y16514   4.927   6.717   8.430 -0.3801  0.5711 -0.1278
  149SAPE  C31516515   4.738   6.653   8.491  0.4309 -0.5175 -0.4361
  149SAPE  H15X16516   4.793   6.613   8.578  1.3282  1.2715 -0.1438
  149SAPE  H15Y16517   4.662   6.574   8.469  1.4498 -1.0016 -2.4583
  149SAPE  C31616518   4.670   6.782   8.542  0.6993 -0.0351 -0.3572
  149SAPE  H16X16519   4.751   6.857   8.528  0.9588  0.4595  2.9178
  149SAPE  H16Y16520   4.649   6.792   8.651 -1.9754 -0.5031 -0.7675
  149SAPE  C31716521   4.561   6.831   8.449  0.5905  0.1918  0.1758
  149SAPE  H17X16522   4.585   6.820   8.341 -3.3958  2.2796 -1.1341
  149SAPE  H17Y16523   4.553   6.939   8.471 -0.6685 -0.1236  1.4307
  149SAPE  C31816524   4.424   6.757   8.482  0.0947  0.1412  0.5687
  149SAPE  H18X16525   4.343   6.821   8.443 -0.1987  0.5039  1.7250
  149SAPE  H18Y16526   4.411   6.754   8.593 -6.0381 -0.1457  0.2051
  149SAPE  H18Z16527   4.418   6.664   8.421 -2.0257 -0.4922  1.6448
  150SAPE     N16528   5.401   0.093   6.312 -0.1466  0.7440  0.2625
  150SAPE   HN116529   5.329   0.144   6.367 -1.0803 -0.4141  0.1764
  150SAPE   HN216530   5.357   0.022   6.250 -1.5967  1.7259  0.1159
  150SAPE   HN316531   5.467   0.047   6.378 -0.6033  0.9033  0.8402
  150SAPE   C1216532   5.482   0.186   6.224 -0.0926  0.1760 -0.7971
  150SAPE  H12A16533   5.477   0.285   6.272 -0.9354 -1.1006  1.9437
  150SAPE  H12B16534   5.432   0.201   6.126 -0.0712 -0.9706 -1.0000
  150SAPE   C1116535   5.628   0.144   6.189 -0.1204  0.2673  0.4116
  150SAPE  H11A16536   5.683   0.209   6.117 -0.1805 -0.7411 -0.5765
  150SAPE  H11B16537   5.610   0.049   6.134 -1.7774  0.7010  0.1260
  150SAPE     P16538   5.762   0.212   6.400  0.5290 -0.1150  0.2194
  150SAPE   O1316539   5.816   0.316   6.309 -0.1874  0.5786 -0.3092
  150SAPE   O1416540   5.659   0.254   6.502  0.0234  0.4980 -0.0179
  150SAPE   O1216541   5.702   0.107   6.306  0.2307  0.5390  0.4603
  150SAPE   O1116542   5.880   0.125   6.469 -0.0557 -0.1603  0.2511
  150SAPE    C116543   5.854   0.018   6.562 -0.3250 -0.1139 -0.6640
  150SAPE    HA16544   5.772  -0.049   6.528 -0.3655 -0.3834 -0.0656
  150SAPE    HB16545   5.953  -0.027   6.589 -0.9607 -1.4849 -0.5012
  150SAPE    C216546   5.804   0.080   6.702 -0.3601  0.1629 -0.8331
  150SAPE    HS16547   5.705   0.127   6.688 -0.6404  0.1433  0.8447
  150SAPE   O2116548   5.896   0.174   6.745  0.5987 -0.3491 -0.5775
  150SAPE   C2116549   5.853   0.280   6.812 -0.2705 -0.6060  0.3382
  150SAPE   O2216550   5.737   0.316   6.829  0.7139 -0.6014  0.1111
  150SAPE   C2216551   5.978   0.354   6.859  0.3095  0.0287  0.2357
  150SAPE   H2R16552   6.060   0.281   6.877 -0.0534 -0.1708  1.1191
  150SAPE   H2S16553   6.017   0.418   6.777 -0.1326 -1.3040 -1.0686
  150SAPE    C316554   5.793  -0.034   6.817  0.8229  0.0670  0.1103
  150SAPE    HX16555   5.901  -0.059   6.824  1.2971  1.4160 -1.6038
  150SAPE    HY16556   5.731  -0.118   6.780  0.0897 -0.7597  2.9738
  150SAPE   O3116557   5.748   0.014   6.950  0.1580  0.6427 -0.0686
  150SAPE   C3116558   5.622   0.035   6.959  0.0156 -0.3206 -0.3460
  150SAPE   O3216559   5.540   0.038   6.870  0.1628 -0.1083  0.1077
  150SAPE   C3216560   5.598   0.076   7.108  0.1581  0.2546  0.5020
  150SAPE   H2X16561   5.521   0.156   7.111  2.0692  2.2669 -0.8627
  150SAPE   H2Y16562   5.689   0.127   7.147 -0.5410  2.3565 -0.4435
  150SAPE   C2316563   5.959   0.440   6.985 -0.0460  0.1753 -0.4425
  150SAPE   H3R16564   5.894   0.528   6.962  1.7808  2.3197  1.9754
  150SAPE   H3S16565   6.053   0.490   7.017 -0.3299  0.1033  0.5241
  150SAPE   C2416566   5.912   0.371   7.118  0.0089  0.1223 -0.1513
  150SAPE   H4R16567   5.815   0.318   7.111 -0.1956  0.4959 -0.1116
  150SAPE   H4S16568   5.897   0.460   7.182  1.3047  1.4436 -1.5921
  150SAPE   C2516569   6.008   0.271   7.178  0.2661 -0.2942  0.7028
  150SAPE   H5R16570   6.026   0.180   7.118  1.2706  0.8982 -0.8737
  150SAPE   C2616571   6.064   0.273   7.296  0.3803 -0.1565  0.0826
  150SAPE   H6R16572   6.141   0.198   7.320  0.4195 -0.0311  0.3507
  150SAPE   C2716573   6.059   0.389   7.397 -0.5938 -0.7169  0.2126
  150SAPE   H7R16574   6.033   0.487   7.350  1.1651 -0.4881 -0.3498
  150SAPE   H7S16575   6.161   0.413   7.434 -0.6885  0.1238 -0.0404
  150SAPE   C2816576   5.968   0.362   7.509 -0.1052 -0.2341  0.3003
  150SAPE   H8R16577   5.870   0.322   7.480 -0.8433  0.3016  1.9784
  150SAPE   C2916578   5.987   0.377   7.641 -0.6349 -0.6954 -0.4394
  150SAPE   H9R16579   5.904   0.364   7.713 -0.7017 -1.2827 -0.6139
  150SAPE  C21016580   6.114   0.434   7.706 -0.1745  0.3218  0.7975
  150SAPE  H10R16581   6.148   0.527   7.655 -2.3817  1.8267  1.8719
  150SAPE  H10S16582   6.196   0.362   7.691  0.1722  1.0957 -1.2924
  150SAPE  C21116583   6.092   0.493   7.845  0.0147  0.0763  0.5074
  150SAPE  H11R16584   6.028   0.582   7.844 -1.1649 -0.7421  0.0518
  150SAPE  C21216585   6.147   0.453   7.957  0.0223  0.1881 -0.9385
  150SAPE  H12R16586   6.121   0.503   8.052  2.1354  2.5834 -1.5148
  150SAPE  C21316587   6.246   0.345   7.973  0.0632 -0.7482 -0.0383
  150SAPE  H13R16588   6.290   0.324   7.873 -0.4373  1.4096 -0.7764
  150SAPE  H13S16589   6.192   0.250   7.992 -3.8362  1.2524 -0.1010
  150SAPE  C21416590   6.344   0.377   8.077  0.2487  0.1364  0.4858
  150SAPE  H14R16591   6.408   0.464   8.058 -1.9531  1.6801 -0.2910
  150SAPE  C21516592   6.351   0.310   8.191  0.6290  0.1326  0.4090
  150SAPE  H15R16593   6.427   0.344   8.262  0.5177  0.1882  0.5030
  150SAPE  C21616594   6.267   0.191   8.234  0.0551  0.5397  0.1513
  150SAPE  H16R16595   6.233   0.129   8.148  0.7196  1.2624 -0.6516
  150SAPE  H16S16596   6.177   0.242   8.274  0.7496  1.1483  0.9674
  150SAPE  C21716597   6.331   0.101   8.341 -0.0182 -0.3974  0.4338
  150SAPE  H17R16598   6.431   0.078   8.297  0.3719  1.7511  0.1041
  150SAPE  H17S16599   6.282   0.004   8.362  0.4951 -0.4628  1.3862
  150SAPE  C21816600   6.353   0.164   8.488  0.3109  0.0374 -0.3429
  150SAPE  H18R16601   6.255   0.205   8.522  0.8471  0.0814  1.2342
  150SAPE  H18S16602   6.429   0.246   8.495 -0.5436  0.6921  2.6917
  150SAPE  C21916603   6.390   0.040   8.582  0.7052 -0.3304  0.3630
  150SAPE  H19R16604   6.473  -0.015   8.531  0.5414  1.2818 -1.7865
  150SAPE  H19S16605   6.296  -0.019   8.583 -0.8611  2.0404  0.8210
  150SAPE  C22016606   6.439   0.090   8.718 -0.4878 -0.3954  0.0863
  150SAPE  H20R16607   6.545   0.120   8.725 -0.8501  0.9995 -0.1811
  150SAPE  H20S16608   6.434   0.005   8.789  0.2873 -1.4061 -1.0275
  150SAPE  H20T16609   6.368   0.162   8.764 -1.9064 -1.5335 -0.2158
  150SAPE   C3316610   5.558  -0.044   7.191 -0.4479  0.2599 -0.6575
  150SAPE   H3X16611   5.652  -0.097   7.219  0.8176  2.3822 -0.6215
  150SAPE   H3Y16612   5.495  -0.118   7.138 -2.1119 -0.4246  2.0800
  150SAPE   C3416613   5.483  -0.000   7.319  0.2034  0.2079 -0.5508
  150SAPE   H4X16614   5.457  -0.094   7.373  2.1463 -0.3336 -0.4759
  150SAPE   H4Y16615   5.386   0.048   7.295 -0.8872 -0.5090  2.0290
  150SAPE   C3516616   5.559   0.093   7.418  1.1861 -0.2829 -0.0504
  150SAPE   H5X16617   5.562   0.196   7.379  0.7784 -0.7108 -1.2695
  150SAPE   H5Y16618   5.663   0.055   7.424  0.9613 -0.9174 -0.0286
  150SAPE   C3616619   5.505   0.086   7.564  0.4685 -0.2155 -0.5792
  150SAPE   H6X16620   5.541  -0.012   7.604  0.7218  0.4471  0.8602
  150SAPE   H6Y16621   5.395   0.092   7.578  0.6241 -0.8517  1.1457
  150SAPE   C3716622   5.557   0.192   7.661 -0.3390 -0.6660 -0.0461
  150SAPE   H7X16623   5.514   0.291   7.636 -1.0955 -0.8871  0.3494
  150SAPE   H7Y16624   5.667   0.193   7.647 -0.5585 -0.4868 -1.9883
  150SAPE   C3816625   5.537   0.140   7.804 -0.0824 -0.9610  0.1602
  150SAPE   H8X16626   5.583   0.040   7.815 -2.1187 -1.9618  0.0189
  150SAPE   H8Y16627   5.429   0.132   7.832 -0.8920 -1.1858 -2.7109
  150SAPE   C3916628   5.594   0.233   7.904  0.5228  0.3025 -0.3360
  150SAPE   H9X16629   5.527   0.322   7.906 -1.3413 -1.0025  2.0392
  150SAPE   H9Y16630   5.697   0.267   7.878  1.8568 -2.7736  0.5260
  150SAPE  C31016631   5.587   0.171   8.047 -0.0732  0.3159 -0.0265
  150SAPE  H10X16632   5.639   0.074   8.038 -0.8281 -0.2612  1.4678
  150SAPE  H10Y16633   5.482   0.144   8.067  0.5810 -2.1149  0.4113
  150SAPE  C31116634   5.650   0.247   8.165 -0.1079 -0.6657  0.1651
  150SAPE  H11X16635   5.760   0.255   8.168 -0.1061 -0.8839  0.7632
  150SAPE  H11Y16636   5.621   0.180   8.249  1.2442 -1.0097  0.3797
  150SAPE  C31216637   5.578   0.385   8.175  0.3214 -0.7085  0.1167
  150SAPE  H12X16638   5.473   0.371   8.141  0.6630 -2.8393 -0.2221
  150SAPE  H12Y16639   5.629   0.452   8.103  1.0114 -2.1595 -0.7878
  150SAPE  C31316640   5.589   0.456   8.308  0.3063  0.0796  0.4988
  150SAPE  H13X16641   5.524   0.408   8.384  1.1514 -1.7484  0.1202
  150SAPE  H13Y16642   5.559   0.563   8.305  0.8656  0.2418  0.4671
  150SAPE  C31416643   5.729   0.452   8.376 -0.2265  0.1079  0.7309
  150SAPE  H14X16644   5.803   0.499   8.307  1.2312  1.9001  3.3701
  150SAPE  H14Y16645   5.754   0.344   8.390 -0.3108  0.0394  0.3607
  150SAPE  C31516646   5.721   0.539   8.500  1.5398 -0.5005  0.7479
  150SAPE  H15X16647   5.627   0.511   8.554 -0.4852  1.9115 -1.2960
  150SAPE  H15Y16648   5.692   0.641   8.468  0.6771  0.1301  3.3252
  150SAPE  C31616649   5.837   0.536   8.594 -0.5546 -0.6665  0.3710
  150SAPE  H16X16650   5.932   0.549   8.538 -1.1675  1.1988 -0.3071
  150SAPE  H16Y16651   5.839   0.432   8.634  0.3504 -1.1899 -0.9559
  150SAPE  C31716652   5.811   0.642   8.702 -0.1260 -0.2564 -0.4879
  150SAPE  H17X16653   5.882   0.616   8.783 -1.7150  0.3944  1.1869
  150SAPE  H17Y16654   5.710   0.625   8.746  0.1783 -1.0779 -0.0881
  150SAPE  C31816655   5.827   0.787   8.664 -0.3927 -0.4004  0.3634
  150SAPE  H18X16656   5.748   0.810   8.589 -0.5580  0.1621  0.7048
  150SAPE  H18Y16657   5.926   0.813   8.621 -1.4846  2.5851 -0.5277
  150SAPE  H18Z16658   5.820   0.856   8.751  3.1378  0.1414  0.3560
  151SAPE     N16659   1.943   3.252   6.210  0.3926 -1.0237 -0.7523
  151SAPE   HN116660   1.956   3.151   6.191  0.5898 -1.0509 -0.4717
  151SAPE   HN216661   1.867   3.279   6.276 -0.5301  0.3975 -2.3117
  151SAPE   HN316662   1.909   3.295   6.122  0.2580  1.8526  0.5760
  151SAPE   C1216663   2.058   3.327   6.265  0.5922 -0.3984  0.4854
  151SAPE  H12A16664   2.101   3.385   6.181 -0.7433  0.8375  0.6234
  151SAPE  H12B16665   2.130   3.252   6.305  1.1198 -0.8026 -1.1419
  151SAPE   C1116666   2.019   3.417   6.382 -0.7140  0.3560 -0.1834
  151SAPE  H11A16667   2.104   3.459   6.439  0.4058  0.2716 -1.7164
  151SAPE  H11B16668   1.968   3.342   6.446  2.2024 -2.9703 -1.4321
  151SAPE     P16669   1.854   3.604   6.449  0.2516 -0.0968 -0.2386
  151SAPE   O1316670   1.793   3.721   6.381 -0.3425  0.6499 -0.6559
  151SAPE   O1416671   1.777   3.518   6.536  0.3520  0.2698  0.3838
  151SAPE   O1216672   1.930   3.517   6.336  0.2600  0.3490  0.1479
  151SAPE   O1116673   1.985   3.654   6.525  0.3501  0.5776  0.8483
  151SAPE    C116674   1.995   3.629   6.666 -0.3973  0.1696 -0.6467
  151SAPE    HA16675   1.942   3.539   6.702  0.4861  1.1383  3.6207
  151SAPE    HB16676   2.101   3.604   6.689 -0.6089  0.1662  0.3716
  151SAPE    C216677   1.959   3.748   6.753 -0.2025  0.0626  0.3756
  151SAPE    HS16678   1.871   3.796   6.704  0.1426  0.5715  0.2394
  151SAPE   O2116679   2.068   3.845   6.772  0.0333  0.3651  0.0226
  151SAPE   C2116680   2.081   3.937   6.683  0.3113  0.0938  0.6793
  151SAPE   O2216681   2.007   3.965   6.590  0.0869 -0.6659 -0.9081
  151SAPE   C2216682   2.205   4.014   6.721 -0.7175 -0.1157  0.6016
  151SAPE   H2R16683   2.206   4.049   6.826  1.6506 -0.7193  0.8453
  151SAPE   H2S16684   2.287   3.939   6.721 -0.5332  0.0333 -1.3497
  151SAPE    C316685   1.912   3.709   6.898 -1.4208 -0.4112  0.1126
  151SAPE    HX16686   1.995   3.639   6.924 -0.2834  0.9637  0.3236
  151SAPE    HY16687   1.814   3.659   6.885 -1.5172 -0.3246  0.5169
  151SAPE   O3116688   1.910   3.821   6.982  0.7264  0.0132 -0.1938
  151SAPE   C3116689   2.018   3.859   7.051 -0.0969 -0.1908 -0.2271
  151SAPE   O3216690   2.121   3.795   7.064 -0.0905 -0.1878  0.3776
  151SAPE   C3216691   1.988   3.994   7.128  0.0526 -0.0214  0.1211
  151SAPE   H2X16692   1.914   4.043   7.061  1.5983 -0.3429 -1.9290
  151SAPE   H2Y16693   2.081   4.053   7.132  1.1854 -1.7820  0.8784
  151SAPE   C2316694   2.231   4.138   6.626  0.7184  0.3919 -0.0697
  151SAPE   H3R16695   2.143   4.201   6.601  0.0076 -1.4088 -2.4181
  151SAPE   H3S16696   2.280   4.098   6.536 -0.1778 -2.2876  0.5605
  151SAPE   C2416697   2.333   4.233   6.695  0.0208  0.3811  0.0640
  151SAPE   H4R16698   2.363   4.312   6.622 -1.6366 -0.5723 -1.7405
  151SAPE   H4S16699   2.432   4.184   6.709  1.1864  1.3297 -3.6591
  151SAPE   C2516700   2.289   4.312   6.818  0.1663  0.2821 -1.1729
  151SAPE   H5R16701   2.203   4.380   6.810  0.6398  0.8811 -1.2515
  151SAPE   C2616702   2.329   4.288   6.944 -0.1109  0.0294 -0.7341
  151SAPE   H6R16703   2.292   4.344   7.031 -0.1911  0.4093 -1.0086
  151SAPE   C2716704   2.425   4.177   6.980 -0.0121  0.0410  0.5755
  151SAPE   H7R16705   2.518   4.225   7.018 -0.2724 -0.2102  1.5772
  151SAPE   H7S16706   2.473   4.131   6.891 -1.3830 -1.5401  0.6052
  151SAPE   C2816707   2.379   4.080   7.085  0.4621  0.1989 -0.7201
  151SAPE   H8R16708   2.348   3.980   7.051 -0.4625  0.9604 -2.2294
  151SAPE   C2916709   2.355   4.112   7.216 -0.3803  0.1817 -0.3181
  151SAPE   H9R16710   2.322   4.036   7.289 -2.3121  2.3466  1.1947
  151SAPE  C21016711   2.384   4.240   7.274 -0.1779 -0.1893 -0.5465
  151SAPE  H10R16712   2.433   4.314   7.207  2.4469 -0.0207  1.4134
  151SAPE  H10S16713   2.465   4.228   7.349  0.1507 -0.5816 -0.9614
  151SAPE  C21116714   2.268   4.303   7.356  0.0005  0.2968 -0.0713
  151SAPE  H11R16715   2.178   4.341   7.304 -0.9517 -0.0292  1.3053
  151SAPE  C21216716   2.265   4.310   7.489  0.6968  0.1355 -0.6753
  151SAPE  H12R16717   2.177   4.358   7.533  0.0012 -0.8435 -0.9654
  151SAPE  C21316718   2.370   4.268   7.587 -0.0103 -0.1264 -0.6072
  151SAPE  H13R16719   2.466   4.312   7.555  1.1626 -0.8856  1.6158
  151SAPE  H13S16720   2.359   4.158   7.604 -3.5455  0.1454 -0.3863
  151SAPE  C21416721   2.340   4.332   7.725  0.4380  0.5548  0.0785
  151SAPE  H14R16722   2.236   4.338   7.760  0.0613  0.8002 -1.0500
  151SAPE  C21516723   2.429   4.386   7.810 -0.7284 -0.1290  0.1597
  151SAPE  H15R16724   2.389   4.430   7.903  0.1979  0.1879  0.4184
  151SAPE  C21616725   2.579   4.406   7.790  0.2739 -0.2670 -0.3980
  151SAPE  H16R16726   2.603   4.504   7.837  0.3374 -0.5229  0.1037
  151SAPE  H16S16727   2.610   4.409   7.683  0.3452  0.8771 -0.3579
  151SAPE  C21716728   2.684   4.306   7.854 -0.1028  0.6000 -0.5098
  151SAPE  H17R16729   2.782   4.315   7.803 -0.3139  1.4182 -0.7845
  151SAPE  H17S16730   2.644   4.203   7.840  1.6937  0.2525 -4.9516
  151SAPE  C21816731   2.714   4.334   8.004 -0.0293 -0.2373 -0.9557
  151SAPE  H18R16732   2.613   4.339   8.051 -0.2729 -0.9694 -1.3875
  151SAPE  H18S16733   2.766   4.432   8.014  2.2654 -1.4275 -0.4940
  151SAPE  C21916734   2.804   4.233   8.070  0.5442  0.5338 -0.4109
  151SAPE  H19R16735   2.766   4.133   8.039  2.3057 -1.3475  2.9567
  151SAPE  H19S16736   2.807   4.250   8.180  0.4718 -1.0460 -0.1462
  151SAPE  C22016737   2.955   4.256   8.038 -0.7550 -0.6959  0.0787
  151SAPE  H20R16738   2.971   4.228   7.932  0.0224  1.8915 -0.5693
  151SAPE  H20S16739   2.987   4.359   8.063 -0.2112 -1.1459  1.3557
  151SAPE  H20T16740   3.019   4.186   8.096 -0.6810 -2.3664 -1.9067
  151SAPE   C3316741   1.932   3.965   7.270 -0.1423 -0.5161 -0.0162
  151SAPE   H3X16742   1.847   3.894   7.270  0.5353 -1.4584  2.7153
  151SAPE   H3Y16743   1.899   4.064   7.308  2.0923  1.7762 -3.4450
  151SAPE   C3416744   2.041   3.930   7.373 -0.6868  0.3330 -0.1586
  151SAPE   H4X16745   2.121   4.006   7.376 -0.2813 -0.1210  1.7669
  151SAPE   H4Y16746   2.084   3.832   7.345 -0.4058 -0.0011  1.3280
  151SAPE   C3516747   1.992   3.913   7.519 -0.4313 -0.4424  1.0513
  151SAPE   H5X16748   1.911   3.838   7.532  0.2951 -0.8534  4.0165
  151SAPE   H5Y16749   1.955   4.012   7.553 -1.6445 -0.1055 -1.0798
  151SAPE   C3616750   2.096   3.871   7.625 -0.4126  0.9557  0.0121
  151SAPE   H6X16751   2.175   3.947   7.648 -0.3619  0.2433  2.4764
  151SAPE   H6Y16752   2.149   3.781   7.588  0.2554  1.2926  0.1235
  151SAPE   C3716753   2.032   3.835   7.759 -0.1864  0.1904  0.4252
  151SAPE   H7X16754   2.113   3.790   7.820  0.7035  0.3051 -0.6414
  151SAPE   H7Y16755   1.953   3.758   7.748  0.3563 -0.7728  2.5787
  151SAPE   C3816756   1.973   3.962   7.827 -0.4250 -0.5159  0.4289
  151SAPE   H8X16757   1.900   4.000   7.752  0.3717 -1.3587 -0.8271
  151SAPE   H8Y16758   2.059   4.031   7.842  0.7595 -1.7713 -0.2723
  151SAPE   C3916759   1.913   3.964   7.969 -0.0731  0.2300 -0.5817
  151SAPE   H9X16760   1.985   3.916   8.038  0.5436 -2.0375 -2.6605
  151SAPE   H9Y16761   1.821   3.902   7.970 -0.7055  1.1086  2.0636
  151SAPE  C31016762   1.862   4.099   8.024  0.2768 -0.0982 -0.3416
  151SAPE  H10X16763   1.808   4.155   7.944 -0.0794 -0.1498 -0.1420
  151SAPE  H10Y16764   1.950   4.156   8.061  0.1198 -0.4309  0.5752
  151SAPE  C31116765   1.759   4.082   8.135 -0.4531 -0.0704 -0.0109
  151SAPE  H11X16766   1.777   3.983   8.183  2.4631  0.9522  1.2084
  151SAPE  H11Y16767   1.652   4.093   8.108 -0.9906 -2.6426  0.7696
  151SAPE  C31216768   1.772   4.176   8.260 -0.4133  0.1463  0.6808
  151SAPE  H12X16769   1.695   4.157   8.337 -0.0626  2.4994  1.7059
  151SAPE  H12Y16770   1.761   4.278   8.217  0.4605  0.2635  0.7098
  151SAPE  C31316771   1.908   4.178   8.328 -0.1839 -0.0245 -0.5289
  151SAPE  H13X16772   1.909   4.264   8.398 -0.7497 -1.2576  1.0320
  151SAPE  H13Y16773   1.997   4.170   8.262  1.7043 -1.1939  2.0155
  151SAPE  C31416774   1.927   4.048   8.421 -0.4411  0.3278 -0.0862
  151SAPE  H14X16775   1.924   3.969   8.343  2.9681  0.2446 -0.3064
  151SAPE  H14Y16776   1.843   4.034   8.492  0.5342 -2.2283  0.6726
  151SAPE  C31516777   2.064   4.050   8.494  0.4460 -0.4176  0.3337
  151SAPE  H15X16778   2.078   4.140   8.558  1.8710 -0.2996 -0.1102
  151SAPE  H15Y16779   2.154   4.066   8.432  0.9272  0.5679  1.2550
  151SAPE  C31616780   2.085   3.924   8.582 -0.1363 -0.1525  0.0943
  151SAPE  H16X16781   2.086   3.834   8.517  0.2555  0.5437 -0.8834
  151SAPE  H16Y16782   2.002   3.924   8.656 -0.4866 -2.2434 -0.2280
  151SAPE  C31716783   2.223   3.928   8.652  0.2902  0.2225  0.1389
  151SAPE  H17X16784   2.246   4.034   8.674  1.1114 -0.1113  0.9436
  151SAPE  H17Y16785   2.300   3.897   8.578 -0.9173 -0.3513 -0.9319
  151SAPE  C31816786   2.236   3.844   8.781  0.3433 -0.0168  0.2025
  151SAPE  H18X16787   2.330   3.869   8.835 -0.4599 -0.6334  1.9455
  151SAPE  H18Y16788   2.229   3.736   8.758  1.3091 -0.4267  1.6863
  151SAPE  H18Z16789   2.162   3.860   8.862  0.1438  0.0766  0.0019
  152SAPE     N16790   3.910   1.517   6.442 -0.1377  0.3173  0.6351
  152SAPE   HN116791   3.979   1.498   6.517 -0.2710  2.0006  1.2262
  152SAPE   HN216792   3.900   1.424   6.398  2.0492  1.2719 -2.1359
  152SAPE   HN316793   3.961   1.586   6.384 -2.1518  2.3850  1.1786
  152SAPE   C1216794   3.776   1.558   6.490 -0.0431 -0.5296 -0.4141
  152SAPE  H12A16795   3.738   1.490   6.569 -1.2375  1.8462  1.1812
  152SAPE  H12B16796   3.703   1.554   6.406 -1.9757  2.1404  0.9720
  152SAPE   C1116797   3.784   1.701   6.533 -0.6717  0.7928  0.5607
  152SAPE  H11A16798   3.871   1.715   6.601  0.5565 -0.1055 -0.7583
  152SAPE  H11B16799   3.692   1.736   6.584  1.4495  3.5426  2.8907
  152SAPE     P16800   3.719   1.866   6.334  0.2707 -0.1838 -0.2288
  152SAPE   O1316801   3.758   1.859   6.191  0.8548  0.3007  0.2773
  152SAPE   O1416802   3.585   1.840   6.374  0.1608 -0.3706 -0.2870
  152SAPE   O1216803   3.818   1.783   6.415 -0.2101 -0.0981  0.4299
  152SAPE   O1116804   3.747   2.011   6.391 -0.1455 -0.0163  0.0141
  152SAPE    C116805   3.876   2.057   6.445 -0.0013 -0.2348 -0.6852
  152SAPE    HA16806   3.964   1.992   6.426  0.8402  0.2143  1.3875
  152SAPE    HB16807   3.900   2.158   6.407 -1.1064  0.5420  0.5911
  152SAPE    C216808   3.870   2.070   6.599 -0.1721  0.0919  0.0236
  152SAPE    HS16809   3.855   1.972   6.650 -0.0808 -0.0943 -0.3039
  152SAPE   O2116810   3.776   2.171   6.642 -0.0322  0.2786  0.0840
  152SAPE   C2116811   3.678   2.118   6.713 -0.2585 -0.5399 -0.6105
  152SAPE   O2216812   3.653   2.004   6.741  0.5719 -0.3856  0.6257
  152SAPE   C2216813   3.583   2.235   6.751  0.3067  0.0729 -0.9031
  152SAPE   H2R16814   3.599   2.322   6.684 -1.6620  0.6064 -0.7263
  152SAPE   H2S16815   3.482   2.203   6.721  0.0062  1.1267 -1.0716
  152SAPE    C316816   4.017   2.105   6.648 -0.1129 -0.4997 -0.3891
  152SAPE    HX16817   4.076   2.173   6.583  0.0025 -1.7011 -1.5706
  152SAPE    HY16818   4.071   2.008   6.637 -3.0229 -2.1493 -1.0841
  152SAPE   O3116819   4.019   2.127   6.793 -0.0286  0.6881  0.1784
  152SAPE   C3116820   4.015   2.256   6.827  0.2726 -0.4624 -0.7328
  152SAPE   O3216821   3.999   2.352   6.756  0.3506  0.0501  0.5899
  152SAPE   C3216822   4.044   2.262   6.969  0.4554  0.5326 -1.0114
  152SAPE   H2X16823   4.000   2.358   7.003 -0.1045  0.0870 -0.4439
  152SAPE   H2Y16824   4.154   2.253   6.983  0.0762 -0.7106  1.9802
  152SAPE   C2316825   3.592   2.271   6.902  0.7134  0.0565 -0.2332
  152SAPE   H3R16826   3.509   2.340   6.926 -0.0763 -1.3714  1.3762
  152SAPE   H3S16827   3.675   2.339   6.928  1.6283 -2.2752  3.7552
  152SAPE   C2416828   3.576   2.146   6.995 -0.2457 -0.5360  0.3921
  152SAPE   H4R16829   3.669   2.088   6.981  1.1338  1.7186 -0.2450
  152SAPE   H4S16830   3.483   2.092   6.967  0.1099 -0.1773 -1.6252
  152SAPE   C2516831   3.576   2.198   7.138  0.0158 -0.1201 -0.6607
  152SAPE   H5R16832   3.678   2.218   7.175  1.2831 -0.5323 -3.7018
  152SAPE   C2616833   3.467   2.218   7.222 -0.6473  0.0039 -0.5037
  152SAPE   H6R16834   3.485   2.267   7.319  0.0445 -1.0078 -0.1015
  152SAPE   C2716835   3.324   2.192   7.186  0.3964  0.7470 -0.4966
  152SAPE   H7R16836   3.308   2.092   7.140 -1.6025  1.4897 -1.5892
  152SAPE   H7S16837   3.306   2.258   7.098  0.0570  0.5668 -0.5639
  152SAPE   C2816838   3.215   2.223   7.288 -0.3864 -0.0835 -0.1315
  152SAPE   H8R16839   3.134   2.294   7.264  0.2796  0.5168 -0.6676
  152SAPE   C2916840   3.219   2.183   7.422  0.3709  0.0225 -0.2357
  152SAPE   H9R16841   3.126   2.191   7.480 -0.4795  0.2205 -1.5896
  152SAPE  C21016842   3.323   2.094   7.492 -0.0084 -0.1891 -0.0461
  152SAPE  H10R16843   3.398   2.161   7.539 -0.3694  0.8949 -0.9787
  152SAPE  H10S16844   3.362   2.031   7.410 -2.3107  0.5707 -1.8357
  152SAPE  C21116845   3.265   2.016   7.605  0.2468  0.5588  0.3900
  152SAPE  H11R16846   3.226   1.920   7.568  1.5238 -0.4732  1.5914
  152SAPE  C21216847   3.249   2.043   7.734  0.2913  0.0302  0.3802
  152SAPE  H12R16848   3.198   1.958   7.782 -0.9852 -0.7442 -2.1379
  152SAPE  C21316849   3.295   2.164   7.813 -0.3693 -0.1114 -0.1584
  152SAPE  H13R16850   3.329   2.246   7.747  3.7594  0.0240  1.8635
  152SAPE  H13S16851   3.395   2.141   7.855 -0.4600 -0.4973 -0.1465
  152SAPE  C21416852   3.213   2.216   7.928  0.3870  0.1714  1.0074
  152SAPE  H14R16853   3.134   2.284   7.891  3.1485  2.6434 -0.7942
  152SAPE  C21516854   3.211   2.169   8.052  0.0967  0.1672 -0.7934
  152SAPE  H15R16855   3.140   2.218   8.120  0.5450  2.9101 -2.1746
  152SAPE  C21616856   3.303   2.067   8.118  0.4925  0.1976  0.8349
  152SAPE  H16R16857   3.399   2.117   8.141  0.0972  0.9390  0.8885
  152SAPE  H16S16858   3.329   1.989   8.043 -2.6902 -0.2406  0.0521
  152SAPE  C21716859   3.238   2.000   8.240  0.2083  0.6613 -0.0802
  152SAPE  H17R16860   3.296   1.906   8.251  1.9101  1.2006 -3.2894
  152SAPE  H17S16861   3.132   1.971   8.223  0.0007  0.8742  0.8040
  152SAPE  C21816862   3.251   2.083   8.367 -0.0744 -0.0599 -1.1370
  152SAPE  H18R16863   3.187   2.173   8.359 -3.8572 -2.3517  0.3366
  152SAPE  H18S16864   3.359   2.096   8.389  0.0206 -0.8177 -1.1145
  152SAPE  C21916865   3.205   2.005   8.488 -0.0732  0.6647 -0.2609
  152SAPE  H19R16866   3.237   1.900   8.474  0.5305  0.4879  2.1103
  152SAPE  H19S16867   3.094   2.005   8.494 -0.0732 -1.7994  0.9853
  152SAPE  C22016868   3.261   2.051   8.626  0.1097 -0.2519  0.4695
  152SAPE  H20R16869   3.248   2.161   8.638  2.6289  0.3612 -1.4074
  152SAPE  H20S16870   3.371   2.035   8.629  0.9409  3.9611 -0.2866
  152SAPE  H20T16871   3.216   2.002   8.714 -0.0490 -1.4083 -0.2403
  152SAPE   C3316872   3.987   2.152   7.071  0.0911 -0.1085 -0.0913
  152SAPE   H3X16873   4.048   2.059   7.067 -0.3684 -0.6211  2.7871
  152SAPE   H3Y16874   3.885   2.124   7.037 -1.9322  3.8472  1.9665
  152SAPE   C3416875   3.981   2.208   7.213 -0.2382 -0.2384  0.7451
  152SAPE   H4X16876   3.889   2.270   7.217 -0.1698  0.1556 -2.0836
  152SAPE   H4Y16877   4.061   2.283   7.234 -1.3526  1.7118 -1.5358
  152SAPE   C3516878   3.955   2.089   7.308 -0.3116 -0.6947  0.4930
  152SAPE   H5X16879   4.049   2.029   7.316  0.2690  0.2396  0.8237
  152SAPE   H5Y16880   3.872   2.026   7.271 -1.3215  0.3266  0.9888
  152SAPE   C3616881   3.903   2.109   7.447 -1.1435 -0.4528 -0.2694
  152SAPE   H6X16882   3.976   2.172   7.503 -1.2366  0.8501 -1.5549
  152SAPE   H6Y16883   3.906   2.016   7.507  1.5943  0.1125  0.5961
  152SAPE   C3716884   3.760   2.183   7.458 -0.1624  0.6720 -0.1811
  152SAPE   H7X16885   3.688   2.111   7.415  2.3878 -1.5052 -1.0586
  152SAPE   H7Y16886   3.758   2.269   7.388 -0.0785 -0.3233 -1.4516
  152SAPE   C3816887   3.720   2.234   7.596 -0.8539 -0.3241  0.0421
  152SAPE   H8X16888   3.617   2.273   7.582 -0.1685  2.4634  1.7898
  152SAPE   H8Y16889   3.788   2.319   7.621 -1.0830 -0.2631  0.4687
  152SAPE   C3916890   3.721   2.144   7.720 -0.2316 -0.3260 -0.0796
  152SAPE   H9X16891   3.823   2.104   7.742 -0.0467 -0.4854 -1.1812
  152SAPE   H9Y16892   3.651   2.063   7.695 -0.6203  0.6406 -2.3626
  152SAPE  C31016893   3.672   2.221   7.847  0.0901  0.5166  0.0592
  152SAPE  H10X16894   3.576   2.277   7.846  0.2860  0.8600  0.2869
  152SAPE  H10Y16895   3.742   2.304   7.867  0.9167 -0.0943 -0.2368
  152SAPE  C31116896   3.679   2.135   7.973 -0.1783 -0.5968 -0.1402
  152SAPE  H11X16897   3.619   2.042   7.960 -2.0088 -0.0087  2.9815
  152SAPE  H11Y16898   3.649   2.200   8.058  0.3817 -0.2367 -0.2114
  152SAPE  C31216899   3.825   2.103   8.014 -0.0847  0.4021 -0.3187
  152SAPE  H12X16900   3.877   2.199   7.996  2.5328 -0.8844 -0.0271
  152SAPE  H12Y16901   3.861   2.026   7.942 -0.4295 -0.7194  0.6788
  152SAPE  C31316902   3.850   2.056   8.165  0.6802 -1.1685  0.3918
  152SAPE  H13X16903   3.821   2.140   8.232 -1.1301 -0.7524 -0.8264
  152SAPE  H13Y16904   3.955   2.042   8.196  0.0143 -0.2398  3.4471
  152SAPE  C31416905   3.777   1.922   8.188  0.1096 -0.0426 -0.2552
  152SAPE  H14X16906   3.815   1.856   8.106 -0.1444  0.3785 -0.7195
  152SAPE  H14Y16907   3.669   1.929   8.165  0.5296  2.2332 -1.9632
  152SAPE  C31516908   3.808   1.861   8.317 -0.4920  0.6490 -0.2704
  152SAPE  H15X16909   3.766   1.919   8.402 -0.4387  0.0397  0.1816
  152SAPE  H15Y16910   3.919   1.859   8.329 -0.6211  2.2327  1.7413
  152SAPE  C31616911   3.742   1.720   8.334 -0.4416 -0.6461 -0.5785
  152SAPE  H16X16912   3.788   1.656   8.257  1.4307  0.6647 -0.6150
  152SAPE  H16Y16913   3.635   1.723   8.303 -0.5551 -0.5240 -0.1900
  152SAPE  C31716914   3.777   1.660   8.472  0.3345 -0.0750  0.0347
  152SAPE  H17X16915   3.888   1.662   8.470  0.3660 -1.0165  0.3617
  152SAPE  H17Y16916   3.758   1.550   8.466  1.0667 -0.3532  2.0131
  152SAPE  C31816917   3.713   1.713   8.601 -0.2507 -0.4508 -0.5684
  152SAPE  H18X16918   3.780   1.668   8.677  2.5022 -0.2702 -2.6927
  152SAPE  H18Y16919   3.608   1.682   8.618 -0.3318  0.3195  0.4591
  152SAPE  H18Z16920   3.724   1.824   8.598 -0.0442 -0.4674 -0.4627
  153SAPE     N16921   0.640   1.912   6.295  0.5838 -0.1775  0.0716
  153SAPE   HN116922   0.692   1.996   6.262 -1.9301  1.3055 -0.3808
  153SAPE   HN216923   0.649   1.843   6.218 -1.4293 -1.0330  0.5623
  153SAPE   HN316924   0.540   1.940   6.301  0.7091  0.0109  1.8077
  153SAPE   C1216925   0.692   1.849   6.416 -0.1044 -0.2605  0.7357
  153SAPE  H12A16926   0.723   1.923   6.493 -1.3229 -0.3040  1.2972
  153SAPE  H12B16927   0.785   1.795   6.390 -0.0682  1.0369 -2.1622
  153SAPE   C1116928   0.609   1.730   6.464  0.2140  0.1619 -0.2611
  153SAPE  H11A16929   0.524   1.767   6.525 -0.4774 -0.9237 -0.5331
  153SAPE  H11B16930   0.678   1.666   6.522 -0.0105 -0.1661 -0.3532
  153SAPE     P16931   0.622   1.519   6.301  0.1745  0.0740 -0.2128
  153SAPE   O1316932   0.536   1.468   6.191 -0.5156 -0.3099  0.3600
  153SAPE   O1416933   0.763   1.555   6.267  0.4103  0.0093 -0.6968
  153SAPE   O1216934   0.560   1.650   6.358  0.1387 -0.3199  0.3246
  153SAPE   O1116935   0.636   1.418   6.421 -0.2232  0.2907 -0.1433
  153SAPE    C116936   0.534   1.385   6.510  0.6470  0.5105  0.1679
  153SAPE    HA16937   0.487   1.475   6.556 -1.4877 -0.0894 -0.7460
  153SAPE    HB16938   0.448   1.327   6.472 -0.7628  1.0205  2.3696
  153SAPE    C216939   0.597   1.296   6.625 -0.8193 -0.4019  0.2096
  153SAPE    HS16940   0.515   1.259   6.691 -2.5575  2.8135  0.0357
  153SAPE   O2116941   0.692   1.373   6.700 -0.9033 -0.1394 -0.5181
  153SAPE   C2116942   0.642   1.468   6.771 -0.1371  0.3579 -0.3193
  153SAPE   O2216943   0.523   1.491   6.791  0.0933  0.6026 -0.4965
  153SAPE   C2216944   0.752   1.527   6.856  0.0853  0.4104 -1.0527
  153SAPE   H2R16945   0.840   1.461   6.841  0.2142  0.1771  0.5957
  153SAPE   H2S16946   0.766   1.630   6.818 -1.7202  0.7154 -0.9886
  153SAPE    C316947   0.664   1.174   6.553 -0.2370  0.6846  0.1715
  153SAPE    HX16948   0.755   1.214   6.503  0.0026 -0.9257 -0.7553
  153SAPE    HY16949   0.593   1.133   6.479 -2.0388  2.0148  1.0854
  153SAPE   O3116950   0.711   1.075   6.654 -0.0316  0.5925  0.6400
  153SAPE   C3116951   0.629   0.984   6.685  0.3279  0.0150 -0.7562
  153SAPE   O3216952   0.510   0.976   6.643 -0.6561 -0.6363 -0.2825
  153SAPE   C3216953   0.682   0.886   6.789 -0.0382 -0.6789  0.2877
  153SAPE   H2X16954   0.781   0.850   6.754 -0.1358  0.2409 -0.9948
  153SAPE   H2Y16955   0.614   0.798   6.787 -0.7990 -0.1789  2.1772
  153SAPE   C2316956   0.710   1.537   7.006 -0.5405  0.1075  0.4260
  153SAPE   H3R16957   0.723   1.438   7.053  0.0984  0.4940  1.0832
  153SAPE   H3S16958   0.607   1.577   7.019 -0.8694  0.3855 -2.3893
  153SAPE   C2416959   0.811   1.634   7.078  0.3216  0.5794 -0.9694
  153SAPE   H4R16960   0.764   1.649   7.178 -0.9152  0.0921 -1.4709
  153SAPE   H4S16961   0.806   1.732   7.026 -2.9957  0.2379 -1.4812
  153SAPE   C2516962   0.950   1.572   7.093 -0.8132 -0.4278 -0.2019
  153SAPE   H5R16963   1.005   1.571   6.997 -0.3124  0.1193  0.0748
  153SAPE   C2616964   1.016   1.532   7.205 -0.6444  0.5282 -0.0295
  153SAPE   H6R16965   1.120   1.499   7.193 -1.4123 -1.7454 -0.8487
  153SAPE   C2716966   0.956   1.538   7.348 -0.0919  0.4774  0.0720
  153SAPE   H7R16967   0.879   1.619   7.348 -1.3756 -0.6868 -1.2187
  153SAPE   H7S16968   1.021   1.570   7.432  1.9970 -1.2863 -0.7898
  153SAPE   C2816969   0.882   1.405   7.371 -0.7750 -0.7241 -0.3083
  153SAPE   H8R16970   0.808   1.374   7.297 -0.5405  0.0363 -0.8729
  153SAPE   C2916971   0.886   1.328   7.481 -0.4162  0.2123  0.3993
  153SAPE   H9R16972   0.823   1.238   7.491 -1.4268  1.1403  4.0939
  153SAPE  C21016973   0.962   1.359   7.606  0.5437  0.1206  0.0725
  153SAPE  H10R16974   1.062   1.397   7.578  0.9409 -1.3258 -0.5385
  153SAPE  H10S16975   0.963   1.267   7.668  1.1463  0.4291  0.5240
  153SAPE  C21116976   0.897   1.463   7.692 -0.2448  0.2204 -0.9181
  153SAPE  H11R16977   0.851   1.540   7.628 -1.2474 -1.6046 -2.5171
  153SAPE  C21216978   0.897   1.474   7.825  0.7613  0.5844 -0.6521
  153SAPE  H12R16979   0.856   1.566   7.869  0.5599 -0.5529  1.6681
  153SAPE  C21316980   0.964   1.394   7.934  0.5447 -0.3471  0.0433
  153SAPE  H13R16981   1.049   1.457   7.965  2.0485 -1.2196 -2.0651
  153SAPE  H13S16982   1.011   1.297   7.905  0.7826 -0.3539  0.4557
  153SAPE  C21416983   0.859   1.374   8.044 -0.3599 -0.0384 -0.1038
  153SAPE  H14R16984   0.753   1.370   8.016 -0.0838 -0.4842 -1.1545
  153SAPE  C21516985   0.883   1.386   8.176  0.7612  1.1397 -0.0453
  153SAPE  H15R16986   0.802   1.371   8.249 -0.2743 -0.5387 -1.4452
  153SAPE  C21616987   1.009   1.419   8.247 -0.3662  0.0906 -0.1707
  153SAPE  H16R16988   1.008   1.530   8.247 -1.5219  0.0970  0.3354
  153SAPE  H16S16989   1.100   1.388   8.191 -0.5869 -1.2429  0.1774
  153SAPE  C21716990   1.015   1.376   8.395 -0.6771  0.3462 -0.3880
  153SAPE  H17R16991   0.928   1.418   8.449 -0.0872  1.8521 -0.5462
  153SAPE  H17S16992   1.109   1.413   8.443 -0.8807 -0.4734  0.6939
  153SAPE  C21816993   1.015   1.227   8.424 -0.4147 -0.0423 -0.2457
  153SAPE  H18R16994   0.929   1.170   8.385 -0.2728 -0.0638 -0.5311
  153SAPE  H18S16995   1.014   1.212   8.534  0.7416 -2.0605 -0.4622
  153SAPE  C21916996   1.137   1.158   8.368 -0.4218  0.6461 -0.0113
  153SAPE  H19R16997   1.149   1.183   8.260 -1.5953  0.3750 -0.2156
  153SAPE  H19S16998   1.121   1.049   8.355  0.4170  0.3992  0.9342
  153SAPE  C22016999   1.263   1.166   8.456  0.9104  0.1505  0.2683
  153SAPE  H20R17000   1.296   1.272   8.463  1.8278 -0.0945 -0.1406
  153SAPE  H20S17001   1.343   1.100   8.417  1.2822  0.1513  1.0237
  153SAPE  H20T17002   1.234   1.137   8.559 -2.7612 -1.3597 -1.0077
  153SAPE   C3317003   0.672   0.951   6.923 -0.2015 -0.0814 -0.1815
  153SAPE   H3X17004   0.562   0.962   6.940 -0.4689  0.4574 -2.0574
  153SAPE   H3Y17005   0.731   1.044   6.937 -1.9141  1.1280 -0.7249
  153SAPE   C3417006   0.725   0.861   7.038  0.0816  0.4114  0.7686
  153SAPE   H4X17007   0.821   0.812   7.009  0.7925  2.5983 -0.8379
  153SAPE   H4Y17008   0.658   0.773   7.052  1.0400 -0.0496  2.7304
  153SAPE   C3517009   0.736   0.934   7.170  1.2114 -0.3161 -0.5917
  153SAPE   H5X17010   0.629   0.955   7.189  1.2383  1.8167 -2.3876
  153SAPE   H5Y17011   0.788   1.032   7.182  0.6363 -0.2995  2.4528
  153SAPE   C3617012   0.789   0.848   7.295 -0.3766  0.1870  0.6891
  153SAPE   H6X17013   0.896   0.818   7.297 -0.6181 -1.2831 -2.6168
  153SAPE   H6Y17014   0.726   0.759   7.309 -1.9324  1.2160  0.4452
  153SAPE   C3717015   0.755   0.923   7.423  0.2138  0.1536  0.7887
  153SAPE   H7X17016   0.651   0.962   7.419 -0.3745 -1.3584  0.7939
  153SAPE   H7Y17017   0.820   1.013   7.425 -0.0473  0.3389  1.6178
  153SAPE   C3817018   0.773   0.845   7.555  0.0863 -0.3742 -0.6877
  153SAPE   H8X17019   0.882   0.826   7.571  0.0593 -0.0437 -0.1139
  153SAPE   H8Y17020   0.717   0.752   7.580 -0.3802  0.3772  1.2144
  153SAPE   C3917021   0.742   0.934   7.679  0.0692  0.1600  0.7210
  153SAPE   H9X17022   0.637   0.971   7.675  1.0859  3.3635 -1.3248
  153SAPE   H9Y17023   0.809   1.023   7.684 -0.7079  1.0249 -2.2151
  153SAPE  C31017024   0.742   0.852   7.807  0.0031  0.0376  0.6888
  153SAPE  H10X17025   0.844   0.814   7.830  0.6589 -0.0692 -2.0525
  153SAPE  H10Y17026   0.688   0.756   7.793 -1.4021  0.9855 -0.7286
  153SAPE  C31117027   0.692   0.932   7.923  0.5081  0.2158  0.7075
  153SAPE  H11X17028   0.586   0.957   7.901  0.1931 -0.1158  1.7748
  153SAPE  H11Y17029   0.740   1.029   7.945 -1.5945  2.0397 -2.0586
  153SAPE  C31217030   0.689   0.848   8.057  0.5014  0.0082  0.5222
  153SAPE  H12X17031   0.788   0.798   8.068 -0.6485 -2.6042 -0.1421
  153SAPE  H12Y17032   0.617   0.764   8.045 -0.0415  0.3736  1.1425
  153SAPE  C31317033   0.626   0.919   8.175  0.1988 -0.6041 -0.4920
  153SAPE  H13X17034   0.526   0.960   8.151  0.3742  1.5089  1.9063
  153SAPE  H13Y17035   0.692   1.002   8.210 -0.5817 -0.6094  1.1154
  153SAPE  C31417036   0.611   0.845   8.304  1.0626  1.2632  0.2347
  153SAPE  H14X17037   0.704   0.793   8.334 -0.4427 -2.1213 -0.5234
  153SAPE  H14Y17038   0.532   0.769   8.288  1.1795  1.1583  0.1606
  153SAPE  C31517039   0.560   0.920   8.432 -0.3740  0.3428 -0.0885
  153SAPE  H15X17040   0.645   0.982   8.468 -0.9622  1.1005  0.0269
  153SAPE  H15Y17041   0.552   0.851   8.519 -2.1256 -0.7340 -1.0472
  153SAPE  C31617042   0.433   1.006   8.414  0.1375 -0.1995  0.5954
  153SAPE  H16X17043   0.352   0.947   8.366  0.2724 -0.1493  0.3001
  153SAPE  H16Y17044   0.480   1.088   8.355 -1.7947 -0.1655 -1.0142
  153SAPE  C31717045   0.380   1.075   8.535  0.2413  0.3410  0.0668
  153SAPE  H17X17046   0.452   1.150   8.572 -2.1562  1.8918  1.8746
  153SAPE  H17Y17047   0.363   1.010   8.624 -0.9340 -2.0874 -1.8034
  153SAPE  C31817048   0.246   1.146   8.514  0.7712 -0.0003  0.1618
  153SAPE  H18X17049   0.165   1.069   8.522  0.0293  0.8755  1.5636
  153SAPE  H18Y17050   0.241   1.191   8.413 -0.9985 -0.4235  0.0124
  153SAPE  H18Z17051   0.226   1.210   8.603  0.5529 -0.4814  0.4656
  154SAPE     N17052   5.707   1.038   6.170  0.6398  0.1733  0.2283
  154SAPE   HN117053   5.696   0.942   6.210  1.9612  0.4682  1.3978
  154SAPE   HN217054   5.788   1.027   6.106 -0.2963 -1.7457 -0.7055
  154SAPE   HN317055   5.721   1.105   6.249 -0.2903  0.6498 -0.0020
  154SAPE   C1217056   5.588   1.082   6.094  0.9001  0.1959  0.9117
  154SAPE  H12A17057   5.508   1.119   6.161  0.3444  1.8564 -0.5712
  154SAPE  H12B17058   5.563   0.991   6.035  1.1417  1.0398 -0.5567
  154SAPE   C1117059   5.617   1.205   6.009  0.0411  0.3667 -0.7002
  154SAPE  H11A17060   5.513   1.223   5.975 -0.4908 -1.7315 -0.3175
  154SAPE  H11B17061   5.682   1.177   5.923  1.2274  0.3750  0.1743
  154SAPE     P17062   5.608   1.439   6.152 -0.1402 -0.0956  0.1740
  154SAPE   O1317063   5.660   1.553   6.077 -0.6320 -0.4332  0.0831
  154SAPE   O1417064   5.465   1.411   6.141  0.8474  0.4068 -0.0317
  154SAPE   O1217065   5.681   1.309   6.090 -0.1806  0.3260 -0.0436
  154SAPE   O1117066   5.660   1.430   6.301  0.5062 -0.2042  0.1137
  154SAPE    C117067   5.794   1.474   6.323  0.0563 -0.1401 -0.6294
  154SAPE    HA17068   5.871   1.411   6.275  0.1288 -0.6978  0.1964
  154SAPE    HB17069   5.810   1.576   6.282 -0.7550  0.1659 -0.2159
  154SAPE    C217070   5.815   1.496   6.473  0.1028 -0.0543  0.0954
  154SAPE    HS17071   5.889   1.577   6.491 -0.5713  0.3789  0.9455
  154SAPE   O2117072   5.861   1.373   6.532  0.2786  0.0027 -0.5165
  154SAPE   C2117073   5.928   1.388   6.641  0.2789 -0.0984 -0.1466
  154SAPE   O2217074   5.986   1.485   6.685 -0.0229 -0.0762  0.2875
  154SAPE   C2217075   5.924   1.254   6.723  0.2493  0.2507 -0.0471
  154SAPE   H2R17076   5.819   1.220   6.721 -0.0472  1.1371 -0.1242
  154SAPE   H2S17077   5.993   1.184   6.671  2.2715  1.9540  0.1812
  154SAPE    C317078   5.675   1.546   6.541  0.1527 -0.1690 -0.2589
  154SAPE    HX17079   5.598   1.467   6.527 -0.7551  0.5900  0.3774
  154SAPE    HY17080   5.643   1.630   6.478  1.5083 -1.9052 -3.4967
  154SAPE   O3117081   5.682   1.592   6.676 -0.4783  0.2671  0.0387
  154SAPE   C3117082   5.727   1.722   6.687 -0.3813  0.0051  0.7335
  154SAPE   O3217083   5.759   1.793   6.593 -0.3496  0.5255 -0.0747
  154SAPE   C3217084   5.736   1.758   6.832 -0.3201 -0.2272 -0.7845
  154SAPE   H2X17085   5.636   1.774   6.879  0.2344 -0.0504  0.3680
  154SAPE   H2Y17086   5.792   1.854   6.836  0.0639 -0.4576 -0.5870
  154SAPE   C2317087   5.952   1.267   6.873  0.5717 -0.2049 -0.5408
  154SAPE   H3R17088   5.899   1.358   6.910  0.9451 -1.1795  2.6940
  154SAPE   H3S17089   6.062   1.272   6.888  0.3775  0.0900  0.8759
  154SAPE   C2417090   5.899   1.141   6.948 -0.5231 -0.2026 -0.4349
  154SAPE   H4R17091   5.789   1.156   6.953 -0.8070 -1.9779 -0.6348
  154SAPE   H4S17092   5.938   1.155   7.051 -1.8126  1.7467 -0.1637
  154SAPE   C2517093   5.937   1.008   6.888 -0.5343 -0.0422  0.5364
  154SAPE   H5R17094   5.888   0.996   6.790  0.6775 -0.7800 -0.0040
  154SAPE   C2617095   6.011   0.905   6.939 -0.6715 -0.3235  0.3026
  154SAPE   H6R17096   6.014   0.811   6.883 -0.2386  0.3093 -0.7698
  154SAPE   C2717097   6.093   0.907   7.067 -0.2273 -0.2208  0.2392
  154SAPE   H7R17098   6.098   1.008   7.112  1.8341 -0.9263  1.7529
  154SAPE   H7S17099   6.199   0.894   7.035 -0.5817 -0.4669 -0.9023
  154SAPE   C2817100   6.059   0.799   7.171 -0.6381 -0.3727  0.4242
  154SAPE   H8R17101   6.078   0.698   7.134  1.6261  0.9849 -2.5687
  154SAPE   C2917102   6.020   0.822   7.300  0.4887 -0.0285  0.5425
  154SAPE   H9R17103   5.993   0.738   7.365 -1.9916  1.0951  1.0591
  154SAPE  C21017104   5.991   0.955   7.372 -0.1179 -0.2563  0.2407
  154SAPE  H10R17105   5.927   0.933   7.460 -3.7698  2.1701 -1.5294
  154SAPE  H10S17106   5.926   1.029   7.320 -0.1591 -0.6336 -0.2472
  154SAPE  C21117107   6.128   1.010   7.422  0.4289  0.1795  0.9337
  154SAPE  H11R17108   6.194   1.049   7.342 -1.1620  0.6265 -0.2087
  154SAPE  C21217109   6.160   1.034   7.550 -0.1943  0.7607  0.3368
  154SAPE  H12R17110   6.246   1.099   7.568  1.0239 -0.8522  0.5308
  154SAPE  C21317111   6.085   1.009   7.679  0.2393 -0.5191  0.4251
  154SAPE  H13R17112   6.156   0.984   7.761 -1.2598  0.0161  1.9436
  154SAPE  H13S17113   6.018   0.920   7.672  1.0597 -1.1746  0.7049
  154SAPE  C21417114   5.997   1.126   7.711 -0.1097  0.3765  0.3661
  154SAPE  H14R17115   5.900   1.114   7.662 -0.3067 -0.1851  0.8842
  154SAPE  C21517116   6.042   1.234   7.766 -0.2363 -0.4925 -0.8716
  154SAPE  H15R17117   5.969   1.316   7.766 -1.5828 -1.6198  1.0966
  154SAPE  C21617118   6.180   1.261   7.817 -0.7483 -1.3244  0.4644
  154SAPE  H16R17119   6.206   1.369   7.817  2.8176 -2.0593  0.4712
  154SAPE  H16S17120   6.267   1.226   7.757 -0.6785 -0.4875  0.0661
  154SAPE  C21717121   6.199   1.223   7.962  0.3235  1.3612 -0.8699
  154SAPE  H17R17122   6.306   1.234   7.990 -0.1455  1.2655  1.1291
  154SAPE  H17S17123   6.169   1.116   7.968 -1.7224  1.7320 -3.1689
  154SAPE  C21817124   6.122   1.306   8.060  0.2857 -0.8803  0.0910
  154SAPE  H18R17125   6.017   1.273   8.066 -1.0716  2.8113 -0.6505
  154SAPE  H18S17126   6.132   1.414   8.034 -1.2387 -0.4722  1.0792
  154SAPE  C21917127   6.192   1.282   8.189 -0.2070  0.0846  0.0512
  154SAPE  H19R17128   6.292   1.330   8.183 -0.6598  1.1904  1.1057
  154SAPE  H19S17129   6.204   1.173   8.204  0.2195  0.1194 -0.0199
  154SAPE  C22017130   6.127   1.350   8.311  0.0767  0.0945 -0.1417
  154SAPE  H20R17131   6.191   1.328   8.399 -0.3515 -1.3171 -0.1570
  154SAPE  H20S17132   6.025   1.309   8.332 -1.3827  2.7536 -1.4890
  154SAPE  H20T17133   6.128   1.460   8.298 -0.3527  0.1812  0.4787
  154SAPE   C3317134   5.804   1.652   6.928 -0.3088  0.7825  0.6773
  154SAPE   H3X17135   5.891   1.608   6.874 -1.9005 -0.2439 -1.2142
  154SAPE   H3Y17136   5.741   1.560   6.928  2.6570 -1.4993 -1.9258
  154SAPE   C3417137   5.846   1.716   7.061  0.1538 -0.0351  0.7332
  154SAPE   H4X17138   5.914   1.801   7.038 -0.9880  0.9768  1.0191
  154SAPE   H4Y17139   5.886   1.645   7.137  1.5942  1.1118  1.0933
  154SAPE   C3517140   5.726   1.774   7.128  0.0266 -0.0563 -0.0353
  154SAPE   H5X17141   5.645   1.703   7.153 -0.4195  1.0516  1.9654
  154SAPE   H5Y17142   5.688   1.854   7.061  4.0381  0.0151 -2.4952
  154SAPE   C3617143   5.753   1.859   7.258  0.0062  0.5164 -0.4631
  154SAPE   H6X17144   5.675   1.937   7.266  0.1315  0.8127 -1.9193
  154SAPE   H6Y17145   5.850   1.910   7.237 -0.4346  1.1698 -0.9786
  154SAPE   C3717146   5.738   1.777   7.391 -0.5297  0.2076 -1.2157
  154SAPE   H7X17147   5.795   1.683   7.372 -1.5466 -0.2497 -2.1777
  154SAPE   H7Y17148   5.633   1.751   7.417 -0.0342 -0.2033  0.4633
  154SAPE   C3817149   5.790   1.858   7.515  0.0004 -0.1877 -0.6447
  154SAPE   H8X17150   5.744   1.959   7.515 -0.1570 -0.2492 -1.6568
  154SAPE   H8Y17151   5.899   1.874   7.497  0.0436 -0.1141 -0.3389
  154SAPE   C3917152   5.770   1.798   7.650  0.2488  0.5486 -0.3688
  154SAPE   H9X17153   5.808   1.693   7.653 -0.2476  0.3918  0.7817
  154SAPE   H9Y17154   5.659   1.800   7.663  0.1994  1.3821 -0.8854
  154SAPE  C31017155   5.838   1.887   7.759 -0.6815 -0.0337 -0.1710
  154SAPE  H10X17156   5.792   1.988   7.755 -0.8897 -0.1158  0.0475
  154SAPE  H10Y17157   5.937   1.899   7.711 -0.5811  1.4873  0.3544
  154SAPE  C31117158   5.839   1.826   7.901  0.1107  0.5514 -0.4394
  154SAPE  H11X17159   5.880   1.724   7.887  1.6225  1.2571 -1.3735
  154SAPE  H11Y17160   5.734   1.826   7.937  0.6793  0.3564  1.2902
  154SAPE  C31217161   5.926   1.895   8.005  0.5647  0.0885  0.4657
  154SAPE  H12X17162   5.885   1.998   8.019  0.0298 -0.1672  0.7859
  154SAPE  H12Y17163   6.028   1.901   7.962  0.7329 -0.3478  0.8025
  154SAPE  C31317164   5.909   1.824   8.136 -0.2504  0.4495 -0.2538
  154SAPE  H13X17165   5.945   1.719   8.138  1.3349  0.9734  2.0155
  154SAPE  H13Y17166   5.799   1.818   8.148 -0.2896  1.8443  0.2747
  154SAPE  C31417167   5.962   1.902   8.251 -0.0109 -0.5116 -0.0733
  154SAPE  H14X17168   5.934   2.009   8.246  0.8421 -0.2686  0.0774
  154SAPE  H14Y17169   6.073   1.906   8.245 -0.0980  2.2859 -1.6347
  154SAPE  C31517170   5.923   1.857   8.391 -0.2068  0.4951  0.4178
  154SAPE  H15X17171   5.927   1.747   8.397  1.6282  0.6183  3.1268
  154SAPE  H15Y17172   5.828   1.899   8.431 -0.1023  2.0421 -0.8566
  154SAPE  C31617173   6.040   1.894   8.499 -0.0609  0.1319 -0.1738
  154SAPE  H16X17174   6.116   1.821   8.464  1.6034  1.5604  0.3285
  154SAPE  H16Y17175   6.006   1.870   8.602  2.5132  0.3285  0.7912
  154SAPE  C31717176   6.101   2.030   8.510  0.6953  0.1749  0.1374
  154SAPE  H17X17177   6.098   2.092   8.418  1.8628  0.9000  0.5618
  154SAPE  H17Y17178   6.208   2.018   8.540  1.7206 -2.9391 -3.8743
  154SAPE  C31817179   6.033   2.102   8.631  0.6434  0.3362  0.3131
  154SAPE  H18X17180   6.066   2.208   8.633 -1.6696  1.1389 -0.8016
  154SAPE  H18Y17181   6.081   2.053   8.718 -0.2458 -0.4516  0.3800
  154SAPE  H18Z17182   5.922   2.101   8.633  0.6559  0.2795  2.0702
  155SAPE     N17183   5.704   3.127   6.675  1.0124 -0.1086  0.4034
  155SAPE   HN117184   5.618   3.182   6.698  2.0047  2.2053 -0.9835
  155SAPE   HN217185   5.677   3.040   6.626  0.6876 -0.6096  1.4494
  155SAPE   HN317186   5.758   3.099   6.759  0.0213 -1.1135  0.7281
  155SAPE   C1217187   5.782   3.223   6.589 -0.5483 -1.1356  0.6030
  155SAPE  H12A17188   5.816   3.308   6.652 -0.5861 -0.8098  0.1831
  155SAPE  H12B17189   5.716   3.261   6.508  2.5478  3.7907 -0.0398
  155SAPE   C1117190   5.895   3.146   6.525 -0.6181 -0.7251 -0.4899
  155SAPE  H11A17191   5.946   3.212   6.452  2.3210 -2.2647  0.0362
  155SAPE  H11B17192   5.850   3.065   6.464  0.0915 -1.9110  0.5086
  155SAPE     P17193   6.124   3.032   6.599 -0.2905  0.1656  0.0646
  155SAPE   O1317194   6.171   3.086   6.470 -0.0859 -0.1956  0.3245
  155SAPE   O1417195   6.207   3.050   6.718 -0.1392 -0.0786  0.1247
  155SAPE   O1217196   5.982   3.096   6.625  0.1793  0.6736  0.0127
  155SAPE   O1117197   6.103   2.874   6.585 -0.4235  0.8079 -0.4043
  155SAPE    C117198   6.015   2.782   6.646  0.6058  0.3336  0.1014
  155SAPE    HA17199   5.914   2.829   6.651  0.0377 -0.8517  0.0551
  155SAPE    HB17200   6.009   2.682   6.598  0.1635  0.4938 -0.1846
  155SAPE    C217201   6.060   2.741   6.791 -0.6605  0.4892 -0.0484
  155SAPE    HS17202   6.079   2.830   6.854 -0.2072  0.8530 -0.6775
  155SAPE   O2117203   6.181   2.670   6.784 -0.2228  0.4297 -0.4327
  155SAPE   C2117204   6.271   2.669   6.885 -0.0622  0.1348 -0.1838
  155SAPE   O2217205   6.256   2.732   6.988  0.5088  0.2006 -0.4238
  155SAPE   C2217206   6.384   2.568   6.853 -0.2580 -0.0962  0.1705
  155SAPE   H2R17207   6.359   2.468   6.894  1.2866 -0.6330 -0.1181
  155SAPE   H2S17208   6.392   2.566   6.742  0.0427  1.6238  0.1273
  155SAPE    C317209   5.959   2.652   6.861 -0.0164 -0.7532 -0.3780
  155SAPE    HX17210   5.958   2.561   6.798  1.0976  0.6836 -2.5834
  155SAPE    HY17211   5.855   2.688   6.843  0.1353 -0.2996 -0.3748
  155SAPE   O3117212   5.994   2.631   7.000  0.0933  0.3977 -0.1464
  155SAPE   C3117213   5.991   2.738   7.081  0.0476  0.2681 -1.1085
  155SAPE   O3217214   5.942   2.845   7.052 -0.0055 -0.4117  0.3919
  155SAPE   C3217215   6.020   2.689   7.225  0.0015 -0.6632 -0.4737
  155SAPE   H2X17216   6.096   2.608   7.218  3.2536  2.2526 -2.2088
  155SAPE   H2Y17217   5.926   2.646   7.265 -0.1830 -0.8695 -1.1175
  155SAPE   C2317218   6.523   2.610   6.914  0.2852  0.1237  0.4271
  155SAPE   H3R17219   6.496   2.658   7.011 -0.8054 -0.6375  0.5187
  155SAPE   H3S17220   6.566   2.684   6.842 -1.3909  1.4055  0.6938
  155SAPE   C2417221   6.635   2.505   6.926  0.1965  0.6395  0.6400
  155SAPE   H4R17222   6.729   2.550   6.964  1.3056  1.3169 -2.6082
  155SAPE   H4S17223   6.656   2.467   6.824  2.1205  2.5207  0.2599
  155SAPE   C2517224   6.610   2.382   7.011  0.0589 -0.0085 -0.7034
  155SAPE   H5R17225   6.564   2.291   6.968  2.4938 -2.1722  0.9340
  155SAPE   C2617226   6.642   2.368   7.143  0.4386  0.3079 -0.0187
  155SAPE   H6R17227   6.605   2.279   7.194 -0.9147  1.9790  2.0812
  155SAPE   C2717228   6.703   2.473   7.231 -0.0710  0.1515 -0.7910
  155SAPE   H7R17229   6.774   2.525   7.163  1.0009 -2.2222 -1.6051
  155SAPE   H7S17230   6.764   2.434   7.315  1.0414  1.0169 -1.1706
  155SAPE   C2817231   6.615   2.577   7.290  1.1812 -0.5107 -0.6572
  155SAPE   H8R17232   6.521   2.588   7.235  0.6993 -2.2947 -0.2433
  155SAPE   C2917233   6.639   2.642   7.409 -0.3770  0.1318 -0.1563
  155SAPE   H9R17234   6.572   2.721   7.446  1.7816  0.7147  2.8978
  155SAPE  C21017235   6.751   2.620   7.502 -0.0526  1.2265  0.0956
  155SAPE  H10R17236   6.765   2.714   7.559 -0.5691  0.1581  2.0554
  155SAPE  H10S17237   6.847   2.600   7.449 -0.3474  1.9864 -0.7508
  155SAPE  C21117238   6.721   2.504   7.594  1.5225 -0.6551 -0.6649
  155SAPE  H11R17239   6.641   2.436   7.562  0.5625 -0.8557  1.9077
  155SAPE  C21217240   6.786   2.469   7.705 -0.6972 -0.4380 -0.0227
  155SAPE  H12R17241   6.747   2.399   7.780 -2.1928  2.5972  2.1989
  155SAPE  C21317242   6.911   2.543   7.747  0.0259  0.3790  0.2936
  155SAPE  H13R17243   6.880   2.646   7.775  1.8833  1.2412 -0.6204
  155SAPE  H13S17244   6.965   2.555   7.651 -1.6568  0.4706 -0.6812
  155SAPE  C21417245   7.001   2.474   7.850  0.5576 -0.8238 -0.3295
  155SAPE  H14R17246   7.085   2.412   7.815  0.5868 -1.4112  0.7526
  155SAPE  C21517247   6.987   2.484   7.983 -0.7431 -0.2300 -0.5397
  155SAPE  H15R17248   7.071   2.434   8.033 -1.0865  0.4433  0.7480
  155SAPE  C21617249   6.885   2.558   8.071 -0.4584 -0.0864 -0.3336
  155SAPE  H16R17250   6.816   2.491   8.127  0.8836 -1.1134  0.1632
  155SAPE  H16S17251   6.825   2.626   8.008 -1.2256  1.2590  1.7281
  155SAPE  C21717252   6.950   2.643   8.174  0.3671 -0.7628 -0.1216
  155SAPE  H17R17253   6.867   2.689   8.232  0.0778 -0.7750 -0.5297
  155SAPE  H17S17254   7.000   2.728   8.123 -2.9797  1.7306  0.3906
  155SAPE  C21817255   7.023   2.563   8.282  0.4610 -0.4291 -0.6068
  155SAPE  H18R17256   7.103   2.501   8.236 -0.1498  0.8808 -3.6744
  155SAPE  H18S17257   6.963   2.485   8.333 -0.2210  0.8809  0.6722
  155SAPE  C21917258   7.072   2.641   8.402  0.2422 -1.0088 -0.3306
  155SAPE  H19R17259   6.983   2.700   8.431  0.5541 -0.6650 -0.0597
  155SAPE  H19S17260   7.148   2.713   8.364 -0.5857  1.6032  2.5118
  155SAPE  C22017261   7.119   2.568   8.528  0.4940 -0.7469 -0.1803
  155SAPE  H20R17262   7.030   2.521   8.576 -0.5982  1.5959  0.2359
  155SAPE  H20S17263   7.158   2.642   8.600 -1.2317 -0.2840  0.3396
  155SAPE  H20T17264   7.196   2.491   8.503 -1.3533 -2.5400 -0.6747
  155SAPE   C3317265   6.079   2.796   7.315 -0.3824 -0.3118  0.6043
  155SAPE   H3X17266   6.003   2.871   7.346 -1.3646 -1.1131  0.2049
  155SAPE   H3Y17267   6.155   2.849   7.254 -0.7788 -1.3083 -0.8012
  155SAPE   C3417268   6.132   2.751   7.448  0.2690  0.1941 -0.2626
  155SAPE   H4X17269   6.210   2.672   7.450 -0.7350 -0.8147 -0.0473
  155SAPE   H4Y17270   6.046   2.699   7.494 -0.7351  1.9955  0.0015
  155SAPE   C3517271   6.194   2.855   7.534 -0.1176  0.0304 -0.1951
  155SAPE   H5X17272   6.132   2.946   7.546  0.3907  0.4421 -0.6310
  155SAPE   H5Y17273   6.292   2.899   7.506 -0.5751  0.0007 -1.9541
  155SAPE   C3617274   6.207   2.819   7.687 -0.3394 -0.4289  0.0693
  155SAPE   H6X17275   6.111   2.777   7.725 -0.7929  0.5312  0.0200
  155SAPE   H6Y17276   6.230   2.911   7.744 -0.4762 -1.6387  2.1557
  155SAPE   C3717277   6.318   2.710   7.709 -0.1452  0.2528 -0.2648
  155SAPE   H7X17278   6.408   2.729   7.646 -0.8740  1.9296 -0.8451
  155SAPE   H7Y17279   6.279   2.617   7.663  1.1411 -1.1144  1.2687
  155SAPE   C3817280   6.349   2.672   7.853 -0.1127  0.0794  0.0651
  155SAPE   H8X17281   6.258   2.616   7.884 -0.2273  0.9720  1.4408
  155SAPE   H8Y17282   6.354   2.766   7.913 -2.5404  0.2939  0.0347
  155SAPE   C3917283   6.465   2.586   7.878 -0.0824 -0.2434  0.3225
  155SAPE   H9X17284   6.553   2.651   7.859  1.7504 -2.5628  0.5378
  155SAPE   H9Y17285   6.479   2.499   7.811  2.5899 -0.0613  0.5401
  155SAPE  C31017286   6.482   2.548   8.030  0.5351 -1.0139  0.6432
  155SAPE  H10X17287   6.569   2.480   8.043  0.5525 -1.2945 -0.7412
  155SAPE  H10Y17288   6.391   2.504   8.076 -0.0004 -0.5519  0.0587
  155SAPE  C31117289   6.508   2.680   8.111 -0.5912 -0.3251  0.4272
  155SAPE  H11X17290   6.422   2.751   8.108 -0.1818  0.1549 -2.5704
  155SAPE  H11Y17291   6.595   2.712   8.050 -0.5512 -1.1395  0.0482
  155SAPE  C31217292   6.553   2.647   8.256 -0.7396  0.2771 -0.1055
  155SAPE  H12X17293   6.650   2.594   8.268 -1.2393 -1.5352 -2.9706
  155SAPE  H12Y17294   6.478   2.586   8.312  2.0739 -0.7719  2.8221
  155SAPE  C31317295   6.553   2.770   8.338 -0.5852 -0.8279  0.1452
  155SAPE  H13X17296   6.458   2.827   8.333 -0.6633 -0.5119  3.1469
  155SAPE  H13Y17297   6.622   2.849   8.301  1.1029 -0.9651  2.7362
  155SAPE  C31417298   6.584   2.743   8.489 -0.4497 -0.4679 -0.2010
  155SAPE  H14X17299   6.624   2.835   8.536  1.1847 -2.4220  2.5827
  155SAPE  H14Y17300   6.664   2.669   8.512  0.8536  0.8715 -0.2791
  155SAPE  C31517301   6.464   2.709   8.579 -0.0603  0.7009  0.0212
  155SAPE  H15X17302   6.416   2.618   8.537  3.1139 -1.5721  0.9509
  155SAPE  H15Y17303   6.398   2.798   8.571  0.6875  1.1040 -4.9154
  155SAPE  C31617304   6.512   2.699   8.722 -0.0505  0.5762 -0.2926
  155SAPE  H16X17305   6.431   2.704   8.798  0.4869  1.7613  0.2343
  155SAPE  H16Y17306   6.576   2.789   8.735  1.0156 -0.0675 -1.0034
  155SAPE  C31717307   6.589   2.569   8.751 -0.0372  0.4089 -0.2853
  155SAPE  H17X17308   6.688   2.586   8.704  0.1348  0.3341  0.0479
  155SAPE  H17Y17309   6.536   2.484   8.702  1.0469  0.3240 -1.3668
  155SAPE  C31817310   6.608   2.541   8.899  0.1006 -0.0288 -0.0050
  155SAPE  H18X17311   6.511   2.511   8.945  1.2448 -1.8192  1.4193
  155SAPE  H18Y17312   6.661   2.627   8.945  0.1389  0.7034 -1.3767
  155SAPE  H18Z17313   6.679   2.461   8.930 -1.6543 -0.7393  2.5023
  156SAPE     N17314   4.628   2.918   6.535 -0.2664 -0.6304 -0.4776
  156SAPE   HN117315   4.593   2.970   6.452  0.3011  0.4672 -0.0552
  156SAPE   HN217316   4.662   2.993   6.599 -2.5205 -0.7399  0.9586
  156SAPE   HN317317   4.717   2.876   6.501  0.4099  1.2721 -1.2224
  156SAPE   C1217318   4.528   2.842   6.612  0.3231  0.4868 -0.3175
  156SAPE  H12A17319   4.455   2.916   6.652 -0.5612  0.2401 -1.4418
  156SAPE  H12B17320   4.578   2.777   6.687 -0.6439  0.8865  0.7115
  156SAPE   C1117321   4.443   2.744   6.524  0.0084  0.0100 -0.1325
  156SAPE  H11A17322   4.376   2.701   6.602  0.1341  1.2259  0.6613
  156SAPE  H11B17323   4.512   2.665   6.485 -0.6517 -0.1818 -0.9368
  156SAPE     P17324   4.230   2.749   6.369 -0.0196 -0.4312 -0.4669
  156SAPE   O1317325   4.191   2.804   6.234 -0.7321 -0.2832  0.0525
  156SAPE   O1417326   4.237   2.596   6.373  0.1513  0.7695  0.1449
  156SAPE   O1217327   4.369   2.809   6.426 -0.3935  0.1255 -0.2272
  156SAPE   O1117328   4.124   2.806   6.483  0.3059  0.1247 -0.3104
  156SAPE    C117329   4.144   2.919   6.567 -0.2291 -0.2868  0.1461
  156SAPE    HA17330   4.247   2.960   6.561  0.5895 -2.2350 -0.1482
  156SAPE    HB17331   4.092   3.011   6.534  1.3245  0.9655  1.0211
  156SAPE    C217332   4.117   2.893   6.718 -0.0666 -0.5331  0.0034
  156SAPE    HS17333   4.165   2.798   6.750  2.1997  0.3165 -0.6771
  156SAPE   O2117334   3.981   2.890   6.742  0.0346 -0.0173  0.2169
  156SAPE   C2117335   3.938   2.811   6.839  0.3576 -0.2594 -0.3922
  156SAPE   O2217336   4.015   2.759   6.925 -0.0062 -0.8410  0.3296
  156SAPE   C2217337   3.778   2.814   6.842 -0.0532  0.0267  0.1313
  156SAPE   H2R17338   3.738   2.916   6.824 -1.4788 -0.6103 -0.4720
  156SAPE   H2S17339   3.752   2.748   6.757 -2.1069 -1.5347  1.8584
  156SAPE    C317340   4.166   3.012   6.807  0.4938  0.1187  0.0779
  156SAPE    HX17341   4.082   3.081   6.826  1.2727  0.5881  2.1192
  156SAPE    HY17342   4.242   3.070   6.751  2.0119 -1.9936 -0.1714
  156SAPE   O3117343   4.219   2.960   6.928 -0.3699 -0.0894  0.8975
  156SAPE   C3117344   4.200   3.035   7.032  0.6368  1.2925 -0.3394
  156SAPE   O3217345   4.139   3.138   7.045 -0.0666 -0.3597  0.2820
  156SAPE   C3217346   4.248   2.948   7.147  1.0806  0.6495 -0.5836
  156SAPE   H2X17347   4.357   2.930   7.132  0.7726 -1.1369 -0.8857
  156SAPE   H2Y17348   4.194   2.852   7.135 -1.2271  2.0736 -2.3656
  156SAPE   C2317349   3.704   2.751   6.960  0.4623  0.4439  0.2153
  156SAPE   H3R17350   3.597   2.748   6.930 -0.1284  2.5875  1.8579
  156SAPE   H3S17351   3.706   2.813   7.052  2.5349 -1.9212  1.8786
  156SAPE   C2417352   3.753   2.607   6.982  0.0657 -0.9885  0.4769
  156SAPE   H4R17353   3.865   2.607   6.984  0.1566 -0.6797 -1.7685
  156SAPE   H4S17354   3.722   2.539   6.900  0.6515 -1.1763  0.3992
  156SAPE   C2517355   3.690   2.554   7.109 -0.2781  0.5737 -0.0202
  156SAPE   H5R17356   3.581   2.559   7.098 -0.0226  1.7633 -2.4379
  156SAPE   C2617357   3.759   2.530   7.224  1.1116 -0.0876 -0.0000
  156SAPE   H6R17358   3.714   2.496   7.319 -1.5264  2.2511 -0.3032
  156SAPE   C2717359   3.906   2.552   7.256 -0.2479 -0.1545  0.1589
  156SAPE   H7R17360   3.961   2.557   7.160 -1.5710  0.7773 -0.5863
  156SAPE   H7S17361   3.939   2.460   7.309 -0.7576 -0.8471 -0.7092
  156SAPE   C2817362   3.939   2.681   7.323 -0.3700 -0.2153  0.3769
  156SAPE   H8R17363   3.931   2.772   7.261  0.9580 -1.7118 -2.1576
  156SAPE   C2917364   3.958   2.714   7.455  0.2089 -0.4351  0.2513
  156SAPE   H9R17365   3.970   2.821   7.478  0.7719 -0.5434  0.4776
  156SAPE  C21017366   3.970   2.612   7.564  0.8956  0.1703  0.0878
  156SAPE  H10R17367   4.070   2.615   7.611  0.3622 -1.1369  1.3702
  156SAPE  H10S17368   3.958   2.505   7.535  1.6342 -0.1756  1.0302
  156SAPE  C21117369   3.870   2.635   7.675  0.0211 -0.2266  0.5635
  156SAPE  H11R17370   3.783   2.696   7.646  0.6299 -0.4170 -1.8855
  156SAPE  C21217371   3.886   2.595   7.800 -0.3747  0.3390 -0.4735
  156SAPE  H12R17372   3.798   2.608   7.864  0.4214  2.2342  0.3319
  156SAPE  C21317373   3.994   2.507   7.856 -0.5896 -0.0966  0.4453
  156SAPE  H13R17374   4.049   2.460   7.771 -2.3107  0.2231 -0.8952
  156SAPE  H13S17375   3.952   2.422   7.913 -1.2405 -0.6116 -0.7618
  156SAPE  C21417376   4.085   2.588   7.937  0.8673  0.2089 -0.4495
  156SAPE  H14R17377   4.135   2.677   7.896  1.4113 -0.4903 -1.3332
  156SAPE  C21517378   4.140   2.541   8.049  0.4884 -0.6641 -0.0695
  156SAPE  H15R17379   4.201   2.609   8.111 -0.5253  0.2775 -0.0808
  156SAPE  C21617380   4.133   2.415   8.127  0.4937 -0.6822  0.2793
  156SAPE  H16R17381   4.236   2.393   8.162 -0.5008 -3.8043  1.6757
  156SAPE  H16S17382   4.104   2.325   8.069  2.6766 -1.3150  0.0766
  156SAPE  C21717383   4.032   2.419   8.243 -0.1003  1.0010  0.4630
  156SAPE  H17R17384   3.931   2.386   8.211 -1.0344  1.8170  2.4096
  156SAPE  H17S17385   4.031   2.514   8.300  0.1442  0.9023  0.6352
  156SAPE  C21817386   4.072   2.311   8.347  0.2211  0.0002 -0.1891
  156SAPE  H18R17387   4.125   2.225   8.299  2.4434  0.5425  1.1671
  156SAPE  H18S17388   3.973   2.275   8.381 -0.6685  1.2208 -1.3727
  156SAPE  C21917389   4.159   2.356   8.460 -0.5667 -0.0613  0.3115
  156SAPE  H19R17390   4.128   2.462   8.475  0.5327  0.5155 -1.1944
  156SAPE  H19S17391   4.266   2.347   8.431 -0.5187 -2.2004  0.9688
  156SAPE  C22017392   4.148   2.279   8.588 -0.0051 -0.4617  0.5689
  156SAPE  H20R17393   4.041   2.281   8.618  0.0723  1.4603  0.8937
  156SAPE  H20S17394   4.205   2.334   8.666  0.8093  1.0333 -1.0191
  156SAPE  H20T17395   4.187   2.175   8.581 -1.6550 -1.0058 -4.3470
  156SAPE   C3317396   4.203   3.017   7.283 -0.1562 -0.7629  0.2818
  156SAPE   H3X17397   4.093   3.022   7.299 -0.2015 -0.9418  0.0157
  156SAPE   H3Y17398   4.237   3.122   7.272  1.3594 -1.0884  1.4797
  156SAPE   C3417399   4.259   2.964   7.419 -0.2477  0.2012  0.1125
  156SAPE   H4X17400   4.369   2.958   7.407 -0.5258 -3.2557 -2.3276
  156SAPE   H4Y17401   4.214   2.865   7.439 -0.1035  0.6396  3.0439
  156SAPE   C3517402   4.214   3.057   7.526 -0.8179  0.3319 -0.4140
  156SAPE   H5X17403   4.109   3.090   7.526 -0.0338  3.0477 -0.5602
  156SAPE   H5Y17404   4.274   3.150   7.516 -0.3347  0.0792  0.0317
  156SAPE   C3617405   4.249   3.004   7.660 -0.5692  0.1121 -0.7295
  156SAPE   H6X17406   4.349   2.959   7.646 -0.7677 -0.8242  0.6744
  156SAPE   H6Y17407   4.183   2.918   7.684 -0.7092  0.3664 -0.1809
  156SAPE   C3717408   4.250   3.116   7.757  0.4143 -0.3522  0.1002
  156SAPE   H7X17409   4.152   3.168   7.764  0.1877 -0.6679 -0.6633
  156SAPE   H7Y17410   4.325   3.191   7.723 -0.8635  0.8240 -0.1880
  156SAPE   C3817411   4.294   3.071   7.899 -0.0893  0.9208 -0.9518
  156SAPE   H8X17412   4.285   3.152   7.975  0.4848 -0.8568  1.1088
  156SAPE   H8Y17413   4.403   3.051   7.891 -0.5773 -1.8855 -1.5646
  156SAPE   C3917414   4.225   2.947   7.956  0.5357 -0.3052 -0.2277
  156SAPE   H9X17415   4.251   2.858   7.896 -3.7948 -1.1555 -1.1675
  156SAPE   H9Y17416   4.114   2.954   7.949  0.1779 -3.7025  0.4001
  156SAPE  C31017417   4.260   2.918   8.106  0.4859 -0.7300 -0.3200
  156SAPE  H10X17418   4.367   2.943   8.126  0.3991  0.2837 -1.0831
  156SAPE  H10Y17419   4.246   2.808   8.118  2.3679 -0.8833  0.8282
  156SAPE  C31117420   4.169   2.988   8.203  0.4037  0.6193 -0.1775
  156SAPE  H11X17421   4.069   2.943   8.188  0.0463  0.9715  0.9873
  156SAPE  H11Y17422   4.162   3.095   8.172 -2.2732  0.3864 -0.6441
  156SAPE  C31217423   4.211   2.974   8.348  0.5533 -0.1974 -0.6265
  156SAPE  H12X17424   4.179   3.063   8.406  0.3259 -2.4846  3.0397
  156SAPE  H12Y17425   4.321   2.984   8.334  0.8993  0.4679  2.0294
  156SAPE  C31317426   4.165   2.845   8.420  0.7295 -0.0088  0.8927
  156SAPE  H13X17427   4.197   2.762   8.354  0.9728  0.0403  0.9485
  156SAPE  H13Y17428   4.055   2.847   8.436  0.6971 -1.1006  0.8602
  156SAPE  C31417429   4.229   2.837   8.557 -0.2971  0.3269  0.4427
  156SAPE  H14X17430   4.198   2.922   8.620 -0.8404  1.7214 -1.5982
  156SAPE  H14Y17431   4.340   2.841   8.554 -0.3408  1.3497  0.0133
  156SAPE  C31517432   4.200   2.704   8.628  0.2628 -0.0701 -0.0484
  156SAPE  H15X17433   4.248   2.617   8.580 -1.0878 -1.3882  0.8964
  156SAPE  H15Y17434   4.091   2.688   8.618 -0.0022 -1.0073  3.1564
  156SAPE  C31617435   4.235   2.698   8.780 -0.2011  0.1205 -0.5428
  156SAPE  H16X17436   4.199   2.598   8.813 -0.1723 -0.1148 -1.2028
  156SAPE  H16Y17437   4.177   2.779   8.828  2.8783  1.3124  1.4549
  156SAPE  C31717438   4.381   2.716   8.826  0.0634 -0.1192 -0.1412
  156SAPE  H17X17439   4.427   2.803   8.775 -0.2422  0.2339  0.1827
  156SAPE  H17Y17440   4.436   2.624   8.797  0.8692 -0.2560  1.6865
  156SAPE  C31817441   4.396   2.738   8.979  0.5658  0.5063 -0.1435
  156SAPE  H18X17442   4.315   2.799   9.024 -0.9292 -1.8667  0.5672
  156SAPE  H18Y17443   4.493   2.786   9.006  2.2374 -2.7198  0.0524
  156SAPE  H18Z17444   4.391   2.646   9.040 -1.2032 -1.3575 -2.8391
  157SAPE     N17445   0.927   4.799   5.936  0.0701  0.1637  0.6867
  157SAPE   HN117446   0.873   4.838   6.016  0.1480  1.0198  0.3283
  157SAPE   HN217447   1.006   4.863   5.913  2.0555 -1.8206  1.5878
  157SAPE   HN317448   0.861   4.783   5.857  1.3649  0.8361 -0.5727
  157SAPE   C1217449   0.991   4.675   5.979 -0.2823  0.2052 -0.3255
  157SAPE  H12A17450   1.062   4.635   5.903  0.0345 -0.8661  0.5042
  157SAPE  H12B17451   0.912   4.597   5.983  0.7878 -0.8563  1.2521
  157SAPE   C1117452   1.055   4.715   6.111 -1.3085 -0.1092 -0.3088
  157SAPE  H11A17453   1.129   4.796   6.092 -0.2047 -1.0692 -0.2109
  157SAPE  H11B17454   1.114   4.625   6.138 -1.8831 -0.7438 -1.0887
  157SAPE     P17455   0.890   4.643   6.297 -0.1983 -0.0396 -0.3466
  157SAPE   O1317456   0.806   4.716   6.390  0.5259 -0.3981 -0.0002
  157SAPE   O1417457   0.821   4.546   6.215  0.2164 -0.0833  0.6933
  157SAPE   O1217458   0.963   4.756   6.211  0.2701  0.0746  0.4220
  157SAPE   O1117459   1.013   4.579   6.370  0.3353 -0.2280 -0.2438
  157SAPE    C117460   1.100   4.653   6.451 -0.2943  0.1285 -0.2154
  157SAPE    HA17461   1.203   4.610   6.451  1.0398  3.0835 -0.3133
  157SAPE    HB17462   1.118   4.754   6.408  1.4421 -1.0792 -2.5553
  157SAPE    C217463   1.042   4.658   6.598  0.4396  0.4259  1.1438
  157SAPE    HS17464   0.947   4.714   6.587 -1.1930 -2.4649 -0.7678
  157SAPE   O2117465   1.137   4.730   6.687 -0.3014 -0.2306 -0.4133
  157SAPE   C2117466   1.131   4.862   6.683  0.2589 -0.7789  0.4524
  157SAPE   O2217467   1.036   4.923   6.633 -0.4971 -0.6403 -0.4082
  157SAPE   C2217468   1.251   4.926   6.743 -0.3080  0.0067 -0.4387
  157SAPE   H2R17469   1.266   4.871   6.838  0.3670  2.0149  0.6902
  157SAPE   H2S17470   1.338   4.917   6.673  2.0445  0.1520  2.2789
  157SAPE    C317471   1.018   4.517   6.652  0.1875 -0.5665 -0.6220
  157SAPE    HX17472   1.113   4.459   6.652  0.5945  0.0898 -0.7576
  157SAPE    HY17473   0.945   4.477   6.578 -2.4204 -0.6105  1.8346
  157SAPE   O3117474   0.949   4.518   6.779 -0.8379 -0.1333  0.2969
  157SAPE   C3117475   0.904   4.398   6.799 -0.4875  0.4975  1.0669
  157SAPE   O3217476   0.919   4.301   6.726  0.3482 -0.0742 -0.0645
  157SAPE   C3217477   0.835   4.391   6.933  0.3030 -0.0890  0.3224
  157SAPE   H2X17478   0.782   4.488   6.941  1.1345  0.6930 -2.5927
  157SAPE   H2Y17479   0.917   4.386   7.008  1.2097  0.2053 -0.6308
  157SAPE   C2317480   1.212   5.071   6.783 -0.3924 -0.5041  0.6642
  157SAPE   H3R17481   1.263   5.110   6.874 -0.3550  0.4717  0.2427
  157SAPE   H3S17482   1.105   5.083   6.810 -0.2038  2.6825  0.4620
  157SAPE   C2417483   1.229   5.163   6.659  0.0086 -0.4912  0.2692
  157SAPE   H4R17484   1.163   5.252   6.661  0.4010 -0.1710 -0.5156
  157SAPE   H4S17485   1.194   5.112   6.566 -0.6841  0.5127 -0.0391
  157SAPE   C2517486   1.374   5.200   6.655 -0.6694  0.1802  0.7317
  157SAPE   H5R17487   1.439   5.135   6.593  0.9050  2.8389 -0.5770
  157SAPE   C2617488   1.426   5.310   6.709  0.4103 -0.4715  0.6065
  157SAPE   H6R17489   1.531   5.322   6.679 -0.2717 -0.3792 -1.9375
  157SAPE   C2717490   1.359   5.409   6.798 -0.5227  0.7405 -0.2840
  157SAPE   H7R17491   1.249   5.390   6.799 -0.2927 -1.2147  3.4099
  157SAPE   H7S17492   1.382   5.512   6.766  0.8143  0.1641 -1.2670
  157SAPE   C2817493   1.419   5.375   6.938 -0.0235 -0.1390  0.7306
  157SAPE   H8R17494   1.482   5.285   6.944 -1.0990 -0.8697  1.4241
  157SAPE   C2917495   1.386   5.439   7.053 -0.4595  0.1326 -0.6653
  157SAPE   H9R17496   1.432   5.406   7.148 -0.2429  0.2370 -0.7331
  157SAPE  C21017497   1.301   5.560   7.060  0.0557  0.8796 -0.2174
  157SAPE  H10R17498   1.198   5.522   7.077  0.2621 -0.2039 -1.2065
  157SAPE  H10S17499   1.314   5.605   6.960  1.7917 -2.1339 -1.5154
  157SAPE  C21117500   1.355   5.647   7.172 -0.2275 -0.1507  0.2046
  157SAPE  H11R17501   1.436   5.720   7.156 -0.0256 -0.4591 -0.1910
  157SAPE  C21217502   1.318   5.654   7.304  0.3825  1.3363 -0.2878
  157SAPE  H12R17503   1.372   5.721   7.372  3.3082 -1.0886 -0.0168
  157SAPE  C21317504   1.217   5.559   7.374 -0.1186  0.5505 -0.2001
  157SAPE  H13R17505   1.273   5.485   7.435 -0.5457  0.5029  0.1392
  157SAPE  H13S17506   1.151   5.488   7.321  0.2180 -0.1375  0.2829
  157SAPE  C21417507   1.123   5.653   7.450 -0.3552 -0.0526  0.6616
  157SAPE  H14R17508   1.073   5.732   7.392 -0.7864 -1.1897 -0.5811
  157SAPE  C21517509   1.107   5.657   7.584  0.3823  1.0441 -0.8126
  157SAPE  H15R17510   1.035   5.729   7.626  0.3293  0.8562 -0.5796
  157SAPE  C21617511   1.170   5.575   7.688 -0.3774  0.3218 -0.2361
  157SAPE  H16R17512   1.247   5.505   7.648 -1.4058 -0.0451 -1.6517
  157SAPE  H16S17513   1.095   5.518   7.747  0.7571 -1.9075 -0.8078
  157SAPE  C21717514   1.230   5.661   7.805  0.3978  0.1325  0.4873
  157SAPE  H17R17515   1.147   5.698   7.870  0.8869  1.1651  0.5540
  157SAPE  H17S17516   1.278   5.749   7.756  0.7398 -1.1771 -1.6552
  157SAPE  C21817517   1.329   5.595   7.898 -0.7463  0.1204 -0.8416
  157SAPE  H18R17518   1.418   5.550   7.848 -0.2903 -0.5712  0.5381
  157SAPE  H18S17519   1.276   5.509   7.943 -0.6584 -0.2553 -1.4508
  157SAPE  C21917520   1.386   5.687   8.007  0.2846 -0.2093 -0.7971
  157SAPE  H19R17521   1.301   5.710   8.075 -0.8219 -1.5752 -1.6653
  157SAPE  H19S17522   1.420   5.782   7.961  1.0707 -0.8125 -1.4939
  157SAPE  C22017523   1.505   5.632   8.081  0.3500  0.1904 -0.1965
  157SAPE  H20R17524   1.586   5.631   8.006  2.4351 -2.4101  1.8567
  157SAPE  H20S17525   1.486   5.529   8.119  0.9829  0.1704  0.0912
  157SAPE  H20T17526   1.548   5.689   8.167  0.1796  0.6216 -0.3963
  157SAPE   C3317527   0.737   4.275   6.946  0.4201 -0.5916  0.0036
  157SAPE   H3X17528   0.801   4.184   6.936  1.3538 -0.2192  2.1199
  157SAPE   H3Y17529   0.657   4.279   6.870 -1.6210  1.8661  2.1176
  157SAPE   C3417530   0.671   4.271   7.094 -0.9643 -0.1609  0.4439
  157SAPE   H4X17531   0.758   4.241   7.157 -0.1594  1.7565  0.3058
  157SAPE   H4Y17532   0.591   4.194   7.098 -1.7792  0.3884 -2.5714
  157SAPE   C3517533   0.612   4.393   7.143 -0.1954  0.3996 -0.0530
  157SAPE   H5X17534   0.517   4.405   7.086 -1.5078  0.8818  2.0964
  157SAPE   H5Y17535   0.683   4.477   7.127 -0.7720  0.9823  0.4008
  157SAPE   C3617536   0.581   4.383   7.289  0.2877  0.1300  0.1902
  157SAPE   H6X17537   0.670   4.356   7.349 -0.4708  0.9384  1.7328
  157SAPE   H6Y17538   0.516   4.295   7.309  3.4129 -2.0821  1.3792
  157SAPE   C3717539   0.510   4.508   7.341  0.1044  0.1923  0.1373
  157SAPE   H7X17540   0.406   4.525   7.306  0.5124  2.6448 -0.1152
  157SAPE   H7Y17541   0.554   4.597   7.290  0.5648 -0.3291 -0.3919
  157SAPE   C3817542   0.527   4.536   7.492 -0.6387  1.0818 -0.3465
  157SAPE   H8X17543   0.504   4.644   7.506  0.3366  1.0262  2.2711
  157SAPE   H8Y17544   0.634   4.515   7.516 -1.5648 -2.3791  1.4375
  157SAPE   C3917545   0.439   4.447   7.584  0.2786 -0.2150 -0.0581
  157SAPE   H9X17546   0.459   4.338   7.568  0.5155 -0.0342 -1.0777
  157SAPE   H9Y17547   0.330   4.458   7.565 -0.3184  0.9088  3.3992
  157SAPE  C31017548   0.455   4.500   7.728  0.0298  0.0152  0.4942
  157SAPE  H10X17549   0.385   4.453   7.801  0.5736 -1.2231  0.2410
  157SAPE  H10Y17550   0.431   4.608   7.736 -2.1047 -0.5069  2.1400
  157SAPE  C31117551   0.601   4.480   7.786 -0.3427  0.4363  0.1715
  157SAPE  H11X17552   0.671   4.523   7.711 -1.2343  0.0922 -0.8761
  157SAPE  H11Y17553   0.630   4.374   7.798 -1.0895  0.4301  2.4429
  157SAPE  C31217554   0.631   4.571   7.906  0.3238 -0.7044 -0.0595
  157SAPE  H12X17555   0.639   4.680   7.885 -0.2447 -0.3689  1.3043
  157SAPE  H12Y17556   0.730   4.534   7.941 -0.8817 -0.0198  4.7459
  157SAPE  C31317557   0.528   4.556   8.025 -0.7233  0.1578  0.6924
  157SAPE  H13X17558   0.526   4.450   8.059  2.3884  0.1024  0.9440
  157SAPE  H13Y17559   0.428   4.572   7.977  0.5283  1.3385 -1.6951
  157SAPE  C31417560   0.550   4.651   8.150 -1.0091  0.2681 -0.3051
  157SAPE  H14X17561   0.649   4.636   8.198 -1.4925 -0.9696  0.3569
  157SAPE  H14Y17562   0.466   4.631   8.220  0.1459 -0.5297  0.8983
  157SAPE  C31517563   0.543   4.795   8.106 -1.0308 -0.6017 -0.2197
  157SAPE  H15X17564   0.622   4.825   8.034 -1.2336 -0.8422 -0.5413
  157SAPE  H15Y17565   0.562   4.860   8.194 -1.6338 -2.4727  1.3704
  157SAPE  C31617566   0.404   4.839   8.054 -0.5442 -0.4252 -0.0272
  157SAPE  H16X17567   0.321   4.789   8.109 -0.7020  0.4517  0.5500
  157SAPE  H16Y17568   0.394   4.821   7.945  0.1184  1.9365 -0.5203
  157SAPE  C31717569   0.371   4.986   8.091 -0.2475 -0.4025  0.6186
  157SAPE  H17X17570   0.457   5.045   8.052 -0.8394  0.6822  0.9057
  157SAPE  H17Y17571   0.370   4.989   8.202 -0.4254 -2.0426  0.6838
  157SAPE  C31817572   0.235   5.032   8.030  0.6420  0.6570  0.4424
  157SAPE  H18X17573   0.166   4.947   8.049  1.9493 -0.8988 -1.4189
  157SAPE  H18Y17574   0.241   5.040   7.920  0.5257  1.1050  0.4652
  157SAPE  H18Z17575   0.195   5.127   8.073  1.4839  0.7996  0.9273
  158SAPE     N17576   3.141   1.301   6.446  0.0692 -0.2323 -0.1022
  158SAPE   HN117577   3.123   1.384   6.387  0.4593 -0.0728 -0.0008
  158SAPE   HN217578   3.245   1.294   6.446  0.3043  2.1909  0.6144
  158SAPE   HN317579   3.097   1.219   6.400 -1.0953  0.8172 -0.9259
  158SAPE   C1217580   3.089   1.345   6.581  0.3807 -0.4038 -0.5926
  158SAPE  H12A17581   3.142   1.437   6.612 -1.7548  1.1533 -1.3306
  158SAPE  H12B17582   3.109   1.265   6.656 -1.4993  1.4247  2.0846
  158SAPE   C1117583   2.934   1.369   6.560  0.6179 -0.7944 -0.5180
  158SAPE  H11A17584   2.902   1.437   6.641 -2.2592 -1.8007 -0.6871
  158SAPE  H11B17585   2.887   1.270   6.579  0.1280 -0.3718  0.5272
  158SAPE     P17586   2.771   1.456   6.363 -0.2558 -0.0503 -0.2223
  158SAPE   O1317587   2.764   1.608   6.349 -0.6943  0.3544  0.7153
  158SAPE   O1417588   2.745   1.368   6.250 -0.2057 -0.0311  0.0577
  158SAPE   O1217589   2.908   1.429   6.432  0.1507  0.6497 -0.5111
  158SAPE   O1117590   2.679   1.413   6.473  0.6796  0.4318 -0.3221
  158SAPE    C117591   2.579   1.312   6.472  0.2839  0.1130  0.6011
  158SAPE    HA17592   2.505   1.342   6.394  0.2818  2.3469  1.4017
  158SAPE    HB17593   2.610   1.210   6.441 -1.6200 -0.3235  0.0360
  158SAPE    C217594   2.510   1.298   6.600  0.1307 -0.0176 -0.7968
  158SAPE    HS17595   2.448   1.206   6.596  1.1956 -0.7133 -1.8777
  158SAPE   O2117596   2.428   1.402   6.642  0.2413 -0.4114  0.0946
  158SAPE   C2117597   2.304   1.407   6.590 -0.5939  0.1662 -0.1931
  158SAPE   O2217598   2.265   1.323   6.512  0.3094 -0.3665 -0.3654
  158SAPE   C2217599   2.213   1.520   6.642 -0.0362  0.5794  0.4325
  158SAPE   H2R17600   2.232   1.614   6.586  1.5882 -0.4751 -0.8880
  158SAPE   H2S17601   2.104   1.501   6.631 -0.0898  1.1527 -0.1106
  158SAPE    C317602   2.602   1.263   6.720 -0.0683  0.1168  1.2566
  158SAPE    HX17603   2.678   1.341   6.737  0.3878  0.3061 -1.2784
  158SAPE    HY17604   2.666   1.180   6.684 -0.4329 -0.0464  0.9730
  158SAPE   O3117605   2.532   1.239   6.842 -0.1391 -0.1981 -0.7575
  158SAPE   C3117606   2.506   1.345   6.923  0.5040  0.1428  0.5636
  158SAPE   O3217607   2.541   1.457   6.892  0.1268  0.6532 -0.7074
  158SAPE   C3217608   2.406   1.306   7.032 -0.2524 -0.1575  0.4986
  158SAPE   H2X17609   2.387   1.197   7.030  1.6372 -0.5177  1.1641
  158SAPE   H2Y17610   2.316   1.371   7.022 -0.1558  0.0662  1.0320
  158SAPE   C2317611   2.246   1.543   6.795  0.1671  0.5255  0.3465
  158SAPE   H3R17612   2.334   1.611   6.802 -0.6356  1.7811 -1.2855
  158SAPE   H3S17613   2.262   1.444   6.843 -0.5296  0.2144 -0.0457
  158SAPE   C2417614   2.137   1.619   6.880  0.0880 -0.3155  0.6108
  158SAPE   H4R17615   2.130   1.719   6.834  0.4376 -0.6561 -0.2140
  158SAPE   H4S17616   2.179   1.619   6.983 -1.9504  1.4312  1.5010
  158SAPE   C2517617   2.009   1.539   6.881 -0.0119  0.2034  0.2073
  158SAPE   H5R17618   1.968   1.519   6.781  0.4913 -0.4543  0.1245
  158SAPE   C2617619   1.953   1.482   6.992 -0.0577 -0.3750  0.7378
  158SAPE   H6R17620   1.863   1.422   6.970  0.0735 -0.4984  0.5240
  158SAPE   C2717621   2.014   1.490   7.127 -0.2111  0.5474 -0.0994
  158SAPE   H7R17622   2.124   1.479   7.130 -0.3319 -0.7145  0.4027
  158SAPE   H7S17623   1.961   1.410   7.184  0.7026 -0.5672 -0.7912
  158SAPE   C2817624   1.975   1.612   7.202 -0.9622  0.2423  0.3852
  158SAPE   H8R17625   1.960   1.698   7.136  1.5629  0.9868  0.7095
  158SAPE   C2917626   1.957   1.632   7.338 -0.4150  0.0999 -0.5582
  158SAPE   H9R17627   1.941   1.737   7.367 -0.0458  1.0989 -3.6716
  158SAPE  C21017628   1.989   1.530   7.446  0.4799  0.8429  0.3033
  158SAPE  H10R17629   2.088   1.549   7.494  0.7517 -1.6475  0.8656
  158SAPE  H10S17630   2.000   1.427   7.405 -1.4937  0.9375 -0.5590
  158SAPE  C21117631   1.882   1.525   7.549  0.4436  0.8601 -0.0978
  158SAPE  H11R17632   1.808   1.448   7.523  1.2976  0.4561 -1.4333
  158SAPE  C21217633   1.879   1.594   7.666 -1.0654  0.1250 -0.7439
  158SAPE  H12R17634   1.814   1.565   7.750  0.2170  1.4289  0.7611
  158SAPE  C21317635   1.979   1.699   7.711  0.4067 -0.0440  0.1566
  158SAPE  H13R17636   1.935   1.798   7.737  0.4558  0.1579 -0.5185
  158SAPE  H13S17637   2.045   1.724   7.625 -0.7483 -0.6016 -0.9162
  158SAPE  C21417638   2.047   1.639   7.837  0.4708  0.0046 -0.3733
  158SAPE  H14R17639   2.130   1.573   7.806  0.2937 -0.7866  0.7701
  158SAPE  C21517640   2.013   1.649   7.970  0.1436 -0.4132  1.2495
  158SAPE  H15R17641   2.066   1.594   8.049  0.2359 -1.1280  0.6955
  158SAPE  C21617642   1.899   1.735   8.011 -0.5432  0.6705  0.5479
  158SAPE  H16R17643   1.813   1.666   8.024  0.3274 -1.3678 -3.1147
  158SAPE  H16S17644   1.851   1.795   7.931 -0.6092  1.0704  0.8830
  158SAPE  C21717645   1.925   1.822   8.136 -0.2247 -0.1521 -0.3823
  158SAPE  H17R17646   1.861   1.912   8.134  0.0521  0.2757  3.3249
  158SAPE  H17S17647   2.029   1.859   8.148  0.1488 -2.0007  3.9300
  158SAPE  C21817648   1.888   1.745   8.266  0.5122 -0.8279  0.2541
  158SAPE  H18R17649   1.935   1.790   8.357 -1.3668 -3.0609  2.4472
  158SAPE  H18S17650   1.925   1.643   8.242  0.1535 -0.5169 -1.7382
  158SAPE  C21917651   1.740   1.727   8.294  0.5753 -0.5475 -0.3354
  158SAPE  H19R17652   1.747   1.674   8.391  1.7094  0.5476  0.2005
  158SAPE  H19S17653   1.692   1.664   8.217 -0.7661  0.8209 -0.6730
  158SAPE  C22017654   1.664   1.864   8.307  0.2739 -0.0109  0.6317
  158SAPE  H20R17655   1.709   1.933   8.381  1.9347 -1.2361  0.8123
  158SAPE  H20S17656   1.560   1.830   8.328  0.4205 -1.4714 -0.8033
  158SAPE  H20T17657   1.661   1.914   8.207 -1.2980 -0.4707  0.4191
  158SAPE   C3317658   2.457   1.351   7.173 -0.4016  0.6386 -0.6904
  158SAPE   H3X17659   2.502   1.453   7.168 -2.2663  1.4473 -2.2033
  158SAPE   H3Y17660   2.538   1.282   7.204  0.0625  1.0737 -0.9117
  158SAPE   C3417661   2.349   1.332   7.279  0.2412  0.1098 -0.0822
  158SAPE   H4X17662   2.306   1.230   7.282 -1.9026  0.9789  1.2563
  158SAPE   H4Y17663   2.264   1.401   7.259 -1.8979 -2.7822 -1.6781
  158SAPE   C3517664   2.404   1.361   7.420 -0.5642 -0.2778 -0.6625
  158SAPE   H5X17665   2.406   1.469   7.442 -0.2778 -0.7579  2.0679
  158SAPE   H5Y17666   2.509   1.327   7.434 -1.1074 -1.1462  1.7708
  158SAPE   C3617667   2.320   1.304   7.540 -0.2198  0.0573 -0.5612
  158SAPE   H6X17668   2.335   1.194   7.531  0.4640  0.1083 -0.1292
  158SAPE   H6Y17669   2.215   1.334   7.519  0.2935  1.8907 -0.6786
  158SAPE   C3717670   2.374   1.359   7.670  0.4411 -0.0362 -0.1891
  158SAPE   H7X17671   2.482   1.333   7.667  0.3916 -0.1971 -0.9042
  158SAPE   H7Y17672   2.364   1.469   7.672 -0.3609 -0.1017 -0.3638
  158SAPE   C3817673   2.321   1.291   7.804 -0.9308  0.5506 -0.1373
  158SAPE   H8X17674   2.354   1.185   7.800 -1.0084  0.5362 -0.4043
  158SAPE   H8Y17675   2.210   1.288   7.805 -0.9454  0.5187  1.5442
  158SAPE   C3917676   2.381   1.370   7.918  0.1999  0.0302 -0.3751
  158SAPE   H9X17677   2.349   1.476   7.908 -1.1737 -0.2327  0.8634
  158SAPE   H9Y17678   2.492   1.380   7.914  0.0282  1.9871 -1.7545
  158SAPE  C31017679   2.352   1.312   8.049  0.3867 -0.2896 -0.2601
  158SAPE  H10X17680   2.392   1.208   8.058  1.2648 -0.0461 -1.1554
  158SAPE  H10Y17681   2.245   1.295   8.071  1.0141 -1.2872  2.5572
  158SAPE  C31117682   2.398   1.392   8.174  0.0722  0.5580 -0.4278
  158SAPE  H11X17683   2.493   1.445   8.152  2.3519 -2.6110  0.9049
  158SAPE  H11Y17684   2.396   1.310   8.249 -0.3807 -0.5395 -1.5943
  158SAPE  C31217685   2.285   1.481   8.234  0.5062 -0.2215 -1.0705
  158SAPE  H12X17686   2.196   1.414   8.235  0.2749  0.0836  0.0071
  158SAPE  H12Y17687   2.270   1.570   8.170 -2.1781  0.4114  0.2945
  158SAPE  C31317688   2.305   1.529   8.382 -0.1092 -0.7436  0.0632
  158SAPE  H13X17689   2.239   1.612   8.417 -1.2118 -0.7496 -1.8498
  158SAPE  H13Y17690   2.391   1.596   8.362  0.4485 -2.3068 -3.5593
  158SAPE  C31417691   2.318   1.420   8.486 -0.7445 -0.1413 -0.5818
  158SAPE  H14X17692   2.420   1.379   8.470 -0.5599  0.3810 -0.7511
  158SAPE  H14Y17693   2.243   1.340   8.468 -0.1371 -0.6941 -0.6728
  158SAPE  C31517694   2.308   1.477   8.630 -0.1117 -0.1902  0.0881
  158SAPE  H15X17695   2.305   1.391   8.701  0.6269  0.1017  0.4793
  158SAPE  H15Y17696   2.223   1.548   8.639  0.9763  1.0996  0.6090
  158SAPE  C31617697   2.444   1.549   8.680  0.4668  0.4368  0.2139
  158SAPE  H16X17698   2.454   1.644   8.624  1.6508  0.2787  0.1235
  158SAPE  H16Y17699   2.520   1.472   8.652 -0.6866 -1.4139  1.8732
  158SAPE  C31717700   2.455   1.572   8.831  0.1762  0.4759  0.4551
  158SAPE  H17X17701   2.424   1.481   8.886  1.6438 -0.6312 -0.4913
  158SAPE  H17Y17702   2.385   1.656   8.853  0.5875  1.1396 -0.6671
  158SAPE  C31817703   2.593   1.627   8.871  0.0761 -0.0093 -0.0687
  158SAPE  H18X17704   2.625   1.722   8.823 -1.5763  0.2743 -0.7101
  158SAPE  H18Y17705   2.661   1.548   8.833  0.1066 -0.3164  0.6177
  158SAPE  H18Z17706   2.602   1.639   8.981  0.5217 -0.1145 -0.0952
  159SAPE     N17707   3.346   4.773   6.091 -0.1568 -0.6550 -1.0399
  159SAPE   HN117708   3.248   4.738   6.094 -0.4562  0.1793 -0.5555
  159SAPE   HN217709   3.378   4.768   6.190  0.7103 -0.1923 -1.2895
  159SAPE   HN317710   3.344   4.873   6.062  0.0416 -0.7508 -1.3831
  159SAPE   C1217711   3.440   4.705   5.991  0.8316  0.2219  0.0873
  159SAPE  H12A17712   3.531   4.767   5.999  1.6349 -1.0988  1.7796
  159SAPE  H12B17713   3.396   4.711   5.889  0.8925  1.6874  0.1273
  159SAPE   C1117714   3.472   4.558   6.017 -0.3168  0.1456  0.5416
  159SAPE  H11A17715   3.524   4.514   5.929 -2.8782 -1.0214 -0.4907
  159SAPE  H11B17716   3.379   4.498   6.024 -0.4330  0.1867 -0.5206
  159SAPE     P17717   3.588   4.412   6.210  0.1936  0.0932  0.0817
  159SAPE   O1317718   3.658   4.319   6.114  0.0711  0.3454  0.0641
  159SAPE   O1417719   3.670   4.438   6.330  0.3152 -0.4863  0.8863
  159SAPE   O1217720   3.546   4.547   6.141 -0.1265 -0.1826  0.2174
  159SAPE   O1117721   3.444   4.345   6.241 -0.0004  0.7175  0.6273
  159SAPE    C117722   3.441   4.220   6.321 -0.2108 -0.3741 -0.4053
  159SAPE    HA17723   3.362   4.153   6.280 -1.0163 -0.7867  1.7084
  159SAPE    HB17724   3.537   4.164   6.320  0.0310  0.0316 -0.1653
  159SAPE    C217725   3.392   4.225   6.473  0.8701  0.4220  0.1581
  159SAPE    HS17726   3.294   4.277   6.467  0.6134  0.1397  1.5538
  159SAPE   O2117727   3.480   4.305   6.559  0.5390  0.0563  0.5546
  159SAPE   C2117728   3.446   4.438   6.570 -0.0334 -0.0222  0.2878
  159SAPE   O2217729   3.339   4.491   6.547 -0.4544 -0.2144  0.2197
  159SAPE   C2217730   3.578   4.516   6.603  0.0415 -0.2428 -0.0661
  159SAPE   H2R17731   3.662   4.448   6.578 -0.3209 -0.5080 -0.5817
  159SAPE   H2S17732   3.564   4.600   6.531 -1.1205  1.7982  2.3929
  159SAPE    C317733   3.363   4.086   6.542  0.1214 -0.1783 -0.8391
  159SAPE    HX17734   3.447   4.021   6.512 -0.9144 -0.1701 -4.1247
  159SAPE    HY17735   3.276   4.034   6.497 -0.6000 -1.5348  1.8980
  159SAPE   O3117736   3.347   4.084   6.686 -0.6152 -0.0047 -0.2806
  159SAPE   C3117737   3.237   4.134   6.739  1.2782  0.0340 -0.2265
  159SAPE   O3217738   3.148   4.189   6.674 -0.1465  0.1027  0.1078
  159SAPE   C3217739   3.232   4.105   6.893  0.6396  0.1089  0.5524
  159SAPE   H2X17740   3.260   3.997   6.899  1.5172  0.3090  0.1388
  159SAPE   H2Y17741   3.127   4.112   6.929 -0.1991  0.8975 -1.8518
  159SAPE   C2317742   3.560   4.572   6.744  1.0310 -0.0373  0.4008
  159SAPE   H3R17743   3.542   4.488   6.814  0.5734  0.0492  0.3914
  159SAPE   H3S17744   3.480   4.649   6.743  0.5350 -0.4798 -2.1655
  159SAPE   C2417745   3.692   4.621   6.813  0.0586  0.9166  0.1648
  159SAPE   H4R17746   3.658   4.676   6.903  1.5802  2.5454 -0.1941
  159SAPE   H4S17747   3.750   4.692   6.750  1.2581  0.6181  0.8953
  159SAPE   C2517748   3.795   4.522   6.855  0.1890  0.2712  0.1232
  159SAPE   H5R17749   3.841   4.473   6.768 -1.1067 -1.3971  0.3099
  159SAPE   C2617750   3.829   4.480   6.980 -0.0059 -0.1052 -0.4538
  159SAPE   H6R17751   3.912   4.409   6.990 -1.1630 -1.2234  1.8246
  159SAPE   C2717752   3.780   4.524   7.113  0.6433 -0.6230  0.2919
  159SAPE   H7R17753   3.752   4.435   7.173 -2.0450 -0.0523  0.0021
  159SAPE   H7S17754   3.684   4.577   7.099  0.1106 -2.1360 -2.3179
  159SAPE   C2817755   3.868   4.628   7.174  0.1569  0.0064  0.5335
  159SAPE   H8R17756   3.898   4.714   7.112 -1.6059 -0.2727 -0.8019
  159SAPE   C2917757   3.904   4.633   7.306  0.0857  0.5593 -0.5978
  159SAPE   H9R17758   3.957   4.719   7.349 -0.3979  0.0070  1.1857
  159SAPE  C21017759   3.867   4.527   7.411  0.1830  0.5083 -0.8981
  159SAPE  H10R17760   3.939   4.523   7.496 -2.3964  0.9070  1.4328
  159SAPE  H10S17761   3.877   4.428   7.363 -2.0762  0.4722 -1.3656
  159SAPE  C21117762   3.721   4.540   7.453 -0.2705  0.4788  0.0084
  159SAPE  H11R17763   3.652   4.523   7.369 -2.1007  0.7284  1.3952
  159SAPE  C21217764   3.672   4.578   7.578  0.4418  0.8711  0.8014
  159SAPE  H12R17765   3.563   4.582   7.597  0.2942  0.0040  0.2274
  159SAPE  C21317766   3.749   4.624   7.696  0.1119 -0.2454 -0.0979
  159SAPE  H13R17767   3.785   4.532   7.747  0.5532 -0.7644 -1.3124
  159SAPE  H13S17768   3.676   4.672   7.765  0.8033  0.1585  0.3659
  159SAPE  C21417769   3.861   4.723   7.675 -0.1840 -0.0101  0.1371
  159SAPE  H14R17770   3.829   4.808   7.613 -0.5225 -1.1203 -1.2697
  159SAPE  C21517771   3.989   4.711   7.726 -0.3890 -0.2257 -0.5105
  159SAPE  H15R17772   4.048   4.804   7.720 -1.0493  0.4568  2.0665
  159SAPE  C21617773   4.045   4.590   7.805 -0.0619 -0.8731 -0.6125
  159SAPE  H16R17774   4.154   4.581   7.787  1.5252  2.7136  4.7058
  159SAPE  H16S17775   3.991   4.501   7.765  1.0200 -1.4498 -0.8239
  159SAPE  C21717776   4.011   4.602   7.955  0.6021  0.0536  0.0738
  159SAPE  H17R17777   3.901   4.609   7.969  0.3374 -1.4407 -1.1013
  159SAPE  H17S17778   4.066   4.688   8.000  0.0875  1.7317 -2.2821
  159SAPE  C21817779   4.032   4.466   8.031 -0.5145  0.2759  0.7928
  159SAPE  H18R17780   3.962   4.388   7.994  0.6933 -0.8025  0.7129
  159SAPE  H18S17781   4.012   4.489   8.138 -2.1292  1.8000  0.2074
  159SAPE  C21917782   4.176   4.404   8.019  0.1204 -0.6378 -0.1290
  159SAPE  H19R17783   4.204   4.383   7.914 -1.3409 -1.7147 -0.3289
  159SAPE  H19S17784   4.191   4.308   8.072  2.7716 -0.0728  0.2962
  159SAPE  C22017785   4.287   4.496   8.075 -0.3555 -0.6461 -0.4429
  159SAPE  H20R17786   4.390   4.453   8.068  0.1426  0.3570  0.3688
  159SAPE  H20S17787   4.281   4.518   8.183  0.3565 -1.4065 -0.2399
  159SAPE  H20T17788   4.283   4.593   8.021  1.2631 -0.9370 -1.1744
  159SAPE   C3317789   3.323   4.195   6.981  0.3105 -0.5686  0.1752
  159SAPE   H3X17790   3.421   4.172   6.933  0.9279  0.4334  0.9219
  159SAPE   H3Y17791   3.327   4.169   7.089  0.1459  0.3409  0.4084
  159SAPE   C3417792   3.296   4.347   6.970 -0.8322 -0.0543 -0.3071
  159SAPE   H4X17793   3.193   4.379   6.996 -0.8333 -0.4882  0.2460
  159SAPE   H4Y17794   3.316   4.367   6.863 -1.3380  1.4145 -0.1519
  159SAPE   C3517795   3.402   4.429   7.046 -0.5664  0.2873  0.4748
  159SAPE   H5X17796   3.418   4.526   6.994  3.4385  0.2465  1.3066
  159SAPE   H5Y17797   3.504   4.385   7.049 -1.2394 -1.7006 -1.9953
  159SAPE   C3617798   3.371   4.477   7.194 -0.1303  0.0827 -1.1481
  159SAPE   H6X17799   3.266   4.513   7.197 -0.2593 -0.3556  0.0870
  159SAPE   H6Y17800   3.439   4.562   7.216  2.1973 -1.9399  0.0386
  159SAPE   C3717801   3.386   4.372   7.300  0.0537  0.0185 -0.6017
  159SAPE   H7X17802   3.493   4.345   7.305  0.1487  0.2634 -1.2006
  159SAPE   H7Y17803   3.334   4.275   7.284  1.9639 -1.0748 -0.4308
  159SAPE   C3817804   3.362   4.423   7.449 -0.1359  0.0657 -0.1329
  159SAPE   H8X17805   3.271   4.486   7.454  0.3630  0.8516 -0.7553
  159SAPE   H8Y17806   3.445   4.491   7.476 -0.9406  1.7957 -1.8301
  159SAPE   C3917807   3.361   4.305   7.547  0.1435 -0.0482 -0.4071
  159SAPE   H9X17808   3.462   4.317   7.592 -1.1412  3.1068  2.0603
  159SAPE   H9Y17809   3.337   4.207   7.500 -0.5524  0.0634 -0.3030
  159SAPE  C31017810   3.254   4.342   7.659  0.4125 -0.1084  0.5203
  159SAPE  H10X17811   3.149   4.313   7.636  0.4186 -0.7634  1.2479
  159SAPE  H10Y17812   3.262   4.453   7.661  1.4117 -0.0951 -1.4421
  159SAPE  C31117813   3.282   4.299   7.801  0.5636  0.3491 -0.4021
  159SAPE  H11X17814   3.275   4.189   7.810 -0.8201  0.5615  2.0869
  159SAPE  H11Y17815   3.200   4.343   7.861  2.1490 -0.0784  2.2220
  159SAPE  C31217816   3.409   4.355   7.873  1.0882  0.2286 -0.1731
  159SAPE  H12X17817   3.446   4.439   7.810 -1.0112 -0.9958 -3.2726
  159SAPE  H12Y17818   3.488   4.277   7.871  1.8642  0.7767  3.1835
  159SAPE  C31317819   3.385   4.399   8.020 -0.0828 -0.2726 -0.0199
  159SAPE  H13X17820   3.310   4.340   8.076  0.2249  1.5482  2.4759
  159SAPE  H13Y17821   3.332   4.496   8.021 -0.0703 -0.2269 -1.5440
  159SAPE  C31417822   3.511   4.384   8.107 -0.6872  0.3173  0.3994
  159SAPE  H14X17823   3.598   4.438   8.064 -0.1989 -0.9656 -0.2926
  159SAPE  H14Y17824   3.554   4.281   8.112 -0.2133  0.4743 -0.2629
  159SAPE  C31517825   3.498   4.428   8.256  0.3152 -0.1035  0.1193
  159SAPE  H15X17826   3.456   4.340   8.309  1.3940 -0.2878  0.6806
  159SAPE  H15Y17827   3.425   4.507   8.282 -1.0214 -1.4852  0.7611
  159SAPE  C31617828   3.634   4.457   8.319  0.2310  0.6086  0.5239
  159SAPE  H16X17829   3.716   4.407   8.263 -2.6253 -0.6406 -2.8624
  159SAPE  H16Y17830   3.629   4.441   8.429  2.5458  0.3018  0.6311
  159SAPE  C31717831   3.675   4.605   8.303 -0.1765 -0.1038  0.6697
  159SAPE  H17X17832   3.670   4.646   8.200  0.3210  1.4944  1.2587
  159SAPE  H17Y17833   3.779   4.613   8.340  1.1981 -1.5046 -2.5019
  159SAPE  C31817834   3.599   4.715   8.378 -0.2157 -0.1569  0.0924
  159SAPE  H18X17835   3.628   4.819   8.356  2.0333  0.2887  4.0961
  159SAPE  H18Y17836   3.605   4.697   8.488 -0.7065 -1.9075 -0.1278
  159SAPE  H18Z17837   3.490   4.714   8.358 -0.8180 -2.9424  2.6638
  160SAPE     N17838   2.122   2.420   6.454 -0.6713 -0.5452 -0.5395
  160SAPE   HN117839   2.218   2.456   6.440 -0.9223  1.2406  1.7793
  160SAPE   HN217840   2.061   2.445   6.374 -0.7809  0.1858 -0.2335
  160SAPE   HN317841   2.091   2.451   6.548  2.3971 -2.3386  1.2236
  160SAPE   C1217842   2.116   2.272   6.463  0.8898 -0.0594 -0.0709
  160SAPE  H12A17843   2.195   2.237   6.533 -0.0393 -2.1333  0.0208
  160SAPE  H12B17844   2.157   2.229   6.369  0.6049 -1.4829  0.4265
  160SAPE   C1117845   1.971   2.224   6.492  0.8371 -0.1570 -0.2087
  160SAPE  H11A17846   1.908   2.284   6.560  2.0014 -2.1669  2.8875
  160SAPE  H11B17847   1.974   2.126   6.545 -0.8579 -0.5136 -0.7235
  160SAPE     P17848   1.818   2.307   6.291  0.1485 -0.0155  0.1948
  160SAPE   O1317849   1.890   2.441   6.299  0.1539  0.4269 -0.0176
  160SAPE   O1417850   1.776   2.263   6.157  0.4630  0.4366  0.0512
  160SAPE   O1217851   1.900   2.196   6.368 -0.3014 -0.0451 -0.3390
  160SAPE   O1117852   1.691   2.310   6.383  0.4176  0.1710 -0.3173
  160SAPE    C117853   1.638   2.197   6.450 -1.2880  0.1713  0.1142
  160SAPE    HA17854   1.654   2.107   6.387  0.3720 -0.4916  1.4076
  160SAPE    HB17855   1.701   2.185   6.541 -1.8253 -0.3521  0.4163
  160SAPE    C217856   1.491   2.212   6.485  0.0245 -0.7458  0.1441
  160SAPE    HS17857   1.439   2.252   6.395 -1.0659 -1.2804  0.5177
  160SAPE   O2117858   1.493   2.312   6.594  0.3768 -0.7090  0.6916
  160SAPE   C2117859   1.379   2.369   6.613  0.2114 -0.7826  0.1833
  160SAPE   O2217860   1.277   2.355   6.544 -0.3541  0.7034 -0.4439
  160SAPE   C2217861   1.394   2.463   6.730 -0.1327 -1.1811 -0.2379
  160SAPE   H2R17862   1.437   2.400   6.811  1.3863 -0.3368 -0.3511
  160SAPE   H2S17863   1.473   2.535   6.697  0.3975 -1.6565 -0.0233
  160SAPE    C317864   1.423   2.088   6.544 -0.5383 -0.1359 -0.0616
  160SAPE    HX17865   1.429   2.003   6.473  1.8009 -0.1601  0.0910
  160SAPE    HY17866   1.315   2.112   6.554 -0.4808  1.2101 -1.9241
  160SAPE   O3117867   1.500   2.056   6.664  0.7268 -0.1314  0.0414
  160SAPE   C3117868   1.440   2.063   6.782  0.3101 -0.1051  0.5254
  160SAPE   O3217869   1.320   2.078   6.793 -0.8553 -0.1221 -0.2963
  160SAPE   C3217870   1.536   2.024   6.892 -0.1306 -0.4838 -0.2604
  160SAPE   H2X17871   1.593   2.113   6.925 -1.5741  1.3513 -2.3811
  160SAPE   H2Y17872   1.606   1.942   6.866  1.6001  0.5630  0.9084
  160SAPE   C2317873   1.270   2.540   6.771  0.3707 -0.1499 -0.3797
  160SAPE   H3R17874   1.231   2.596   6.684 -1.2160 -2.9191 -1.5608
  160SAPE   H3S17875   1.301   2.621   6.841 -1.1596  2.6531 -2.6973
  160SAPE   C2417876   1.151   2.459   6.834 -1.0172  0.0206  0.3106
  160SAPE   H4R17877   1.112   2.397   6.751  1.7098 -1.0358 -0.3200
  160SAPE   H4S17878   1.074   2.534   6.860 -0.2936  1.9236 -2.5699
  160SAPE   C2517879   1.207   2.381   6.957  0.1922 -0.3089  0.3524
  160SAPE   H5R17880   1.255   2.288   6.925  0.2531 -0.0331 -0.3787
  160SAPE   C2617881   1.198   2.407   7.088 -0.5741 -0.2769  0.0359
  160SAPE   H6R17882   1.245   2.337   7.159  0.5562  1.0774  0.6765
  160SAPE   C2717883   1.145   2.534   7.150  0.7291 -0.1116 -0.3507
  160SAPE   H7R17884   1.034   2.538   7.147  0.7487  1.5434  0.3848
  160SAPE   H7S17885   1.178   2.624   7.094  2.0464  1.3448  2.5854
  160SAPE   C2817886   1.190   2.539   7.288 -0.4226  0.2435 -0.5194
  160SAPE   H8R17887   1.294   2.574   7.296 -0.0039 -0.9401 -0.7019
  160SAPE   C2917888   1.130   2.508   7.404  0.1516 -0.1214  0.1082
  160SAPE   H9R17889   1.176   2.524   7.502 -2.2108 -3.1749  1.8945
  160SAPE  C21017890   0.984   2.470   7.417  0.4794  0.4444 -0.9064
  160SAPE  H10R17891   0.996   2.360   7.427 -0.5508  0.3521 -0.6078
  160SAPE  H10S17892   0.931   2.497   7.323 -1.3872  0.3969  0.0915
  160SAPE  C21117893   0.925   2.535   7.537  0.1040 -0.6912 -0.0804
  160SAPE  H11R17894   0.880   2.633   7.511 -1.0154 -1.4280 -1.0209
  160SAPE  C21217895   0.910   2.486   7.656  0.1109  0.9610 -0.3615
  160SAPE  H12R17896   0.853   2.550   7.726 -1.5124 -0.5759 -0.1775
  160SAPE  C21317897   0.947   2.350   7.709 -0.5116  0.8181 -0.4952
  160SAPE  H13R17898   0.911   2.266   7.645  1.2096 -0.3801  0.0234
  160SAPE  H13S17899   0.899   2.344   7.809  1.1630  1.4817  0.3985
  160SAPE  C21417900   1.090   2.328   7.746  0.3333 -0.0192  0.3174
  160SAPE  H14R17901   1.122   2.402   7.820 -0.4240  0.8546 -0.2144
  160SAPE  C21517902   1.172   2.243   7.687 -0.6608 -0.0375  0.9283
  160SAPE  H15R17903   1.276   2.227   7.718 -0.7244  0.8631  1.6344
  160SAPE  C21617904   1.144   2.140   7.580  0.2554 -0.3097  0.2230
  160SAPE  H16R17905   1.052   2.164   7.522  1.0216 -0.2390 -0.9987
  160SAPE  H16S17906   1.126   2.040   7.624  1.1026 -0.5999 -0.0820
  160SAPE  C21717907   1.252   2.134   7.467  0.0055 -0.2884 -0.3992
  160SAPE  H17R17908   1.354   2.135   7.512  1.0035  1.1159 -2.4919
  160SAPE  H17S17909   1.255   2.206   7.383  0.1909 -0.4795 -0.5580
  160SAPE  C21817910   1.245   1.994   7.401  0.2363  0.0705 -0.2879
  160SAPE  H18R17911   1.220   1.929   7.488 -1.3594  1.8297  0.6334
  160SAPE  H18S17912   1.342   1.968   7.354  0.3259  0.4236 -0.3000
  160SAPE  C21917913   1.145   1.981   7.283  0.0734  0.4953  0.2858
  160SAPE  H19R17914   1.186   2.043   7.200 -1.6099  0.1294 -0.8627
  160SAPE  H19S17915   1.046   2.018   7.316 -0.1343  1.3955 -1.2474
  160SAPE  C22017916   1.126   1.841   7.239 -0.0210 -0.4978  0.3193
  160SAPE  H20R17917   1.021   1.806   7.226  0.4518 -1.3951 -1.3905
  160SAPE  H20S17918   1.178   1.769   7.305 -0.5828 -0.0170  1.3116
  160SAPE  H20T17919   1.170   1.842   7.137  0.0257 -0.9200  0.3332
  160SAPE   C3317920   1.444   1.968   7.004  1.0594  0.1254  0.1834
  160SAPE   H3X17921   1.382   1.888   6.957 -0.6316  1.1860  0.5197
  160SAPE   H3Y17922   1.387   2.052   7.050 -0.1331 -1.1494  1.1063
  160SAPE   C3417923   1.526   1.904   7.120 -0.0019  0.8582  0.2118
  160SAPE   H4X17924   1.591   1.832   7.067  0.3890  1.6494 -0.4078
  160SAPE   H4Y17925   1.467   1.843   7.192 -2.9514  1.3149 -1.6321
  160SAPE   C3517926   1.618   1.998   7.198  0.1330 -0.4475  0.4218
  160SAPE   H5X17927   1.553   2.055   7.268  0.1751 -2.2046  1.9888
  160SAPE   H5Y17928   1.684   2.054   7.128  1.2076  0.5263  2.1396
  160SAPE   C3617929   1.726   1.921   7.288 -0.0682 -0.1431 -0.0231
  160SAPE   H6X17930   1.789   1.880   7.206 -2.5476 -0.6632 -1.7997
  160SAPE   H6Y17931   1.685   1.833   7.344 -0.8282  0.3738  0.2485
  160SAPE   C3717932   1.788   2.015   7.382 -0.6428  0.0561 -0.0813
  160SAPE   H7X17933   1.814   2.106   7.324  0.1817 -0.3814 -0.4238
  160SAPE   H7Y17934   1.887   1.967   7.401  0.0030  1.1876 -0.4948
  160SAPE   C3817935   1.718   2.045   7.509  0.0336  0.2201  0.0584
  160SAPE   H8X17936   1.723   1.940   7.544 -3.3363  0.7155  2.5358
  160SAPE   H8Y17937   1.619   2.088   7.484  0.6755  0.7591 -1.6514
  160SAPE   C3917938   1.804   2.132   7.606  0.1936 -0.6358  0.0741
  160SAPE   H9X17939   1.776   2.234   7.572 -1.0922 -0.8297  0.5250
  160SAPE   H9Y17940   1.914   2.123   7.589  0.2779 -0.9420  0.7242
  160SAPE  C31017941   1.771   2.120   7.752  0.6100 -0.6802 -0.4249
  160SAPE  H10X17942   1.809   2.021   7.785 -0.2964  0.1842  3.9085
  160SAPE  H10Y17943   1.661   2.130   7.767  0.7813 -1.6548  1.8846
  160SAPE  C31117944   1.844   2.234   7.833  0.0890  0.5220 -0.4398
  160SAPE  H11X17945   1.808   2.338   7.815 -1.5256 -0.0322 -0.5746
  160SAPE  H11Y17946   1.952   2.226   7.810  0.1454  0.0642 -0.0061
  160SAPE  C31217947   1.847   2.210   7.985  0.4548  0.1404  0.0282
  160SAPE  H12X17948   1.901   2.114   8.000 -0.2043 -0.2698 -0.2073
  160SAPE  H12Y17949   1.743   2.200   8.021 -0.1064 -0.0133 -1.5307
  160SAPE  C31317950   1.919   2.331   8.047  0.3581  0.4609 -0.1580
  160SAPE  H13X17951   1.868   2.425   8.017 -0.6393 -0.2431 -0.7416
  160SAPE  H13Y17952   2.023   2.340   8.012  0.1966  1.7854 -0.3346
  160SAPE  C31417953   1.918   2.321   8.200 -0.4471 -0.2131 -0.0094
  160SAPE  H14X17954   1.816   2.290   8.232 -0.2629 -2.1642 -1.1427
  160SAPE  H14Y17955   1.934   2.421   8.245  0.0891 -0.0828 -0.4735
  160SAPE  C31517956   2.036   2.234   8.246  0.0068  0.3620 -0.5331
  160SAPE  H15X17957   2.130   2.278   8.206 -0.8582  2.5679 -0.2856
  160SAPE  H15Y17958   2.019   2.127   8.221 -2.6702  0.0274  2.1184
  160SAPE  C31617959   2.047   2.247   8.405  0.0223 -0.7362  0.4768
  160SAPE  H16X17960   2.037   2.356   8.422 -1.6217  0.2641 -4.9832
  160SAPE  H16Y17961   2.145   2.213   8.445  1.0274  1.3930 -0.0508
  160SAPE  C31717962   1.944   2.169   8.486  0.1804  1.0645  0.4030
  160SAPE  H17X17963   1.979   2.066   8.506  0.2131  0.9380 -0.3003
  160SAPE  H17Y17964   1.849   2.147   8.433  1.0331  0.8808 -1.0878
  160SAPE  C31817965   1.916   2.232   8.629  0.1839  0.1347  0.3055
  160SAPE  H18X17966   1.842   2.177   8.691 -1.6685  3.2385  1.0512
  160SAPE  H18Y17967   1.874   2.334   8.616 -0.9406 -0.1720  1.4346
  160SAPE  H18Z17968   2.013   2.246   8.682  0.9919  1.3892 -1.4087
  161SOPE     N17969   1.620   4.712  10.505 -0.0395  0.2802  0.0922
  161SOPE   HN117970   1.718   4.700  10.537 -1.1172 -2.8101  2.9160
  161SOPE   HN217971   1.610   4.687  10.405  1.0223 -1.8042  0.4527
  161SOPE   HN317972   1.594   4.812  10.518 -0.0141  0.3673 -0.5263
  161SOPE   C1217973   1.532   4.629  10.594  0.8429 -0.1356 -0.2212
  161SOPE  H12A17974   1.427   4.647  10.561  0.3784 -2.1873 -0.0443
  161SOPE  H12B17975   1.542   4.644  10.704 -1.7795 -1.4361  0.2953
  161SOPE   C1117976   1.559   4.482  10.577  0.1279 -0.1522 -0.1244
  161SOPE  H11A17977   1.546   4.464  10.468 -0.9313  0.3549 -0.0995
  161SOPE  H11B17978   1.478   4.419  10.619 -1.1167 -0.1394 -2.3484
  161SOPE     P17979   1.734   4.290  10.634 -0.2268  0.3489 -0.3109
  161SOPE   O1317980   1.619   4.207  10.681  0.9657 -0.3634  0.1126
  161SOPE   O1417981   1.857   4.285  10.719 -0.5013 -0.3043 -0.0404
  161SOPE   O1217982   1.686   4.444  10.634 -0.3147  0.7677 -0.6452
  161SOPE   O1117983   1.761   4.247  10.482  0.0593 -0.6570 -0.0657
  161SOPE    C117984   1.847   4.321  10.392 -0.9374  0.0270  0.8787
  161SOPE    HA17985   1.928   4.252  10.360  1.5431  2.8797  0.5201
  161SOPE    HB17986   1.887   4.412  10.442 -1.4888 -0.3944  2.1279
  161SOPE    C217987   1.789   4.373  10.258  0.0168  0.2563 -0.0825
  161SOPE    HS17988   1.700   4.437  10.275  0.6251  1.2379 -0.5215
  161SOPE   O2117989   1.752   4.265  10.173 -0.4090 -0.3783  0.1710
  161SOPE   C2117990   1.644   4.202  10.211  0.3796 -0.2987 -0.0724
  161SOPE   O2217991   1.557   4.239  10.289  0.0187 -0.2198  0.0622
  161SOPE   C2217992   1.650   4.063  10.154 -0.1790  0.3690 -0.0114
  161SOPE   H2R17993   1.560   4.008  10.189  1.3562 -1.0762  1.9072
  161SOPE   H2S17994   1.733   4.009  10.204 -0.3650 -0.8618 -0.9664
  161SOPE    C317995   1.900   4.455  10.190 -0.2438 -0.9430  0.8299
  161SOPE    HX17996   1.997   4.401  10.181  1.3002  1.3827  2.3575
  161SOPE    HY17997   1.918   4.542  10.256 -0.5256 -0.6982  0.5832
  161SOPE   O3117998   1.851   4.505  10.062 -0.5335  0.1155 -0.5776
  161SOPE   C3117999   1.878   4.426   9.960  0.2585  0.2963  0.6759
  161SOPE   O3218000   1.968   4.347   9.953  0.2886 -0.1616 -0.7380
  161SOPE   C3218001   1.776   4.453   9.848 -0.5579 -0.0344  0.0144
  161SOPE   H2X18002   1.722   4.548   9.864 -0.9979 -0.0058 -1.4870
  161SOPE   H2Y18003   1.706   4.367   9.837 -0.2003 -0.4712  1.0458
  161SOPE   C2318004   1.662   4.066   9.996 -0.5944  0.2347 -0.4145
  161SOPE   H3R18005   1.654   3.970   9.942  1.3974  0.7895 -1.8267
  161SOPE   H3S18006   1.768   4.097   9.985 -0.4427 -0.5587 -1.2418
  161SOPE   C2418007   1.564   4.163   9.928 -0.9022  0.4254  0.1541
  161SOPE   H4R18008   1.557   4.269   9.959 -3.9804  0.3965 -0.0373
  161SOPE   H4S18009   1.586   4.177   9.820 -1.2363 -2.2753 -0.3556
  161SOPE   C2518010   1.419   4.112   9.936 -0.7270 -0.4569 -0.8484
  161SOPE   H5R18011   1.424   4.001   9.935  1.5763 -0.4384  0.6969
  161SOPE   H5S18012   1.377   4.150  10.031 -2.7821  0.2335 -1.9723
  161SOPE   C2618013   1.334   4.166   9.816  0.3064 -0.4651  0.3720
  161SOPE   H6R18014   1.312   4.273   9.838 -0.4013 -0.2615 -1.1844
  161SOPE   H6S18015   1.382   4.166   9.716  0.6627 -0.4100  0.5394
  161SOPE   C2718016   1.193   4.097   9.805  0.8021 -0.2024  0.3698
  161SOPE   H7R18017   1.197   3.991   9.773 -0.2542 -0.5971  1.4605
  161SOPE   H7S18018   1.150   4.091   9.907  1.8289  1.4679  0.9300
  161SOPE   C2818019   1.084   4.176   9.718  0.7665  1.0547  0.9409
  161SOPE   H8R18020   0.979   4.144   9.739  0.9528  0.4749  0.9975
  161SOPE   H8S18021   1.075   4.283   9.746 -1.1314  0.7648  1.6171
  161SOPE   C2918022   1.117   4.162   9.565 -0.1974  0.0723 -0.6053
  161SOPE   H9118023   1.139   4.061   9.527  2.1026  0.8570 -1.5791
  161SOPE  C21018024   1.118   4.265   9.474 -0.7838  0.6335  0.3544
  161SOPE  H10118025   1.147   4.240   9.371 -1.1368  0.6411  0.2488
  161SOPE  C21118026   1.093   4.406   9.491 -0.1592 -0.5750 -0.3127
  161SOPE  H11R18027   1.134   4.472   9.413 -1.4134 -2.4461 -2.6813
  161SOPE  H11S18028   1.131   4.432   9.593 -2.1309  0.9299  0.1099
  161SOPE  C21218029   0.939   4.438   9.509 -0.9624  0.4592 -0.2576
  161SOPE  H12R18030   0.939   4.548   9.521  0.8060  0.5117 -0.3414
  161SOPE  H12S18031   0.914   4.390   9.606  2.0777  0.2873  0.5664
  161SOPE  C21318032   0.852   4.380   9.400  0.2321 -0.1681  0.1694
  161SOPE  H13R18033   0.749   4.410   9.428  0.6837  0.3687  1.2909
  161SOPE  H13S18034   0.848   4.269   9.397 -2.1057 -0.1457 -2.6383
  161SOPE  C21418035   0.868   4.447   9.259 -0.0043 -0.2422 -0.3595
  161SOPE  H14R18036   0.967   4.418   9.216  0.3286  2.5046 -1.6663
  161SOPE  H14S18037   0.855   4.557   9.271 -2.6338 -0.5999  0.5382
  161SOPE  C21518038   0.758   4.386   9.165  0.2597 -0.3131 -0.0227
  161SOPE  H15R18039   0.658   4.416   9.202  0.6260  2.0134 -0.7433
  161SOPE  H15S18040   0.763   4.275   9.159  0.1006 -0.3353  0.2452
  161SOPE  C21618041   0.764   4.436   9.017  0.2952  0.1565 -0.4589
  161SOPE  H16R18042   0.872   4.429   8.991  0.6243 -0.6978  1.0487
  161SOPE  H16S18043   0.740   4.545   9.012  2.6673  0.7214 -1.0411
  161SOPE  C21718044   0.684   4.346   8.921 -0.3395 -0.1555  0.5070
  161SOPE  H17R18045   0.652   4.398   8.829  1.6793 -1.5099 -1.0410
  161SOPE  H17S18046   0.589   4.320   8.972 -0.5886  0.2775  0.2608
  161SOPE  C21818047   0.757   4.209   8.885 -0.9289  0.2452 -0.3248
  161SOPE  H18R18048   0.764   4.135   8.968  0.3432 -0.2026 -0.8109
  161SOPE  H18S18049   0.860   4.221   8.845 -0.2107  0.0204  1.3643
  161SOPE  H18T18050   0.697   4.175   8.798 -0.2744  0.8772 -1.0291
  161SOPE   C3318051   1.858   4.459   9.713  0.3741  0.1860 -0.0994
  161SOPE   H3X18052   1.904   4.358   9.705 -1.3824 -0.8542  2.0381
  161SOPE   H3Y18053   1.947   4.526   9.715  2.0627 -1.9385  0.0850
  161SOPE   C3418054   1.770   4.481   9.587  0.2958  0.8575  0.4224
  161SOPE   H4X18055   1.835   4.494   9.498 -0.5682 -3.0918 -0.9955
  161SOPE   H4Y18056   1.708   4.571   9.600 -1.6485 -0.2977 -0.3915
  161SOPE   C3518057   1.683   4.359   9.545 -0.4264  0.5904 -0.6373
  161SOPE   H5X18058   1.623   4.317   9.628 -0.5500  1.3699 -0.3250
  161SOPE   H5Y18059   1.744   4.273   9.510 -2.0800 -0.8366 -0.1469
  161SOPE   C3618060   1.588   4.390   9.428  0.4103 -0.4969  0.1062
  161SOPE   H6X18061   1.584   4.501   9.427  0.6047 -0.2296  4.7984
  161SOPE   H6Y18062   1.484   4.360   9.454  0.3812  1.1556  2.1550
  161SOPE   C3718063   1.622   4.325   9.290  0.1102 -0.3420 -0.3766
  161SOPE   H7X18064   1.613   4.216   9.306 -0.1656 -0.4306 -1.1029
  161SOPE   H7Y18065   1.728   4.358   9.280 -0.1042  0.2301 -0.8110
  161SOPE   C3818066   1.546   4.388   9.175 -0.3713  0.2876 -0.7011
  161SOPE   H8X18067   1.581   4.490   9.147  0.2413 -0.1081 -1.3963
  161SOPE   H8Y18068   1.437   4.392   9.199 -0.1149  0.8816  0.4152
  161SOPE   C3918069   1.578   4.295   9.058  0.1703 -0.9079 -0.1825
  161SOPE   H9X18070   1.650   4.218   9.092  2.5158  0.9737 -0.5967
  161SOPE   H9Y18071   1.629   4.344   8.972  1.5118 -1.3549  0.3246
  161SOPE  C31018072   1.457   4.214   9.007  0.3377 -0.2269  0.1046
  161SOPE  H10X18073   1.422   4.139   9.082 -0.4287  1.4852  1.5335
  161SOPE  H10Y18074   1.489   4.147   8.924 -0.2663  0.3500 -0.6033
  161SOPE  C31118075   1.338   4.291   8.955  0.1148 -0.2079  0.5760
  161SOPE  H11X18076   1.299   4.369   9.025 -1.2716  0.9867 -1.4254
  161SOPE  H11Y18077   1.250   4.224   8.945  0.7385 -1.5127  2.9261
  161SOPE  C31218078   1.376   4.372   8.826 -0.1437  0.1411  0.0252
  161SOPE  H12X18079   1.412   4.306   8.744  0.2455 -1.5442  1.4833
  161SOPE  H12Y18080   1.468   4.431   8.846  0.4953 -0.3672 -1.2885
  161SOPE  C31318081   1.264   4.472   8.772  0.1615 -0.2751  0.7789
  161SOPE  H13X18082   1.293   4.526   8.679  0.3709 -2.6762 -0.6338
  161SOPE  H13Y18083   1.243   4.553   8.845 -4.2572 -0.0726 -0.3982
  161SOPE  C31418084   1.128   4.397   8.750 -0.2746  0.4737  0.1467
  161SOPE  H14X18085   1.060   4.402   8.837  0.4905  0.3316  0.7620
  161SOPE  H14Y18086   1.144   4.296   8.708 -1.8465  0.5479 -0.6997
  161SOPE  C31518087   1.049   4.476   8.650  0.8214 -0.2231  0.8321
  161SOPE  H15X18088   1.101   4.492   8.553  0.9285  3.0492  1.3141
  161SOPE  H15Y18089   1.047   4.580   8.689  1.6708  0.5008 -0.9326
  161SOPE  C31618090   0.913   4.422   8.594  0.0998  0.1001  0.2017
  161SOPE  H16X18091   0.859   4.386   8.684  0.6167  0.1786  0.5444
  161SOPE  H16Y18092   0.947   4.331   8.540 -0.2011  0.6430 -0.9463
  161SOPE  C31718093   0.839   4.528   8.519  0.3229 -0.5287  0.1030
  161SOPE  H17X18094   0.905   4.590   8.455  0.8959 -1.5834 -0.3584
  161SOPE  H17Y18095   0.798   4.607   8.585  0.4139  0.9688 -1.5512
  161SOPE  C31818096   0.716   4.487   8.447  0.6221  0.0488  0.8533
  161SOPE  H18X18097   0.733   4.413   8.366  0.7370  1.8473 -0.8349
  161SOPE  H18Y18098   0.671   4.566   8.384 -0.5280 -1.3466 -0.1520
  161SOPE  H18Z18099   0.641   4.449   8.520 -0.8667 -1.3456 -1.2872
  162SOPE     N18100   1.425   4.838  11.201  0.3110  0.2482 -0.4681
  162SOPE   HN118101   1.502   4.883  11.255 -1.0102  1.4462  0.4905
  162SOPE   HN218102   1.464   4.825  11.105  0.3654  2.2875 -0.7689
  162SOPE   HN318103   1.349   4.906  11.180 -0.2364 -0.7754 -1.9609
  162SOPE   C1218104   1.362   4.720  11.272  0.0441  0.3699 -0.1543
  162SOPE  H12A18105   1.312   4.757  11.364 -0.9518 -0.9384 -0.1428
  162SOPE  H12B18106   1.443   4.646  11.289  0.1531 -0.0581 -2.2709
  162SOPE   C1118107   1.254   4.655  11.182 -0.1118  0.8662  0.1505
  162SOPE  H11A18108   1.179   4.727  11.145  0.2317  1.6674  0.9653
  162SOPE  H11B18109   1.198   4.586  11.248  0.4929  0.4171  0.2010
  162SOPE     P18110   1.329   4.619  10.934  0.0192 -0.2525 -0.1296
  162SOPE   O1318111   1.412   4.520  10.869 -0.2805  0.3063  0.5672
  162SOPE   O1418112   1.383   4.758  10.929 -0.3961 -0.4389 -0.3395
  162SOPE   O1218113   1.301   4.572  11.078 -0.2457  0.2875  0.0712
  162SOPE   O1118114   1.189   4.618  10.867  0.4153  0.3276 -0.4111
  162SOPE    C118115   1.098   4.512  10.897 -0.2790  0.1395 -0.2021
  162SOPE    HA18116   1.066   4.515  11.003  0.0492  0.6667 -0.1143
  162SOPE    HB18117   1.147   4.413  10.880  2.2944  1.3122 -0.0781
  162SOPE    C218118   0.967   4.514  10.808 -0.1329  0.4712  0.1885
  162SOPE    HS18119   0.928   4.410  10.813  2.7998 -0.8919 -1.9224
  162SOPE   O2118120   0.992   4.549  10.674 -0.0078  0.6500  0.2140
  162SOPE   C2118121   1.077   4.463  10.607  0.4437 -0.4789  0.2562
  162SOPE   O2218122   1.120   4.357  10.639  0.4562 -0.2396 -0.0116
  162SOPE   C2218123   1.111   4.539  10.474  0.3707  0.1605  0.0012
  162SOPE   H2R18124   1.128   4.454  10.405 -1.4982  0.6354 -1.1305
  162SOPE   H2S18125   1.198   4.605  10.494  1.4927 -0.5691 -2.1311
  162SOPE    C318126   0.856   4.599  10.875  0.2573 -0.1724 -0.1143
  162SOPE    HX18127   0.899   4.694  10.911  0.7046  0.2285 -1.6255
  162SOPE    HY18128   0.812   4.532  10.952 -0.1020 -1.1418 -1.1281
  162SOPE   O3118129   0.746   4.611  10.796  0.7963  0.0572  0.9111
  162SOPE   C3118130   0.724   4.727  10.746  0.1126  0.5222  0.7167
  162SOPE   O3218131   0.778   4.834  10.762  0.1245  0.4084  0.0160
  162SOPE   C3218132   0.597   4.728  10.660 -0.4376 -0.0640 -0.2823
  162SOPE   H2X18133   0.535   4.640  10.689 -0.6326  1.1237  3.3653
  162SOPE   H2Y18134   0.629   4.715  10.555 -0.5204 -2.8983 -0.0337
  162SOPE   C2318135   0.988   4.616  10.411 -0.4151  0.0515 -0.0125
  162SOPE   H3R18136   0.961   4.700  10.477 -2.1861 -0.2999 -0.2329
  162SOPE   H3S18137   0.900   4.549  10.410 -0.3150 -0.1125 -1.6769
  162SOPE   C2418138   1.013   4.672  10.272 -0.5191 -0.0814 -0.2501
  162SOPE   H4R18139   1.105   4.732  10.289 -0.2561 -1.3519  4.0221
  162SOPE   H4S18140   1.033   4.583  10.208  0.5900 -2.1563  2.6983
  162SOPE   C2518141   0.898   4.741  10.206 -0.7321  0.5471 -0.1118
  162SOPE   H5R18142   0.815   4.668  10.202 -0.9664  0.7788  0.4329
  162SOPE   H5S18143   0.872   4.834  10.263 -2.1731 -1.8330  3.4631
  162SOPE   C2618144   0.922   4.782  10.059  0.2128 -0.3981 -0.2253
  162SOPE   H6R18145   1.001   4.860  10.066 -1.1291  0.9134  0.8828
  162SOPE   H6S18146   0.947   4.697   9.992  0.0585 -1.0541  0.5379
  162SOPE   C2718147   0.808   4.863   9.996 -0.3032  0.2322  0.2627
  162SOPE   H7R18148   0.712   4.808   9.995 -0.4236  0.4319  0.7009
  162SOPE   H7S18149   0.791   4.956  10.054  2.5804  0.9436  0.1456
  162SOPE   C2818150   0.862   4.922   9.854  0.4377  0.0747 -0.1785
  162SOPE   H8R18151   0.774   4.984   9.824 -0.3924 -1.9805 -2.3447
  162SOPE   H8S18152   0.943   4.994   9.877  0.9176 -0.2587 -0.8186
  162SOPE   C2918153   0.901   4.831   9.746  0.0796  0.2360  0.5381
  162SOPE   H9118154   0.969   4.755   9.787  1.5135 -0.0376 -2.1230
  162SOPE  C21018155   0.869   4.837   9.614  0.0479  0.3843 -0.7378
  162SOPE  H10118156   0.917   4.759   9.553 -0.2318 -0.4051  0.0305
  162SOPE  C21118157   0.783   4.939   9.543 -0.5481  0.7639 -0.5234
  162SOPE  H11R18158   0.750   5.023   9.609 -0.2003 -0.1227  0.8189
  162SOPE  H11S18159   0.687   4.896   9.508 -0.3303 -1.3036  1.2403
  162SOPE  C21218160   0.865   5.006   9.435 -1.0752 -0.6213  0.0406
  162SOPE  H12R18161   0.955   5.054   9.480 -2.1526  2.3639 -0.8077
  162SOPE  H12S18162   0.801   5.093   9.411 -2.8301 -1.5289  1.1899
  162SOPE  C21318163   0.888   4.935   9.304 -0.8375 -0.1050 -0.1659
  162SOPE  H13R18164   0.897   4.825   9.315 -1.9547 -0.3807 -1.6485
  162SOPE  H13S18165   0.985   4.968   9.260 -0.0448  0.2247  1.7269
  162SOPE  C21418166   0.791   4.960   9.186 -0.0426  0.3203  0.9354
  162SOPE  H14R18167   0.812   5.062   9.147  0.3028 -0.7837 -2.0181
  162SOPE  H14S18168   0.692   4.959   9.237  0.6211 -0.5191  2.2764
  162SOPE  C21518169   0.806   4.876   9.060 -0.8295 -0.5311 -0.5386
  162SOPE  H15R18170   0.706   4.843   9.024 -1.7364  2.3602 -1.0038
  162SOPE  H15S18171   0.865   4.786   9.083 -0.0669 -0.1476 -0.9481
  162SOPE  C21618172   0.875   4.951   8.942 -0.5938  0.3206  0.4329
  162SOPE  H16R18173   0.975   4.982   8.980 -0.9077  1.0058  0.7223
  162SOPE  H16S18174   0.818   5.041   8.911 -0.4344 -0.2859 -1.7784
  162SOPE  C21718175   0.893   4.860   8.821 -0.9409 -0.3232  0.4870
  162SOPE  H17R18176   0.796   4.827   8.778 -1.3272  1.4957 -0.1450
  162SOPE  H17S18177   0.955   4.771   8.844  0.2198 -0.2353 -1.9703
  162SOPE  C21818178   0.977   4.921   8.711  0.3644 -0.0623  0.7516
  162SOPE  H18R18179   1.085   4.914   8.735  1.0973  0.2023 -2.0480
  162SOPE  H18S18180   0.958   5.028   8.690  0.5633 -0.2241 -0.3615
  162SOPE  H18T18181   0.956   4.878   8.610 -3.9096 -1.3483  1.9865
  162SOPE   C3318182   0.520   4.861  10.668 -0.1024 -0.4209 -0.4662
  162SOPE   H3X18183   0.524   4.914  10.765 -0.3915  0.4546 -0.9263
  162SOPE   H3Y18184   0.412   4.835  10.656 -0.9943  3.6191 -2.8507
  162SOPE   C3418185   0.560   4.952  10.550 -0.4257 -0.8030 -0.6703
  162SOPE   H4X18186   0.554   4.888  10.460  1.8077  0.0551 -1.4948
  162SOPE   H4Y18187   0.665   4.985  10.564 -0.6914 -0.1830 -0.0612
  162SOPE   C3518188   0.472   5.080  10.544  0.1551  0.3513 -0.9171
  162SOPE   H5X18189   0.522   5.157  10.606 -0.0380  0.7802 -1.2900
  162SOPE   H5Y18190   0.372   5.057  10.586  0.8119  0.5651  0.8340
  162SOPE   C3618191   0.450   5.136  10.405 -0.6925  0.4395  0.4308
  162SOPE   H6X18192   0.403   5.236  10.392 -0.6004  0.5361  0.8421
  162SOPE   H6Y18193   0.394   5.059  10.348  4.5223 -1.3590 -2.9625
  162SOPE   C3718194   0.578   5.136  10.322 -0.6762  0.1037 -0.0683
  162SOPE   H7X18195   0.620   5.033  10.323 -3.8415 -1.3533  2.5443
  162SOPE   H7Y18196   0.649   5.203  10.376  0.0148 -1.5919  1.2090
  162SOPE   C3818197   0.566   5.193  10.176  0.2082  1.1187  0.6298
  162SOPE   H8X18198   0.669   5.210  10.138  0.5545 -3.1725 -0.8464
  162SOPE   H8Y18199   0.503   5.285  10.170 -2.1892 -0.2981  2.6102
  162SOPE   C3918200   0.508   5.084  10.089 -0.1498  0.3524 -0.0515
  162SOPE   H9X18201   0.404   5.056  10.118  0.7850 -0.6818  2.7278
  162SOPE   H9Y18202   0.573   4.994  10.096  1.3756  1.0344 -3.5325
  162SOPE  C31018203   0.516   5.125   9.943  0.8462 -0.8423 -0.7176
  162SOPE  H10X18204   0.624   5.151   9.937  0.1535  2.9777  0.6032
  162SOPE  H10Y18205   0.452   5.215   9.930 -1.2082 -2.1145  0.0307
  162SOPE  C31118206   0.464   5.025   9.845  0.6185 -0.5324  0.2706
  162SOPE  H11X18207   0.357   5.011   9.871  0.0854 -2.0874 -2.3753
  162SOPE  H11Y18208   0.524   4.934   9.870 -0.7662 -1.4273  0.4718
  162SOPE  C31218209   0.466   5.077   9.706 -0.6301 -0.1030  0.0740
  162SOPE  H12X18210   0.563   5.119   9.674 -0.4429 -1.6661 -1.5477
  162SOPE  H12Y18211   0.402   5.168   9.704 -1.4987 -0.6056  2.1629
  162SOPE  C31318212   0.408   4.984   9.597  0.1440 -0.3910 -0.1823
  162SOPE  H13X18213   0.307   4.950   9.630 -0.3135  0.8390 -0.2657
  162SOPE  H13Y18214   0.467   4.890   9.599  1.0374  0.1020 -1.7674
  162SOPE  C31418215   0.405   5.046   9.458  0.2741  0.1767  0.4982
  162SOPE  H14X18216   0.512   5.065   9.433  0.1879  1.0995  0.8083
  162SOPE  H14Y18217   0.346   5.140   9.459 -0.3192 -0.1799  2.0077
  162SOPE  C31518218   0.351   4.942   9.350 -0.1642  0.4339  0.6958
  162SOPE  H15X18219   0.355   4.997   9.253 -2.6222  0.0411  0.3081
  162SOPE  H15Y18220   0.243   4.920   9.363 -0.4644 -2.4449 -4.4085
  162SOPE  C31618221   0.440   4.825   9.319  0.4199  0.3747 -0.4909
  162SOPE  H16X18222   0.416   4.757   9.404 -1.3397  1.6250  0.0736
  162SOPE  H16Y18223   0.546   4.854   9.331 -0.5215  3.7381  0.7197
  162SOPE  C31718224   0.428   4.772   9.176  1.1850 -0.0000 -0.2413
  162SOPE  H17X18225   0.459   4.849   9.102  1.8948  0.9980  1.0656
  162SOPE  H17Y18226   0.325   4.733   9.158  1.2823 -0.4507  0.1842
  162SOPE  C31818227   0.519   4.645   9.168  0.6773 -0.3950  0.2784
  162SOPE  H18X18228   0.493   4.591   9.074  0.3832 -0.5100  0.4223
  162SOPE  H18Y18229   0.477   4.576   9.244 -3.0935 -0.0697 -1.3014
  162SOPE  H18Z18230   0.624   4.678   9.183 -0.2041  2.6947  0.4566
  163SOPE     N18231   4.573   1.404  10.844  0.4154  0.1413 -0.0232
  163SOPE   HN118232   4.475   1.440  10.844  0.3682  0.0543 -1.4562
  163SOPE   HN218233   4.565   1.304  10.868  0.6264  0.0037 -0.5203
  163SOPE   HN318234   4.620   1.455  10.922  0.2888 -0.6858  0.6108
  163SOPE   C1218235   4.611   1.423  10.698  0.0427  0.0458 -0.0558
  163SOPE  H12A18236   4.519   1.403  10.639  0.0571  0.8813 -0.3839
  163SOPE  H12B18237   4.688   1.346  10.678 -0.4237  0.1751 -2.6730
  163SOPE   C1118238   4.664   1.564  10.674  1.2699  0.5187 -0.1456
  163SOPE  H11A18239   4.566   1.616  10.683 -1.1548 -3.7150  0.4373
  163SOPE  H11B18240   4.711   1.579  10.574  1.3727  1.3223  0.0125
  163SOPE     P18241   4.905   1.557  10.781 -0.1546  0.1871 -0.3846
  163SOPE   O1318242   4.914   1.461  10.897  0.0768  0.0733  0.0248
  163SOPE   O1418243   5.001   1.668  10.775 -0.0653 -0.4547  0.1365
  163SOPE   O1218244   4.752   1.602  10.777  0.1864  0.2763 -0.4162
  163SOPE   O1118245   4.923   1.472  10.650 -0.3834  0.4772 -0.3448
  163SOPE    C118246   4.972   1.339  10.668 -0.1724 -1.0502 -0.0790
  163SOPE    HA18247   4.923   1.280  10.587 -0.3226 -1.6329  0.4253
  163SOPE    HB18248   4.943   1.289  10.763  1.4743  0.1197  1.0821
  163SOPE    C218249   5.125   1.337  10.644  0.3210  0.1729 -0.5353
  163SOPE    HS18250   5.172   1.400  10.723 -1.5063  1.5633 -0.5008
  163SOPE   O2118251   5.134   1.396  10.516 -0.2005  0.7106 -0.3587
  163SOPE   C2118252   5.256   1.415  10.469  0.1369 -0.4919  0.1856
  163SOPE   O2218253   5.364   1.396  10.527 -0.4739  0.4055 -0.3125
  163SOPE   C2218254   5.244   1.489  10.335  0.0828 -0.5729 -0.7567
  163SOPE   H2R18255   5.341   1.541  10.322 -0.2691  0.5898  0.8993
  163SOPE   H2S18256   5.165   1.567  10.331 -0.1796 -0.7126  0.8297
  163SOPE    C318257   5.176   1.190  10.639 -0.0428  0.2383  0.4624
  163SOPE    HX18258   5.155   1.143  10.738 -1.3114  0.6036  0.3897
  163SOPE    HY18259   5.285   1.189  10.622 -0.0311 -1.3276  0.4843
  163SOPE   O3118260   5.125   1.113  10.519 -0.0871 -0.4599 -0.2917
  163SOPE   C3118261   5.077   0.994  10.551  0.5868 -0.6427 -0.0833
  163SOPE   O3218262   5.077   0.942  10.662 -0.8106 -0.1290  0.1149
  163SOPE   C3218263   5.034   0.909  10.428 -0.1557 -0.7566 -0.1219
  163SOPE   H2X18264   4.939   0.949  10.388  1.1542  3.2422  0.3421
  163SOPE   H2Y18265   5.020   0.804  10.462  2.4899 -1.2074 -0.1834
  163SOPE   C2318266   5.230   1.388  10.206 -0.5502 -0.9745 -0.5559
  163SOPE   H3R18267   5.127   1.346  10.198 -0.1864 -2.0090 -0.0786
  163SOPE   H3S18268   5.314   1.316  10.201 -0.7746 -1.2012 -1.1740
  163SOPE   C2418269   5.245   1.480  10.085 -0.2352  1.0932 -0.9486
  163SOPE   H4R18270   5.166   1.558  10.088 -1.1285  0.2604 -2.1564
  163SOPE   H4S18271   5.334   1.545  10.101 -0.6719  1.0835  2.1123
  163SOPE   C2518272   5.248   1.406   9.948 -0.5339  0.3318  0.6321
  163SOPE   H5R18273   5.172   1.325   9.946  0.7185 -0.9320  1.8717
  163SOPE   H5S18274   5.234   1.483   9.869  1.7191 -0.4281 -0.6087
  163SOPE   C2618275   5.387   1.355   9.916  0.1811  0.3747 -0.3699
  163SOPE   H6R18276   5.460   1.437   9.904  0.1261  0.7399  1.4818
  163SOPE   H6S18277   5.425   1.287   9.995  1.5008  1.8185  0.2909
  163SOPE   C2718278   5.381   1.280   9.777 -0.3206 -0.0439  0.1381
  163SOPE   H7R18279   5.315   1.192   9.793 -3.1137  1.7201 -1.0801
  163SOPE   H7S18280   5.332   1.339   9.697  1.3585  1.0832 -0.1079
  163SOPE   C2818281   5.517   1.237   9.721  0.6609 -0.0930  0.8896
  163SOPE   H8R18282   5.497   1.188   9.623  0.6982  0.0209  0.8254
  163SOPE   H8S18283   5.580   1.320   9.684  0.3070 -1.0334 -2.0737
  163SOPE   C2918284   5.577   1.153   9.822  0.2512  0.1916 -0.7465
  163SOPE   H9118285   5.608   1.194   9.919  1.0922  0.0364 -0.9371
  163SOPE  C21018286   5.617   1.024   9.805 -0.6344 -0.0129 -0.6873
  163SOPE  H10118287   5.657   0.971   9.893 -0.8425 -0.8693 -1.0905
  163SOPE  C21118288   5.596   0.941   9.673 -0.1350 -0.9579 -0.0598
  163SOPE  H11R18289   5.585   1.008   9.586 -1.1317  1.2961  1.7030
  163SOPE  H11S18290   5.508   0.875   9.685  0.5669 -1.9423 -0.2083
  163SOPE  C21218291   5.706   0.832   9.643  0.2547 -0.2430 -0.5761
  163SOPE  H12R18292   5.701   0.754   9.722  2.7013 -1.1252 -1.1884
  163SOPE  H12S18293   5.802   0.885   9.661  0.0258  0.8411 -2.3882
  163SOPE  C21318294   5.702   0.779   9.505 -0.1681  0.6103  0.8138
  163SOPE  H13R18295   5.701   0.855   9.423 -0.7967 -1.8146 -1.5974
  163SOPE  H13S18296   5.611   0.720   9.484  1.3161 -2.0148  1.3814
  163SOPE  C21418297   5.824   0.693   9.468  0.5045 -0.1784  0.5110
  163SOPE  H14R18298   5.842   0.613   9.542  1.2188 -1.7727 -1.2850
  163SOPE  H14S18299   5.915   0.757   9.477  0.0657  0.7394 -1.0930
  163SOPE  C21518300   5.827   0.641   9.325  0.1230 -0.6341  0.4581
  163SOPE  H15R18301   5.751   0.559   9.323  1.1476 -1.6173 -1.7138
  163SOPE  H15S18302   5.923   0.587   9.311  0.2278 -0.7693  1.6019
  163SOPE  C21618303   5.791   0.745   9.214 -0.6753 -0.2721  0.8838
  163SOPE  H16R18304   5.874   0.818   9.216  1.6127 -2.7171  2.6223
  163SOPE  H16S18305   5.690   0.790   9.227 -1.4767 -1.3010 -1.3103
  163SOPE  C21718306   5.782   0.676   9.077  0.3483  0.1782  0.8208
  163SOPE  H17R18307   5.883   0.636   9.053  0.3737 -0.4375  1.8950
  163SOPE  H17S18308   5.770   0.764   9.010  0.8907  1.0214  1.8000
  163SOPE  C21818309   5.678   0.566   9.071  0.2229  0.0345  0.7533
  163SOPE  H18R18310   5.589   0.591   9.133  0.5647  1.3186  0.7625
  163SOPE  H18S18311   5.722   0.469   9.101  0.8895 -0.2517 -1.0389
  163SOPE  H18T18312   5.649   0.554   8.965  0.6472  2.2606  0.3302
  163SOPE   C3318313   5.144   0.899  10.320  0.1078 -0.0992 -0.5872
  163SOPE   H3X18314   5.224   0.833  10.359 -1.6065 -0.9780  1.6653
  163SOPE   H3Y18315   5.175   1.001  10.289 -1.8599  0.7935  0.1656
  163SOPE   C3418316   5.085   0.843  10.190  0.9578  0.2699 -0.1650
  163SOPE   H4X18317   4.990   0.898  10.170  1.6972  0.8553 -2.4797
  163SOPE   H4Y18318   5.065   0.737  10.214  0.9926  0.6426  1.5846
  163SOPE   C3518319   5.175   0.868  10.064 -0.0670 -0.0633  0.4713
  163SOPE   H5X18320   5.276   0.822  10.068 -0.7766 -2.0542 -2.0159
  163SOPE   H5Y18321   5.184   0.979  10.060  3.6906 -0.2474  0.2477
  163SOPE   C3618322   5.110   0.803   9.934 -0.6342  0.1906 -0.4765
  163SOPE   H6X18323   5.001   0.819   9.923 -0.3853  2.0292 -0.6627
  163SOPE   H6Y18324   5.120   0.694   9.953 -1.6806 -0.0765 -1.3709
  163SOPE   C3718325   5.202   0.845   9.808  0.1739 -0.1919  0.2762
  163SOPE   H7X18326   5.295   0.787   9.824  0.7826  1.5750  4.0895
  163SOPE   H7Y18327   5.228   0.953   9.812 -0.0173 -0.1787  2.1898
  163SOPE   C3818328   5.138   0.811   9.672  0.5897  0.8192  0.2977
  163SOPE   H8X18329   5.104   0.904   9.622 -0.1717 -0.6039 -2.0080
  163SOPE   H8Y18330   5.053   0.740   9.684 -0.9969  2.7945  1.3920
  163SOPE   C3918331   5.241   0.767   9.555 -0.3522 -0.5312 -0.2804
  163SOPE   H9X18332   5.281   0.666   9.576  2.3418  0.5811  0.3394
  163SOPE   H9Y18333   5.326   0.838   9.565 -0.7946 -0.0062 -0.1813
  163SOPE  C31018334   5.189   0.763   9.408 -0.6768  0.2252 -0.3881
  163SOPE  H10X18335   5.155   0.867   9.385 -0.4107  0.3557 -0.1972
  163SOPE  H10Y18336   5.110   0.688   9.388  0.7572 -1.2572 -0.6116
  163SOPE  C31118337   5.291   0.725   9.292 -0.8562 -0.6674 -0.0712
  163SOPE  H11X18338   5.316   0.617   9.290  0.5205 -0.4012  0.9864
  163SOPE  H11Y18339   5.375   0.795   9.314 -1.8127  0.0038  1.5790
  163SOPE  C31218340   5.238   0.752   9.152 -0.5692 -0.4171 -0.4219
  163SOPE  H12X18341   5.218   0.861   9.151 -0.9559 -0.4935 -1.3403
  163SOPE  H12Y18342   5.149   0.687   9.140  1.1817 -3.0581  0.0278
  163SOPE  C31318343   5.345   0.717   9.045  0.1493 -0.1094 -0.1653
  163SOPE  H13X18344   5.378   0.612   9.062  2.7598  0.9007  1.8156
  163SOPE  H13Y18345   5.434   0.781   9.062  1.0363 -1.8801  2.5039
  163SOPE  C31418346   5.296   0.724   8.901 -0.0719  0.5747  0.4926
  163SOPE  H14X18347   5.263   0.827   8.878 -0.3568 -0.2711 -3.7509
  163SOPE  H14Y18348   5.208   0.658   8.886  1.1573 -0.6840 -1.7297
  163SOPE  C31518349   5.415   0.689   8.809  0.1991 -0.4989 -0.0404
  163SOPE  H15X18350   5.436   0.582   8.789 -1.2581 -0.7375 -0.4525
  163SOPE  H15Y18351   5.508   0.735   8.847 -1.3134  2.5184  0.3062
  163SOPE  C31618352   5.391   0.760   8.671 -0.0928  0.0194  0.1669
  163SOPE  H16X18353   5.280   0.764   8.666 -0.3615 -0.4522  3.3031
  163SOPE  H16Y18354   5.432   0.691   8.595 -0.4018 -0.4568  0.4254
  163SOPE  C31718355   5.452   0.898   8.658  0.2931 -0.1672  0.1449
  163SOPE  H17X18356   5.563   0.899   8.667  0.1581 -0.0549  2.5236
  163SOPE  H17Y18357   5.422   0.961   8.745  1.8315  0.6658  0.0975
  163SOPE  C31818358   5.424   0.958   8.519  0.0882  0.8690 -0.4407
  163SOPE  H18X18359   5.458   1.063   8.515  0.7137  0.6574 -0.8014
  163SOPE  H18Y18360   5.319   0.953   8.483 -0.3187 -0.7122  0.8074
  163SOPE  H18Z18361   5.481   0.897   8.446  0.5255 -0.1208  0.6804
  164SOPE     N18362   1.593   1.701  10.995  0.1290  0.3158  0.0082
  164SOPE   HN118363   1.675   1.762  11.015  0.7457 -1.2157  2.6127
  164SOPE   HN218364   1.504   1.711  11.048 -0.2017  2.8137 -0.9040
  164SOPE   HN318365   1.637   1.608  11.011  0.7963  0.5731 -0.3021
  164SOPE   C1218366   1.560   1.715  10.852  0.2479  0.3944  0.1314
  164SOPE  H12A18367   1.650   1.734  10.789  0.1479 -0.9247 -0.4444
  164SOPE  H12B18368   1.483   1.794  10.845 -1.7715 -1.4466  0.4506
  164SOPE   C1118369   1.492   1.594  10.796  0.3470  0.6561  0.0803
  164SOPE  H11A18370   1.573   1.518  10.795  0.1682  0.3751  2.2287
  164SOPE  H11B18371   1.465   1.611  10.690  0.2592 -1.5022 -0.3054
  164SOPE     P18372   1.235   1.593  10.821  0.6636  0.0664 -0.7910
  164SOPE   O1318373   1.233   1.741  10.824  0.0997  0.2086  0.6982
  164SOPE   O1418374   1.126   1.522  10.891 -0.4445 -0.3908 -0.2135
  164SOPE   O1218375   1.375   1.552  10.874  0.0527 -0.1259 -0.5795
  164SOPE   O1118376   1.230   1.548  10.670 -0.8468 -0.2191 -0.3101
  164SOPE    C118377   1.255   1.418  10.629 -0.3635  0.3961  0.8124
  164SOPE    HA18378   1.170   1.355  10.663 -2.1140  2.7499  0.9660
  164SOPE    HB18379   1.344   1.371  10.678 -0.1635 -0.6415 -0.4771
  164SOPE    C218380   1.258   1.413  10.472  0.0146 -0.0154 -0.1240
  164SOPE    HS18381   1.252   1.311  10.430  0.6224  0.2488 -0.8928
  164SOPE   O2118382   1.376   1.474  10.419 -0.4687  0.3665 -0.5768
  164SOPE   C2118383   1.481   1.401  10.416 -0.5163 -0.6899 -0.0558
  164SOPE   O2218384   1.495   1.294  10.462  0.0098  0.2212 -0.2041
  164SOPE   C2218385   1.609   1.491  10.378  0.0124  0.3233  0.4049
  164SOPE   H2R18386   1.679   1.494  10.464  0.1527 -1.2621  0.3673
  164SOPE   H2S18387   1.571   1.594  10.365 -1.0343 -0.4481 -4.0703
  164SOPE    C318388   1.138   1.478  10.411 -0.5408  0.3747  0.8273
  164SOPE    HX18389   1.142   1.588  10.425 -1.3066  0.5228 -0.0321
  164SOPE    HY18390   1.039   1.456  10.456 -0.6532 -2.4764 -0.5930
  164SOPE   O3118391   1.130   1.443  10.272 -1.0213 -0.4816  0.1552
  164SOPE   C3118392   1.127   1.542  10.179  1.0056  0.0457 -0.8608
  164SOPE   O3218393   1.133   1.664  10.204  0.1098  0.2968 -0.0943
  164SOPE   C3218394   1.147   1.484  10.042  0.1268  0.8751  0.4696
  164SOPE   H2X18395   1.072   1.403  10.033 -0.2660  1.1327  1.2958
  164SOPE   H2Y18396   1.249   1.441  10.045  0.4332  1.4918 -0.4767
  164SOPE   C2318397   1.666   1.442  10.246  0.0355  0.2116  0.3886
  164SOPE   H3R18398   1.644   1.334  10.257 -1.5893  0.5177  0.4289
  164SOPE   H3S18399   1.776   1.454  10.240  0.1118 -1.0099 -1.5727
  164SOPE   C2418400   1.588   1.490  10.128 -0.1445 -0.4828  0.2857
  164SOPE   H4R18401   1.481   1.502  10.151  0.0438  0.9251  0.4929
  164SOPE   H4S18402   1.627   1.593  10.111  0.8549 -1.2852 -3.1379
  164SOPE   C2518403   1.606   1.397  10.010  0.2087 -0.2633  0.4633
  164SOPE   H5R18404   1.710   1.365   9.992 -0.1644 -1.3272  0.1429
  164SOPE   H5S18405   1.541   1.308  10.021 -0.4827  0.2562  0.6984
  164SOPE   C2618406   1.567   1.478   9.881  0.0755  0.6608 -0.9146
  164SOPE   H6R18407   1.529   1.401   9.811 -0.5542  1.4221 -1.4329
  164SOPE   H6S18408   1.479   1.535   9.917  0.3582  0.4310  0.1704
  164SOPE   C2718409   1.676   1.562   9.819 -0.2349  0.6395  0.2811
  164SOPE   H7R18410   1.726   1.632   9.890 -1.6335  0.9942  0.9443
  164SOPE   H7S18411   1.755   1.486   9.804 -0.1972  0.9900 -1.5384
  164SOPE   C2818412   1.619   1.640   9.694 -0.2573 -0.5346 -0.8802
  164SOPE   H8R18413   1.552   1.572   9.638  0.2195 -2.5665  0.8448
  164SOPE   H8S18414   1.550   1.717   9.735  2.6051  1.9523 -0.4210
  164SOPE   C2918415   1.722   1.704   9.615 -0.7573  0.4188  0.1350
  164SOPE   H9118416   1.812   1.717   9.677 -0.0623  0.7344 -0.9088
  164SOPE  C21018417   1.716   1.737   9.481  0.9442 -0.8779 -0.7600
  164SOPE  H10118418   1.798   1.784   9.425 -1.8236  2.6619 -2.1794
  164SOPE  C21118419   1.591   1.709   9.394  0.2878 -0.0239  0.5548
  164SOPE  H11R18420   1.506   1.739   9.459 -0.3413  1.7803 -1.0052
  164SOPE  H11S18421   1.578   1.600   9.378 -1.3178 -0.0904  2.0163
  164SOPE  C21218422   1.597   1.794   9.262 -0.5941  0.7717  0.0652
  164SOPE  H12R18423   1.636   1.897   9.281 -1.0072  0.7746  0.9628
  164SOPE  H12S18424   1.494   1.793   9.219 -0.8558  0.9264  0.6723
  164SOPE  C21318425   1.687   1.736   9.148 -0.4198  0.5390  0.0700
  164SOPE  H13R18426   1.684   1.625   9.146 -1.5447  0.5103  1.5302
  164SOPE  H13S18427   1.792   1.757   9.181  0.1813 -1.5587 -0.3456
  164SOPE  C21418428   1.677   1.794   9.005  0.2054  0.5039  0.1305
  164SOPE  H14R18429   1.693   1.903   9.013 -1.8601  0.8288  0.3879
  164SOPE  H14S18430   1.575   1.786   8.961  0.6856  0.3132 -0.9690
  164SOPE  C21518431   1.783   1.741   8.906  0.4956 -0.0733 -0.1583
  164SOPE  H15R18432   1.778   1.630   8.904  0.8370 -0.1230 -2.8637
  164SOPE  H15S18433   1.888   1.754   8.941 -0.2070 -1.5730  2.7805
  164SOPE  C21618434   1.757   1.788   8.759 -0.0122  0.1544 -0.3196
  164SOPE  H16R18435   1.761   1.899   8.754 -0.5871  0.1197 -2.6088
  164SOPE  H16S18436   1.656   1.756   8.726 -0.1917  1.8227 -1.4781
  164SOPE  C21718437   1.867   1.725   8.668  0.2080  0.3253  0.0483
  164SOPE  H17R18438   1.842   1.727   8.559 -1.4524 -0.8501  0.3587
  164SOPE  H17S18439   1.877   1.618   8.693 -0.1009  0.4062  0.5364
  164SOPE  C21818440   2.007   1.793   8.681  0.1464 -0.1344 -0.1608
  164SOPE  H18R18441   2.068   1.779   8.590  0.4910  1.8638 -0.2752
  164SOPE  H18S18442   2.058   1.747   8.768 -1.3636 -0.6686  0.4812
  164SOPE  H18T18443   1.985   1.900   8.703 -1.4639 -0.2216 -1.1635
  164SOPE   C3318444   1.131   1.585   9.932 -0.0160 -0.1565 -0.1548
  164SOPE   H3X18445   1.199   1.672   9.949 -0.1912 -0.1497  0.5136
  164SOPE   H3Y18446   1.029   1.627   9.918  0.4471  0.7675 -0.8286
  164SOPE   C3418447   1.166   1.513   9.798 -0.4793  0.0319  0.1770
  164SOPE   H4X18448   1.110   1.418   9.791  0.8669 -0.7529 -0.2296
  164SOPE   H4Y18449   1.275   1.494   9.795 -0.4688  0.2103 -0.6054
  164SOPE   C3518450   1.140   1.608   9.687  0.6074 -0.7487  0.4363
  164SOPE   H5X18451   1.192   1.698   9.725 -1.6167  0.3681  0.9911
  164SOPE   H5Y18452   1.035   1.641   9.672  1.1890  0.3505 -1.4656
  164SOPE   C3618453   1.182   1.568   9.550  0.4866  0.1918  0.7281
  164SOPE   H6X18454   1.146   1.467   9.520  2.2610 -1.7658  4.4905
  164SOPE   H6Y18455   1.293   1.566   9.549  0.5527  1.9227  0.0794
  164SOPE   C3718456   1.129   1.672   9.448  0.2290 -0.2090 -0.2562
  164SOPE   H7X18457   1.173   1.770   9.477  1.9546 -0.4726 -1.8075
  164SOPE   H7Y18458   1.018   1.681   9.454  0.0262 -1.0039 -2.2529
  164SOPE   C3818459   1.156   1.631   9.301 -0.1659  0.0242  0.2162
  164SOPE   H8X18460   1.105   1.534   9.285  1.3060 -0.4783 -1.7286
  164SOPE   H8Y18461   1.264   1.617   9.281 -0.4465  0.0539 -1.4522
  164SOPE   C3918462   1.115   1.732   9.191  0.2846  0.1057  0.4722
  164SOPE   H9X18463   1.165   1.829   9.213 -0.1887  0.3334  0.5746
  164SOPE   H9Y18464   1.004   1.745   9.197  0.2693  0.4292 -0.3983
  164SOPE  C31018465   1.153   1.693   9.046 -0.0701  0.6240 -0.1798
  164SOPE  H10X18466   1.113   1.595   9.013  0.4079  0.5985 -0.6812
  164SOPE  H10Y18467   1.262   1.697   9.029 -0.2533  2.0563 -1.2015
  164SOPE  C31118468   1.075   1.793   8.952 -0.7972  0.4056 -0.0343
  164SOPE  H11X18469   1.131   1.888   8.957  1.9236 -1.0613 -0.7519
  164SOPE  H11Y18470   0.969   1.798   8.986 -0.4841  0.0318  1.0314
  164SOPE  C31218471   1.083   1.746   8.805  0.5817 -0.5651 -0.2691
  164SOPE  H12X18472   1.060   1.637   8.805 -1.8483 -0.1105  0.0149
  164SOPE  H12Y18473   1.181   1.772   8.758  1.3225 -0.7302  1.1282
  164SOPE  C31318474   0.981   1.831   8.729 -0.2256  0.3650  0.0008
  164SOPE  H13X18475   1.014   1.936   8.741  1.2324  0.1709 -1.8750
  164SOPE  H13Y18476   0.882   1.818   8.778 -0.5885 -1.4497 -1.0908
  164SOPE  C31418477   0.949   1.788   8.582 -0.6150  0.0003  0.2173
  164SOPE  H14X18478   0.910   1.684   8.584 -0.5603 -0.0156  1.4641
  164SOPE  H14Y18479   1.034   1.784   8.511 -1.3329  1.2101 -0.7522
  164SOPE  C31518480   0.850   1.889   8.512 -1.1118  0.5998 -0.0041
  164SOPE  H15X18481   0.899   1.988   8.501  1.8726 -0.9775 -2.8164
  164SOPE  H15Y18482   0.763   1.900   8.579 -0.2918  2.6866  0.8144
  164SOPE  C31618483   0.820   1.855   8.370  0.4728 -0.5990  0.0030
  164SOPE  H16X18484   0.914   1.822   8.320  0.9223  0.5624  0.0607
  164SOPE  H16Y18485   0.783   1.949   8.322 -0.7656 -0.9237  0.2874
  164SOPE  C31718486   0.703   1.751   8.346 -0.3628  0.0551 -0.6078
  164SOPE  H17X18487   0.750   1.652   8.363 -2.0228 -0.8315 -0.9369
  164SOPE  H17Y18488   0.693   1.756   8.235 -1.5748 -2.6805 -0.6923
  164SOPE  C31818489   0.576   1.766   8.422  0.0719 -0.2856 -0.5820
  164SOPE  H18X18490   0.520   1.671   8.409  1.0497 -0.6796 -2.2060
  164SOPE  H18Y18491   0.515   1.847   8.376 -1.9022 -1.5247 -0.2720
  164SOPE  H18Z18492   0.570   1.789   8.531 -1.0926 -0.0234 -0.6884
  165SOPE     N18493   1.268   1.993  10.870 -0.1351  0.2169  0.1172
  165SOPE   HN118494   1.203   2.027  10.944 -0.5608  0.5286 -0.3916
  165SOPE   HN218495   1.264   1.890  10.853  1.9060  0.3703 -1.6934
  165SOPE   HN318496   1.368   2.004  10.897  0.6913 -0.6159 -2.3811
  165SOPE   C1218497   1.236   2.076  10.746 -0.5590 -0.0389 -0.2927
  165SOPE  H12A18498   1.324   2.062  10.679 -0.7582  1.2452 -0.8645
  165SOPE  H12B18499   1.235   2.184  10.775 -0.6820  0.3392 -1.6444
  165SOPE   C1118500   1.100   2.042  10.677 -1.1252 -0.2025 -0.0153
  165SOPE  H11A18501   1.101   1.935  10.646 -0.1498 -0.1837 -0.0861
  165SOPE  H11B18502   1.073   2.102  10.588  1.4487 -1.7411 -1.9938
  165SOPE     P18503   0.931   2.195  10.810 -0.2260  0.0303 -0.1587
  165SOPE   O1318504   1.018   2.283  10.898  0.0566 -0.2888 -0.2882
  165SOPE   O1418505   0.803   2.151  10.872 -0.5160 -0.9180  0.5934
  165SOPE   O1218506   0.995   2.060  10.768 -0.3187  0.2771 -0.0774
  165SOPE   O1118507   0.919   2.272  10.675 -0.2602 -0.5016  0.1196
  165SOPE    C118508   0.780   2.307  10.636 -0.3815  0.2085  0.0284
  165SOPE    HA18509   0.720   2.347  10.721  1.7799  2.0323  0.7812
  165SOPE    HB18510   0.733   2.219  10.587 -2.1549  1.6855 -1.0734
  165SOPE    C218511   0.788   2.417  10.531  0.2163  0.0819 -0.6337
  165SOPE    HS18512   0.690   2.465  10.512  1.5518  2.6382 -1.5214
  165SOPE   O2118513   0.854   2.370  10.409 -0.0644 -0.3408  0.5317
  165SOPE   C2118514   0.769   2.338  10.311  0.6095  0.2464 -0.2240
  165SOPE   O2218515   0.648   2.335  10.314 -0.1764 -0.0875  0.1030
  165SOPE   C2218516   0.851   2.293  10.184 -0.0365 -0.4564 -0.7652
  165SOPE   H2R18517   0.841   2.385  10.123  0.1171  0.4579  0.5487
  165SOPE   H2S18518   0.799   2.208  10.135  0.5465 -1.2719 -0.0125
  165SOPE    C318519   0.863   2.539  10.587 -0.5604  0.0451  0.0513
  165SOPE    HX18520   0.966   2.509  10.616 -0.7389 -0.8474 -0.2213
  165SOPE    HY18521   0.826   2.564  10.689  1.8650 -0.0328  1.0191
  165SOPE   O3118522   0.855   2.645  10.489  0.3621  0.2497 -0.3294
  165SOPE   C3118523   0.905   2.757  10.519 -0.3879 -0.5174  0.4263
  165SOPE   O3218524   0.936   2.793  10.633  0.0038 -0.1756 -0.1331
  165SOPE   C3218525   0.929   2.839  10.393 -0.1323 -0.1946 -0.4629
  165SOPE   H2X18526   0.841   2.815  10.330  1.0378 -0.8476 -1.8922
  165SOPE   H2Y18527   1.022   2.801  10.346  1.6994  1.2596  1.7774
  165SOPE   C2318528   1.007   2.268  10.205  0.1303 -0.1246 -0.1108
  165SOPE   H3R18529   1.036   2.189  10.277  3.3751  1.5972  0.7074
  165SOPE   H3S18530   1.051   2.357  10.255  0.3877 -0.0324 -0.4918
  165SOPE   C2418531   1.076   2.256  10.063 -0.1321  0.8605 -0.1707
  165SOPE   H4R18532   1.186   2.241  10.077 -0.5497 -2.1242  0.6191
  165SOPE   H4S18533   1.048   2.160  10.013  1.1560  0.0107  0.6612
  165SOPE   C2518534   1.048   2.366   9.954 -0.2240  0.5955  0.7472
  165SOPE   H5R18535   0.938   2.365   9.939 -0.2828 -0.7890  1.1200
  165SOPE   H5S18536   1.082   2.465   9.991 -2.2104  1.4152  0.4632
  165SOPE   C2618537   1.097   2.328   9.812 -0.0983  0.1616  0.3328
  165SOPE   H6R18538   1.199   2.284   9.825  0.3925  1.3036  0.4715
  165SOPE   H6S18539   1.030   2.253   9.764  0.3794 -1.3185  1.8646
  165SOPE   C2718540   1.114   2.450   9.721  0.8070 -0.7272  0.3098
  165SOPE   H7R18541   1.016   2.503   9.719  0.2504 -1.4574  3.2393
  165SOPE   H7S18542   1.181   2.515   9.781  1.1851  0.2193 -1.0844
  165SOPE   C2818543   1.170   2.421   9.592  0.1252 -0.1418  0.9876
  165SOPE   H8R18544   1.259   2.360   9.616 -0.0507 -0.1985  1.5180
  165SOPE   H8S18545   1.091   2.370   9.533 -1.2531  1.2903  1.5122
  165SOPE   C2918546   1.220   2.550   9.525 -0.7283  0.2211  0.3086
  165SOPE   H9118547   1.319   2.580   9.563 -0.6901 -0.3891  0.6967
  165SOPE  C21018548   1.140   2.624   9.445 -0.4849 -0.1650 -0.2986
  165SOPE  H10118549   1.180   2.722   9.417  0.3736 -0.1478  0.8745
  165SOPE  C21118550   0.998   2.582   9.408 -0.0526  0.4123  0.2379
  165SOPE  H11R18551   0.930   2.670   9.412 -1.8127 -0.5765 -3.6823
  165SOPE  H11S18552   0.952   2.507   9.476  0.4142  0.6675  0.8366
  165SOPE  C21218553   1.001   2.530   9.260 -0.7718 -0.3591  0.3053
  165SOPE  H12R18554   0.901   2.486   9.239 -1.0501  0.6915 -0.6393
  165SOPE  H12S18555   1.065   2.439   9.265  1.1712  0.9797  0.6449
  165SOPE  C21318556   1.052   2.611   9.146 -0.1498  0.6039  0.0126
  165SOPE  H13R18557   1.157   2.641   9.165  0.4691 -1.2685 -0.2074
  165SOPE  H13S18558   1.000   2.707   9.127 -0.9584  0.1220 -0.2660
  165SOPE  C21418559   1.053   2.519   9.023 -0.1554  0.2887  0.3524
  165SOPE  H14R18560   0.961   2.458   9.017 -0.0458  0.0483  1.0439
  165SOPE  H14S18561   1.131   2.440   9.034 -0.4349 -0.1215 -0.4821
  165SOPE  C21518562   1.065   2.590   8.881  0.0689  0.4165 -0.1333
  165SOPE  H15R18563   0.995   2.676   8.875  0.9436  1.1328 -0.4722
  165SOPE  H15S18564   1.047   2.517   8.799  2.9999 -3.0594  1.9912
  165SOPE  C21618565   1.207   2.658   8.864 -0.1622 -0.2266  0.8474
  165SOPE  H16R18566   1.282   2.578   8.884  0.3272  0.8545  3.8253
  165SOPE  H16S18567   1.206   2.725   8.953 -0.9011  1.3062 -0.2620
  165SOPE  C21718568   1.235   2.734   8.730  0.4547  0.5564  0.1268
  165SOPE  H17R18569   1.155   2.810   8.714 -0.2842 -0.5058 -1.5005
  165SOPE  H17S18570   1.219   2.668   8.643  0.7958  0.6561 -0.0128
  165SOPE  C21818571   1.378   2.795   8.712  0.4911 -0.4736 -0.3715
  165SOPE  H18R18572   1.388   2.862   8.624  1.9912 -1.3658 -0.9115
  165SOPE  H18S18573   1.459   2.718   8.713  2.6111  1.5585 -2.5354
  165SOPE  H18T18574   1.387   2.857   8.803  3.1548  0.0935 -0.9324
  165SOPE   C3318575   0.929   2.997  10.407  0.7533  0.1386 -0.3472
  165SOPE   H3X18576   1.031   3.033  10.434  1.3275 -1.3636 -0.4116
  165SOPE   H3Y18577   0.854   3.016  10.487  2.1119 -0.3348  1.0858
  165SOPE   C3418578   0.877   3.057  10.273 -0.3862 -0.6142  0.4059
  165SOPE   H4X18579   0.843   3.162  10.274  0.7571 -0.1970 -1.2953
  165SOPE   H4Y18580   0.783   3.001  10.252 -0.6326  0.3009 -1.0328
  165SOPE   C3518581   0.980   3.022  10.156  0.4350 -0.1210  0.0918
  165SOPE   H5X18582   1.017   2.918  10.145 -0.4379 -0.4689  0.3026
  165SOPE   H5Y18583   1.063   3.087  10.188  0.4133 -0.6514  1.2806
  165SOPE   C3618584   0.927   3.055  10.015 -0.1719 -0.1517 -0.9983
  165SOPE   H6X18585   1.012   3.037   9.945  0.2913 -0.7214 -0.3091
  165SOPE   H6Y18586   0.889   3.159  10.007  0.6023  0.1568 -0.7838
  165SOPE   C3718587   0.807   2.972   9.968 -0.4294  0.2734  0.3768
  165SOPE   H7X18588   0.719   2.997  10.031 -0.7808 -0.7681  0.3140
  165SOPE   H7Y18589   0.837   2.865   9.965 -3.7867 -0.7783 -2.8867
  165SOPE   C3818590   0.764   3.004   9.820 -0.3172  0.6975 -0.5318
  165SOPE   H8X18591   0.742   3.113   9.813 -2.0066  0.3586 -1.0796
  165SOPE   H8Y18592   0.665   2.956   9.801 -0.8122  1.3996  0.1824
  165SOPE   C3918593   0.875   2.954   9.715  0.4550 -0.0402  0.6483
  165SOPE   H9X18594   0.932   2.868   9.757  1.8585  1.0999  1.1669
  165SOPE   H9Y18595   0.947   3.037   9.699  0.9569 -1.0061 -3.1091
  165SOPE  C31018596   0.815   2.920   9.574 -0.1149  1.0161  0.1003
  165SOPE  H10X18597   0.746   2.836   9.596 -0.6108  1.4186  0.1028
  165SOPE  H10Y18598   0.888   2.882   9.499  0.1924 -0.9257  1.3315
  165SOPE  C31118599   0.747   3.040   9.498  0.5722  0.2345  0.1918
  165SOPE  H11X18600   0.819   3.124   9.506  1.0707 -0.1699  0.0098
  165SOPE  H11Y18601   0.654   3.066   9.552  0.3561 -0.1592  0.0108
  165SOPE  C31218602   0.710   3.008   9.352 -0.0430  0.6378  0.4124
  165SOPE  H12X18603   0.674   3.104   9.309 -0.9030 -0.3341 -1.1275
  165SOPE  H12Y18604   0.629   2.932   9.344 -0.9833  1.5871  0.6385
  165SOPE  C31318605   0.823   2.972   9.256 -0.4062 -0.2142 -0.5335
  165SOPE  H13X18606   0.868   2.872   9.276  2.4979  1.2700  0.8944
  165SOPE  H13Y18607   0.908   3.040   9.276 -0.0866 -1.1594  1.6070
  165SOPE  C31418608   0.784   3.001   9.110  0.8179  0.9966 -0.1794
  165SOPE  H14X18609   0.876   2.995   9.049  0.4244 -0.8224 -0.6549
  165SOPE  H14Y18610   0.743   3.104   9.097  0.2166  0.5657 -1.9649
  165SOPE  C31518611   0.675   2.903   9.067  0.1640 -0.2195 -0.5809
  165SOPE  H15X18612   0.579   2.920   9.120 -1.5621 -0.4246 -3.4209
  165SOPE  H15Y18613   0.718   2.804   9.094  0.6724  0.4150  1.0010
  165SOPE  C31618614   0.652   2.914   8.913  0.0340  0.1647  0.1499
  165SOPE  H16X18615   0.748   2.873   8.875  0.1689 -2.6060  3.0732
  165SOPE  H16Y18616   0.658   3.021   8.885 -0.2729  0.2817  0.5167
  165SOPE  C31718617   0.525   2.844   8.864 -0.7623  0.0760  0.0790
  165SOPE  H17X18618   0.493   2.886   8.766  1.0801  0.1391 -0.5463
  165SOPE  H17Y18619   0.448   2.860   8.942 -2.1994  0.1899 -1.3147
  165SOPE  C31818620   0.541   2.690   8.851  0.5017 -0.7909 -0.6490
  165SOPE  H18X18621   0.622   2.661   8.781  0.3731 -2.3491 -0.1922
  165SOPE  H18Y18622   0.451   2.643   8.805 -0.3600 -0.9483  1.1345
  165SOPE  H18Z18623   0.561   2.632   8.943 -0.4914 -3.8119 -2.2142
  166SOPE     N18624   2.401   6.640  11.169 -0.2675 -0.1166  0.4223
  166SOPE   HN118625   2.448   6.548  11.176 -0.3795 -0.3420 -1.2838
  166SOPE   HN218626   2.419   6.696  11.255 -0.2299  0.3126  0.1372
  166SOPE   HN318627   2.299   6.618  11.169 -0.2048 -0.5561 -1.1415
  166SOPE   C1218628   2.448   6.725  11.055  0.0594  0.3165  0.8258
  166SOPE  H12A18629   2.431   6.834  11.067 -3.3391 -0.1511  1.1735
  166SOPE  H12B18630   2.392   6.691  10.966  1.5889 -2.8821  0.9480
  166SOPE   C1118631   2.604   6.706  11.039  0.1393  0.2173  0.4486
  166SOPE  H11A18632   2.658   6.764  11.117  0.4730 -0.0074  0.3856
  166SOPE  H11B18633   2.638   6.768  10.954 -0.7763 -0.5266 -0.4857
  166SOPE     P18634   2.650   6.487  10.905 -0.2940  0.3695  0.2751
  166SOPE   O1318635   2.518   6.488  10.841  0.5460  0.2022 -0.1016
  166SOPE   O1418636   2.710   6.351  10.928  0.3823  0.4087  0.4635
  166SOPE   O1218637   2.650   6.565  11.042 -0.1876 -0.0350  0.0761
  166SOPE   O1118638   2.746   6.583  10.821  0.0039  0.6631 -0.4166
  166SOPE    C118639   2.698   6.675  10.726  1.2328  0.1780  0.5838
  166SOPE    HA18640   2.772   6.755  10.702  0.7620  0.9729  1.6707
  166SOPE    HB18641   2.600   6.721  10.751  1.9665  1.8935  0.4650
  166SOPE    C218642   2.658   6.601  10.593  0.0086 -0.4259 -0.3735
  166SOPE    HS18643   2.592   6.516  10.621 -0.0828 -0.4574 -0.6825
  166SOPE   O2118644   2.782   6.554  10.535 -0.7794 -0.1223  0.2152
  166SOPE   C2118645   2.778   6.442  10.471  0.3449  0.2431  0.4294
  166SOPE   O2218646   2.693   6.359  10.485 -0.4011  0.5396 -0.0472
  166SOPE   C2218647   2.884   6.446  10.356 -0.1654 -0.0070 -0.4131
  166SOPE   H2R18648   2.980   6.435  10.410 -1.2731  3.4174  2.6106
  166SOPE   H2S18649   2.871   6.544  10.305 -0.2471  1.3907  2.1626
  166SOPE    C318650   2.570   6.692  10.498 -1.2780 -0.7829 -0.1304
  166SOPE    HX18651   2.627   6.787  10.494 -0.4881 -1.2382  0.0234
  166SOPE    HY18652   2.472   6.705  10.547 -0.4668  1.2258  1.0737
  166SOPE   O3118653   2.568   6.632  10.368 -0.0369  0.0259 -0.5076
  166SOPE   C3118654   2.452   6.573  10.330  0.2947  0.4453  0.4560
  166SOPE   O3218655   2.350   6.563  10.393 -0.3511  0.3775  0.1498
  166SOPE   C3218656   2.482   6.512  10.193  0.2993 -0.1779 -0.3344
  166SOPE   H2X18657   2.542   6.419  10.198 -0.9862 -1.0441 -0.4476
  166SOPE   H2Y18658   2.539   6.584  10.131  0.3537 -0.1879 -0.2956
  166SOPE   C2318659   2.868   6.336  10.240  0.1228 -0.2299  0.2503
  166SOPE   H3R18660   2.767   6.344  10.195 -0.6972  0.5802  2.1246
  166SOPE   H3S18661   2.875   6.235  10.286  2.4880  0.2215  1.0385
  166SOPE   C2418662   2.980   6.347  10.133 -0.7274 -0.8507 -0.1350
  166SOPE   H4R18663   3.040   6.440  10.142  0.0818 -1.5335  2.0914
  166SOPE   H4S18664   3.061   6.276  10.158 -1.1336 -2.0208 -2.0010
  166SOPE   C2518665   2.930   6.331   9.986  0.0450 -0.4524 -0.1434
  166SOPE   H5R18666   2.865   6.241   9.975  3.0841 -2.8425  0.0153
  166SOPE   H5S18667   2.879   6.426   9.959  2.0829  1.0010  0.8908
  166SOPE   C2618668   3.049   6.315   9.894 -0.2585 -0.7066 -0.0199
  166SOPE   H6R18669   3.122   6.394   9.923 -0.1312 -1.5821  2.2578
  166SOPE   H6S18670   3.102   6.219   9.915  2.3235  0.9212  1.5060
  166SOPE   C2718671   3.008   6.337   9.746 -0.0257  0.2373  0.4379
  166SOPE   H7R18672   2.917   6.275   9.732  0.5600 -0.4429 -0.4761
  166SOPE   H7S18673   2.963   6.437   9.727 -0.0812  0.3737  1.2342
  166SOPE   C2818674   3.118   6.293   9.650 -0.6134  0.1501  0.7086
  166SOPE   H8R18675   3.101   6.364   9.566 -0.7681  1.4669  1.8216
  166SOPE   H8S18676   3.214   6.334   9.687 -0.6428  0.0235  0.9276
  166SOPE   C2918677   3.125   6.146   9.625  0.0828  0.8324  0.2562
  166SOPE   H9118678   3.109   6.093   9.721 -3.3455  1.6943  0.2955
  166SOPE  C21018679   3.133   6.083   9.507 -0.4754  0.7396 -0.9673
  166SOPE  H10118680   3.147   5.974   9.505  1.1930  0.8748  0.8779
  166SOPE  C21118681   3.139   6.150   9.372 -0.1579  0.6854 -0.0206
  166SOPE  H11R18682   3.187   6.087   9.293 -1.7777  0.0681 -0.5530
  166SOPE  H11S18683   3.207   6.238   9.373  0.2626  0.3830 -0.7997
  166SOPE  C21218684   3.006   6.193   9.320 -0.0789 -0.0388  0.0329
  166SOPE  H12R18685   2.947   6.252   9.394 -0.2115 -1.4618  1.1109
  166SOPE  H12S18686   2.948   6.098   9.321  0.8568 -0.6726  2.5290
  166SOPE  C21318687   3.005   6.260   9.177  0.1915  0.1679  0.5945
  166SOPE  H13R18688   2.900   6.278   9.148 -0.1695 -1.1457  1.0136
  166SOPE  H13S18689   3.043   6.183   9.106  1.8409  0.0957  1.5110
  166SOPE  C21418690   3.086   6.387   9.177  0.3766  0.2378  0.0023
  166SOPE  H14R18691   3.193   6.369   9.199  0.2099 -0.8465 -0.0371
  166SOPE  H14S18692   3.059   6.464   9.253  1.3947  2.7123 -1.9754
  166SOPE  C21518693   3.089   6.467   9.039 -0.0067  0.0843 -0.6166
  166SOPE  H15R18694   2.984   6.501   9.029 -0.5705 -0.0512  3.1567
  166SOPE  H15S18695   3.117   6.391   8.963 -1.8321 -2.1213  0.7673
  166SOPE  C21618696   3.198   6.572   9.051  0.1068 -0.2995 -0.9278
  166SOPE  H16R18697   3.293   6.518   9.074 -0.4053 -0.6992  0.3286
  166SOPE  H16S18698   3.181   6.633   9.142  1.5537  0.5884 -1.2213
  166SOPE  C21718699   3.223   6.655   8.928  0.7894  0.2317 -0.4058
  166SOPE  H17R18700   3.257   6.590   8.844 -0.3085  0.8853 -1.3885
  166SOPE  H17S18701   3.310   6.723   8.943 -0.7975  1.9422  1.6479
  166SOPE  C21818702   3.096   6.735   8.878 -0.3735 -0.3758 -0.1094
  166SOPE  H18R18703   3.057   6.812   8.947 -1.9901 -1.4934  0.2637
  166SOPE  H18S18704   3.007   6.672   8.860 -1.1384  0.8347 -0.6895
  166SOPE  H18T18705   3.127   6.791   8.786 -0.7093  2.4686  1.3931
  166SOPE   C3318706   2.358   6.459  10.122 -0.6731  0.1431 -0.2632
  166SOPE   H3X18707   2.305   6.552  10.094 -1.0201  0.6747  1.9966
  166SOPE   H3Y18708   2.305   6.393  10.194  0.1998  1.7971  2.0238
  166SOPE   C3418709   2.388   6.385   9.985 -0.0500 -0.2933  0.1854
  166SOPE   H4X18710   2.303   6.319   9.959 -0.0702 -1.5786  3.1133
  166SOPE   H4Y18711   2.475   6.317   9.990 -1.1898 -1.8265 -0.1394
  166SOPE   C3518712   2.403   6.474   9.861  0.0722  0.5448  0.2519
  166SOPE   H5X18713   2.494   6.537   9.869  1.5873 -1.4705 -0.3740
  166SOPE   H5Y18714   2.313   6.539   9.851 -0.4470 -0.2190 -0.1422
  166SOPE   C3618715   2.406   6.392   9.729 -0.9913  0.2622  0.0186
  166SOPE   H6X18716   2.420   6.459   9.642 -2.3327  2.2028  1.2008
  166SOPE   H6Y18717   2.307   6.347   9.706 -0.5493 -1.6675  1.6294
  166SOPE   C3718718   2.508   6.272   9.725  0.0011  0.6689 -0.0735
  166SOPE   H7X18719   2.484   6.219   9.820 -0.2500  1.5464  0.3647
  166SOPE   H7Y18720   2.614   6.307   9.729  1.0389 -2.2119  0.4728
  166SOPE   C3818721   2.496   6.169   9.610  0.0583  0.1699  0.1632
  166SOPE   H8X18722   2.392   6.129   9.615 -0.6153  1.9564  1.9948
  166SOPE   H8Y18723   2.566   6.085   9.627  2.0563  1.5945 -0.5777
  166SOPE   C3918724   2.520   6.217   9.468 -0.6038  0.1601 -0.3443
  166SOPE   H9X18725   2.629   6.219   9.448 -0.1466  3.2733  1.7793
  166SOPE   H9Y18726   2.479   6.319   9.451  1.0679  0.7735 -0.8410
  166SOPE  C31018727   2.459   6.123   9.365  0.2133  0.3822 -0.4451
  166SOPE  H10X18728   2.354   6.095   9.388 -0.7113  3.3706 -0.5073
  166SOPE  H10Y18729   2.517   6.029   9.371 -0.8625 -0.3689 -1.3138
  166SOPE  C31118730   2.464   6.178   9.219  0.9208  0.3083  0.8119
  166SOPE  H11X18731   2.561   6.232   9.208  0.2241  1.1523 -1.7386
  166SOPE  H11Y18732   2.384   6.253   9.201  1.4801  0.8311  0.4357
  166SOPE  C31218733   2.441   6.080   9.108  0.3521 -0.1442 -0.4467
  166SOPE  H12X18734   2.418   6.142   9.018 -1.8732  1.4878  1.1517
  166SOPE  H12Y18735   2.353   6.019   9.134  1.0802 -1.2899 -0.6134
  166SOPE  C31318736   2.561   5.989   9.076 -0.3795  0.0751  0.2247
  166SOPE  H13X18737   2.571   5.921   9.163  0.4703 -0.2816 -0.1429
  166SOPE  H13Y18738   2.646   6.057   9.054 -0.2900 -0.2810 -0.5473
  166SOPE  C31418739   2.540   5.900   8.950 -0.5018  0.0026  0.5190
  166SOPE  H14X18740   2.549   5.976   8.870  0.3752 -0.2426  0.3735
  166SOPE  H14Y18741   2.443   5.844   8.952  0.0007 -1.0839 -1.7316
  166SOPE  C31518742   2.658   5.803   8.910 -0.3069 -0.1254 -0.3358
  166SOPE  H15X18743   2.677   5.736   8.997 -0.9262  1.3502  0.9840
  166SOPE  H15Y18744   2.741   5.875   8.901  0.0802 -0.6551 -1.1227
  166SOPE  C31618745   2.642   5.723   8.781  0.5343  1.0575  0.4591
  166SOPE  H16X18746   2.635   5.776   8.684 -0.2218 -0.9860 -0.6752
  166SOPE  H16Y18747   2.552   5.659   8.787  1.0843  0.3702  1.6225
  166SOPE  C31718748   2.766   5.625   8.761  0.2205 -0.3375  0.3277
  166SOPE  H17X18749   2.721   5.545   8.699 -1.5111 -1.1246  2.4678
  166SOPE  H17Y18750   2.787   5.565   8.852 -0.5433 -1.6049 -0.3056
  166SOPE  C31818751   2.890   5.683   8.695  0.3843 -0.2925 -0.4251
  166SOPE  H18X18752   2.947   5.751   8.762  1.6602 -2.2901  0.6171
  166SOPE  H18Y18753   2.857   5.730   8.600 -1.9609  0.8311  0.8416
  166SOPE  H18Z18754   2.964   5.604   8.672  3.2620  1.6570  1.4604
  167SOPE     N18755   6.690   5.121   6.226 -0.1364  0.1334  0.4990
  167SOPE   HN118756   6.668   5.207   6.173  0.5447  0.1196  0.1817
  167SOPE   HN218757   6.735   5.042   6.175 -0.8090 -0.1987  0.4132
  167SOPE   HN318758   6.595   5.084   6.245 -0.2567 -1.4144 -2.5159
  167SOPE   C1218759   6.771   5.170   6.336 -0.3076  0.1834  0.1440
  167SOPE  H12A18760   6.873   5.205   6.308 -0.2778 -0.1383 -0.1537
  167SOPE  H12B18761   6.774   5.093   6.416  0.1180  0.0692  0.0205
  167SOPE   C1118762   6.713   5.294   6.405 -0.6617 -0.4387  0.2640
  167SOPE  H11A18763   6.783   5.334   6.482 -0.1012  0.6482 -0.7825
  167SOPE  H11B18764   6.614   5.279   6.455 -0.5166  0.2128  0.7714
  167SOPE     P18765   6.762   5.526   6.283 -0.5242  0.0762  0.4172
  167SOPE   O1318766   6.741   5.577   6.148 -0.7140 -0.2188  0.3723
  167SOPE   O1418767   6.905   5.511   6.323  0.2477  0.0714 -0.2556
  167SOPE   O1218768   6.674   5.393   6.300 -0.4138 -0.3170  0.3243
  167SOPE   O1118769   6.689   5.622   6.382 -0.2867  0.4358  0.0763
  167SOPE    C118770   6.717   5.617   6.518  0.6101  0.4011 -0.0128
  167SOPE    HA18771   6.823   5.601   6.547  0.7369  0.2735 -0.5391
  167SOPE    HB18772   6.644   5.549   6.567  0.2694  0.0201 -1.0272
  167SOPE    C218773   6.675   5.755   6.586 -0.1151  0.0895  0.1359
  167SOPE    HS18774   6.743   5.834   6.549 -1.9401  0.6199 -2.3520
  167SOPE   O2118775   6.681   5.733   6.728  0.0480 -0.1323  0.5798
  167SOPE   C2118776   6.780   5.785   6.797 -0.5376  0.5458  0.0702
  167SOPE   O2218777   6.871   5.856   6.751 -0.5439 -0.1714  0.3687
  167SOPE   C2218778   6.753   5.753   6.942 -0.5483  0.0196  0.1310
  167SOPE   H2R18779   6.780   5.647   6.961 -2.0123 -0.2138  0.9910
  167SOPE   H2S18780   6.648   5.777   6.967 -0.1819  4.7563 -1.8036
  167SOPE    C318781   6.531   5.807   6.545  0.0518  0.1325  0.2608
  167SOPE    HX18782   6.468   5.720   6.575 -0.4062 -0.0120 -1.0492
  167SOPE    HY18783   6.530   5.827   6.436  0.7970  2.6679  0.6584
  167SOPE   O3118784   6.487   5.928   6.618  0.2232 -0.4059 -0.9507
  167SOPE   C3118785   6.499   6.042   6.549 -0.1100 -0.1663  0.8612
  167SOPE   O3218786   6.551   6.053   6.437 -0.0135 -0.1760 -0.0887
  167SOPE   C3218787   6.452   6.158   6.626  0.2932 -0.2100  0.0423
  167SOPE   H2X18788   6.343   6.147   6.643  0.6556 -0.2709  2.8621
  167SOPE   H2Y18789   6.478   6.237   6.553  1.3116 -2.0925 -1.7220
  167SOPE   C2318790   6.839   5.824   7.050 -0.3402 -0.1150 -0.1601
  167SOPE   H3R18791   6.801   5.924   7.082  0.2082 -0.0942  0.4480
  167SOPE   H3S18792   6.943   5.826   7.011 -0.1609  0.3006  0.3231
  167SOPE   C2418793   6.843   5.746   7.179 -0.1370  0.3594  0.4068
  167SOPE   H4R18794   6.742   5.751   7.225 -1.2218  0.7962 -1.8527
  167SOPE   H4S18795   6.860   5.639   7.152  1.6046  0.8250 -0.4742
  167SOPE   C2518796   6.952   5.784   7.278 -0.3855 -0.8609  0.6389
  167SOPE   H5R18797   7.052   5.780   7.230  0.3897 -1.0456  2.2170
  167SOPE   H5S18798   6.951   5.890   7.309  1.0613 -0.4099 -0.7069
  167SOPE   C2618799   6.949   5.698   7.400 -0.0624  0.2425  0.5122
  167SOPE   H6R18800   6.848   5.683   7.446 -0.5515 -3.2100 -1.3414
  167SOPE   H6S18801   6.965   5.593   7.369  0.5429  0.5477 -0.2365
  167SOPE   C2718802   7.055   5.748   7.501  0.8331 -0.0502 -0.4616
  167SOPE   H7R18803   7.139   5.780   7.436  1.4189  0.3085  0.4515
  167SOPE   H7S18804   7.016   5.836   7.556  0.6415  0.3046 -1.1520
  167SOPE   C2818805   7.097   5.637   7.591  0.4858  0.2244 -0.4839
  167SOPE   H8R18806   7.146   5.565   7.522 -0.1654 -0.5915 -0.1001
  167SOPE   H8S18807   7.180   5.678   7.653 -0.5650  1.2757  0.2642
  167SOPE   C2918808   6.993   5.575   7.679 -0.1529 -0.5829 -0.2337
  167SOPE   H9118809   6.898   5.543   7.633 -1.6556  0.0103  2.2765
  167SOPE  C21018810   7.003   5.547   7.807  0.5476 -0.6457 -0.0275
  167SOPE  H10118811   6.918   5.511   7.867 -0.5005  0.9427 -0.5177
  167SOPE  C21118812   7.124   5.585   7.894  0.4016 -0.2826 -0.6818
  167SOPE  H11R18813   7.166   5.679   7.855 -0.4987  0.2769 -0.3412
  167SOPE  H11S18814   7.208   5.512   7.897  0.6775 -0.0773 -2.4203
  167SOPE  C21218815   7.076   5.618   8.037 -0.2511 -0.2754 -0.2787
  167SOPE  H12R18816   7.035   5.526   8.084 -1.1451 -0.5652 -1.5757
  167SOPE  H12S18817   6.986   5.683   8.036  1.0950  1.6832 -1.4792
  167SOPE  C21318818   7.179   5.689   8.125 -0.0864  0.2812 -0.0683
  167SOPE  H13R18819   7.272   5.629   8.119 -0.5083 -0.4713  0.6933
  167SOPE  H13S18820   7.148   5.665   8.229 -1.6351  0.5901 -0.4371
  167SOPE  C21418821   7.193   5.837   8.097 -0.0845  0.1398  0.5468
  167SOPE  H14R18822   7.103   5.890   8.135 -0.2632 -0.2105  0.6105
  167SOPE  H14S18823   7.212   5.851   7.989 -2.6867 -0.7119 -0.0843
  167SOPE  C21518824   7.320   5.880   8.183 -0.6409 -0.1341  0.5105
  167SOPE  H15R18825   7.391   5.794   8.181  0.2837  0.5632 -2.4220
  167SOPE  H15S18826   7.280   5.891   8.286  0.5577 -3.8223  1.5098
  167SOPE  C21618827   7.390   6.014   8.138 -0.2459  0.0566 -0.4639
  167SOPE  H16R18828   7.426   5.986   8.036 -0.7439 -0.2826 -0.5522
  167SOPE  H16S18829   7.472   6.033   8.209  0.5855 -1.9177 -0.8163
  167SOPE  C21718830   7.311   6.141   8.133  0.2730 -0.6310 -0.4906
  167SOPE  H17R18831   7.202   6.124   8.115  0.2878 -0.4348 -0.7724
  167SOPE  H17S18832   7.352   6.200   8.048  1.4773 -1.9538 -0.8552
  167SOPE  C21818833   7.329   6.226   8.259  0.2779 -0.1148  0.3870
  167SOPE  H18R18834   7.435   6.258   8.264  0.4432 -0.8058  1.8531
  167SOPE  H18S18835   7.316   6.169   8.353  1.1189 -1.6793 -0.3883
  167SOPE  H18T18836   7.267   6.318   8.267  1.2603  0.6373 -0.3959
  167SOPE   C3318837   6.504   6.174   6.776  0.0021  0.0723  0.3408
  167SOPE   H3X18838   6.479   6.078   6.827  1.6373 -0.4559  0.2076
  167SOPE   H3Y18839   6.461   6.264   6.824  1.5657  0.5221  0.9617
  167SOPE   C3418840   6.659   6.185   6.798 -0.1515  0.2398  0.4438
  167SOPE   H4X18841   6.704   6.269   6.742 -1.9830 -0.1621 -1.7549
  167SOPE   H4Y18842   6.698   6.091   6.753  1.2586  1.2962 -0.6397
  167SOPE   C3518843   6.697   6.189   6.954 -0.9194  0.9742  0.1948
  167SOPE   H5X18844   6.793   6.134   6.957  0.2178  2.8872  0.2504
  167SOPE   H5Y18845   6.622   6.131   7.011  0.2735  2.1611  3.1611
  167SOPE   C3618846   6.691   6.331   7.011  0.3861  0.5044 -0.5189
  167SOPE   H6X18847   6.586   6.366   7.018  0.6123  1.1510 -0.3214
  167SOPE   H6Y18848   6.747   6.396   6.941  0.0007  1.2279 -0.1598
  167SOPE   C3718849   6.764   6.336   7.149 -0.4110  0.3125  0.0947
  167SOPE   H7X18850   6.774   6.442   7.180  0.2846 -0.6441  3.5977
  167SOPE   H7Y18851   6.866   6.291   7.143 -0.2590  0.7383 -0.5658
  167SOPE   C3818852   6.679   6.264   7.261  0.4815  0.2898  0.1298
  167SOPE   H8X18853   6.655   6.157   7.241  0.0595  0.5852 -1.0164
  167SOPE   H8Y18854   6.584   6.318   7.242  0.6262 -0.5331 -3.9422
  167SOPE   C3918855   6.736   6.263   7.407 -0.8216 -0.4791  0.1481
  167SOPE   H9X18856   6.845   6.273   7.388 -0.5820 -1.3867  0.9552
  167SOPE   H9Y18857   6.719   6.161   7.448  0.5259 -0.9679 -0.4356
  167SOPE  C31018858   6.691   6.377   7.491  0.2452 -0.2186  0.3587
  167SOPE  H10X18859   6.583   6.365   7.515  0.5071 -2.1303  0.7296
  167SOPE  H10Y18860   6.706   6.473   7.437  0.6290 -0.4797 -0.0056
  167SOPE  C31118861   6.773   6.379   7.620  0.0164 -0.1793  0.3892
  167SOPE  H11X18862   6.873   6.417   7.590 -0.2787  0.2120 -0.1295
  167SOPE  H11Y18863   6.784   6.273   7.652 -2.5109 -0.2825  1.1293
  167SOPE  C31218864   6.709   6.467   7.727 -0.6588 -0.2974  0.1050
  167SOPE  H12X18865   6.696   6.565   7.677  2.3470 -0.7796 -1.8774
  167SOPE  H12Y18866   6.776   6.481   7.815 -0.3262  1.6136 -0.3936
  167SOPE  C31318867   6.576   6.413   7.782  0.0542  0.2007 -0.4010
  167SOPE  H13X18868   6.524   6.345   7.711  0.0613  1.3333 -1.5288
  167SOPE  H13Y18869   6.511   6.503   7.790 -0.6052 -0.0799 -2.0128
  167SOPE  C31418870   6.599   6.341   7.915 -0.4201 -0.3092  0.6382
  167SOPE  H14X18871   6.624   6.419   7.990  1.1075  0.9812 -1.0954
  167SOPE  H14Y18872   6.696   6.286   7.911  0.4296  1.1546  0.1006
  167SOPE  C31518873   6.479   6.255   7.953  0.6841 -0.6502  0.9768
  167SOPE  H15X18874   6.480   6.170   7.881 -0.4745 -0.5256  0.8044
  167SOPE  H15Y18875   6.389   6.315   7.929  1.5919  0.8393  1.1685
  167SOPE  C31618876   6.479   6.206   8.095  0.0611  0.1412  0.2273
  167SOPE  H16X18877   6.397   6.132   8.102  2.3320 -2.6101 -0.2709
  167SOPE  H16Y18878   6.464   6.292   8.163 -3.5060 -0.2560  0.1375
  167SOPE  C31718879   6.606   6.123   8.128 -0.4155  0.5091 -0.0992
  167SOPE  H17X18880   6.696   6.189   8.132 -0.2829  0.2897  1.7432
  167SOPE  H17Y18881   6.622   6.059   8.038 -2.4298 -0.8875  0.4565
  167SOPE  C31818882   6.595   6.047   8.257 -0.8056  0.4427  0.6569
  167SOPE  H18X18883   6.508   5.979   8.269 -0.3685 -0.0803  0.8746
  167SOPE  H18Y18884   6.614   6.112   8.345  1.2531  0.8394 -0.0052
  167SOPE  H18Z18885   6.691   5.991   8.246 -0.3505  0.8730  2.2623
  168SOPE     N18886   6.762   4.424   6.449  0.3232 -0.2060 -0.1925
  168SOPE   HN118887   6.826   4.474   6.384  0.2966 -1.8027 -1.5151
  168SOPE   HN218888   6.797   4.340   6.499 -0.7310 -0.0015  0.9347
  168SOPE   HN318889   6.684   4.389   6.389 -0.0203 -0.3476  0.3339
  168SOPE   C1218890   6.712   4.518   6.556  0.0212  0.3503  0.3446
  168SOPE  H12A18891   6.662   4.462   6.639  0.9078  2.3449  2.3284
  168SOPE  H12B18892   6.643   4.591   6.510 -0.2794  0.2062  0.5615
  168SOPE   C1118893   6.832   4.601   6.618  0.7614 -0.0132  0.1951
  168SOPE  H11A18894   6.889   4.535   6.686  0.2684 -1.0078 -0.3292
  168SOPE  H11B18895   6.784   4.683   6.675  1.2826 -0.6916  1.6465
  168SOPE     P18896   6.888   4.782   6.427 -0.2790  0.1454  0.1939
  168SOPE   O1318897   6.760   4.767   6.355  0.1647  0.1970 -0.1269
  168SOPE   O1418898   7.011   4.816   6.351  0.4175 -0.0248  0.4190
  168SOPE   O1218899   6.915   4.649   6.510  0.1230 -0.1903 -0.5348
  168SOPE   O1118900   6.865   4.885   6.534 -0.3176  0.3043  0.3636
  168SOPE    C118901   6.970   4.964   6.593  0.6462  0.1505  0.5045
  168SOPE    HA18902   6.919   5.034   6.663  0.7736 -0.1948  0.9497
  168SOPE    HB18903   7.012   5.030   6.514 -0.2958  0.8358  0.5587
  168SOPE    C218904   7.079   4.884   6.668 -0.5278  1.0497 -0.5020
  168SOPE    HS18905   7.122   4.820   6.588 -1.6689  1.1427 -1.2171
  168SOPE   O2118906   7.019   4.797   6.767 -0.2960  0.0350  0.6851
  168SOPE   C2118907   6.959   4.840   6.873 -0.0513 -0.7424 -0.3981
  168SOPE   O2218908   6.943   4.962   6.895 -0.0460  0.2286  0.4585
  168SOPE   C2218909   6.893   4.727   6.958  0.1723  0.4067  0.3634
  168SOPE   H2R18910   6.932   4.632   6.915 -0.9525  1.0786 -2.2878
  168SOPE   H2S18911   6.785   4.731   6.934 -0.0047  1.7504  1.2870
  168SOPE    C318912   7.188   4.975   6.717 -0.4816 -0.2338 -0.1161
  168SOPE    HX18913   7.128   5.046   6.778  0.2175  0.8700 -0.6942
  168SOPE    HY18914   7.224   5.044   6.638 -1.0528  1.4905  1.0695
  168SOPE   O3118915   7.287   4.908   6.803  0.5503 -0.4585 -0.4668
  168SOPE   C3118916   7.386   4.852   6.747 -0.3470  0.9648 -0.7454
  168SOPE   O3218917   7.413   4.855   6.627  0.0198  0.2263 -0.5747
  168SOPE   C3218918   7.469   4.783   6.856 -0.2955 -0.0150  0.6210
  168SOPE   H2X18919   7.570   4.763   6.814  0.3488  1.0913  1.5760
  168SOPE   H2Y18920   7.413   4.693   6.889 -3.1256  1.8239  1.2098
  168SOPE   C2318921   6.928   4.735   7.105  0.1029 -0.1220  0.3055
  168SOPE   H3R18922   6.911   4.843   7.127 -0.8624  0.3553 -2.4544
  168SOPE   H3S18923   7.037   4.720   7.121  0.6019  2.9359  0.4154
  168SOPE   C2418924   6.843   4.647   7.199 -0.4431 -0.4569  0.9240
  168SOPE   H4R18925   6.736   4.660   7.171 -0.3787  1.1107  1.2828
  168SOPE   H4S18926   6.873   4.543   7.174  0.6698  0.2191 -0.7604
  168SOPE   C2518927   6.855   4.688   7.345 -0.7300 -0.4040 -0.5694
  168SOPE   H5R18928   6.963   4.712   7.361 -0.4567 -0.9978 -1.4322
  168SOPE   H5S18929   6.804   4.782   7.376  0.6371  0.0646  0.3486
  168SOPE   C2618930   6.827   4.578   7.442  0.3396 -0.0582 -0.5427
  168SOPE   H6R18931   6.723   4.543   7.425  0.1345  0.6551 -0.8391
  168SOPE   H6S18932   6.900   4.495   7.438 -0.2078 -0.5489 -0.5681
  168SOPE   C2718933   6.832   4.635   7.586 -0.0050  0.6728  0.3919
  168SOPE   H7R18934   6.941   4.647   7.608 -0.0386 -1.8306  2.3993
  168SOPE   H7S18935   6.774   4.730   7.584  0.7169  1.1194  0.2197
  168SOPE   C2818936   6.792   4.533   7.692 -0.9066 -0.4301 -0.2980
  168SOPE   H8R18937   6.688   4.512   7.657 -2.1312  2.0123  1.5958
  168SOPE   H8S18938   6.841   4.435   7.676 -3.2763 -1.4047 -2.4713
  168SOPE   C2918939   6.790   4.588   7.826  0.0588  0.4302  0.0290
  168SOPE   H9118940   6.744   4.687   7.840 -2.1741 -0.7161  1.4530
  168SOPE  C21018941   6.849   4.538   7.938  0.1261 -0.6235  0.3563
  168SOPE  H10118942   6.837   4.594   8.032 -0.3385 -0.0276 -0.0498
  168SOPE  C21118943   6.937   4.415   7.952 -1.1914 -0.0154  0.4978
  168SOPE  H11R18944   7.001   4.409   7.862 -0.9376 -1.0628  0.7258
  168SOPE  H11S18945   6.875   4.323   7.945 -0.9068 -0.1093 -0.9566
  168SOPE  C21218946   7.020   4.417   8.082 -0.0853 -0.1880 -0.0258
  168SOPE  H12R18947   7.065   4.518   8.093 -3.2552  1.4013 -0.5602
  168SOPE  H12S18948   7.094   4.334   8.078 -0.1447 -0.2712  0.4914
  168SOPE  C21318949   6.934   4.394   8.211  0.3452  0.6175  0.6761
  168SOPE  H13R18950   6.881   4.296   8.210  1.0855  0.1633 -1.9444
  168SOPE  H13S18951   6.850   4.464   8.193 -0.0549 -0.2346 -1.0154
  168SOPE  C21418952   7.009   4.416   8.343  0.1786  0.6845  0.7177
  168SOPE  H14R18953   7.067   4.510   8.329  3.0084 -0.9006  0.9397
  168SOPE  H14S18954   7.084   4.334   8.345 -1.4990 -0.9390  0.1118
  168SOPE  C21518955   6.911   4.423   8.459 -0.4311 -0.4170 -0.6088
  168SOPE  H15R18956   6.854   4.328   8.467 -0.8897 -0.0988 -0.0656
  168SOPE  H15S18957   6.837   4.503   8.438 -2.6035 -2.1746 -0.0422
  168SOPE  C21618958   6.988   4.441   8.593 -0.4711 -0.3345  0.1935
  168SOPE  H16R18959   7.058   4.527   8.582  1.1699 -1.7079 -0.3688
  168SOPE  H16S18960   7.050   4.351   8.611 -2.9849 -2.5773 -1.6205
  168SOPE  C21718961   6.885   4.461   8.708  0.1913  0.0505  0.0534
  168SOPE  H17R18962   6.826   4.367   8.710 -0.1151  0.2498  0.6577
  168SOPE  H17S18963   6.817   4.544   8.680  0.4065 -0.3030 -1.6536
  168SOPE  C21818964   6.960   4.480   8.846  0.0663  0.8454  0.1982
  168SOPE  H18R18965   6.877   4.488   8.919 -0.8996  1.0904 -0.9098
  168SOPE  H18S18966   7.013   4.578   8.848 -3.0744  2.7144 -1.4172
  168SOPE  H18T18967   7.026   4.391   8.862  0.3234  0.9186 -0.4261
  168SOPE   C3318968   7.484   4.866   6.985 -0.1813 -0.0446 -0.1878
  168SOPE   H3X18969   7.383   4.875   7.030  0.3147  1.8444  0.6433
  168SOPE   H3Y18970   7.529   4.966   6.970 -3.5744  1.8623  1.2104
  168SOPE   C3418971   7.571   4.791   7.086 -0.2360 -0.2487 -0.6730
  168SOPE   H4X18972   7.675   4.784   7.049 -0.3233 -0.7840 -0.8228
  168SOPE   H4Y18973   7.520   4.692   7.088 -0.1925 -0.2781  2.2397
  168SOPE   C3518974   7.559   4.849   7.226 -0.7546  0.7988 -0.2751
  168SOPE   H5X18975   7.455   4.838   7.261 -1.3714 -0.8123 -2.3881
  168SOPE   H5Y18976   7.586   4.956   7.220  1.0674  0.6444  3.0087
  168SOPE   C3618977   7.653   4.771   7.332 -0.1770 -0.7290  0.3619
  168SOPE   H6X18978   7.758   4.762   7.299 -0.5809  0.6718 -1.4533
  168SOPE   H6Y18979   7.628   4.664   7.348  0.8623 -1.2282 -1.1660
  168SOPE   C3718980   7.640   4.837   7.469  0.4036  0.3203  0.2353
  168SOPE   H7X18981   7.544   4.815   7.519 -0.1991  1.9822 -0.1403
  168SOPE   H7Y18982   7.644   4.947   7.450  0.7045  0.5280  1.3969
  168SOPE   C3818983   7.763   4.812   7.564  0.9457  0.0958 -0.0164
  168SOPE   H8X18984   7.766   4.898   7.634 -0.4464  0.8851 -0.8803
  168SOPE   H8Y18985   7.856   4.799   7.505 -0.1017 -1.7186 -1.4180
  168SOPE   C3918986   7.754   4.686   7.658  0.0583 -0.3829  0.6648
  168SOPE   H9X18987   7.740   4.594   7.598 -1.2619  2.3098 -3.6058
  168SOPE   H9Y18988   7.658   4.698   7.712 -0.5699 -3.8997  0.5400
  168SOPE  C31018989   7.867   4.682   7.766  0.2293 -0.1081 -0.1314
  168SOPE  H10X18990   7.855   4.594   7.832 -1.9973 -0.7488 -1.3144
  168SOPE  H10Y18991   7.882   4.778   7.821  2.4055 -1.0441  1.0484
  168SOPE  C31118992   8.012   4.655   7.707  0.7574 -0.4757  0.8531
  168SOPE  H11X18993   8.037   4.743   7.644  1.2814 -0.4410  1.1057
  168SOPE  H11Y18994   8.004   4.562   7.647 -1.7275 -0.0269  0.4008
  168SOPE  C31218995   8.123   4.650   7.811  0.1056  0.3786 -0.2336
  168SOPE  H12X18996   8.081   4.667   7.912  1.7720 -0.4376  0.6253
  168SOPE  H12Y18997   8.212   4.714   7.792  0.7158 -0.6390 -0.9576
  168SOPE  C31318998   8.185   4.507   7.811 -0.1303 -0.3283  0.6228
  168SOPE  H13X18999   8.223   4.493   7.707 -2.2855  2.3774 -0.6933
  168SOPE  H13Y19000   8.104   4.433   7.827 -0.2102 -0.9450 -2.0978
  168SOPE  C31419001   8.285   4.477   7.925  0.4565 -0.1598 -0.3334
  168SOPE  H14X19002   8.286   4.366   7.936  3.7871 -0.3748 -1.6184
  168SOPE  H14Y19003   8.230   4.516   8.013  1.1473  0.5547 -0.2032
  168SOPE  C31519004   8.426   4.535   7.907 -0.0339  0.3155  0.2193
  168SOPE  H15X19005   8.422   4.632   7.853 -1.2347  0.3360  0.3127
  168SOPE  H15Y19006   8.479   4.464   7.841  0.5544  2.4496 -1.7155
  168SOPE  C31619007   8.505   4.564   8.028 -0.2828  0.5323 -0.1385
  168SOPE  H16X19008   8.512   4.471   8.089 -0.4308  1.1048  0.7603
  168SOPE  H16Y19009   8.455   4.639   8.093 -0.2994  0.3176  0.0988
  168SOPE  C31719010   8.648   4.614   8.003  0.3149  0.2310  0.5902
  168SOPE  H17X19011   8.678   4.660   8.100 -1.7222  0.8227  0.9826
  168SOPE  H17Y19012   8.640   4.685   7.917  0.7135 -2.2052 -1.5833
  168SOPE  C31819013   8.759   4.513   7.980 -0.0867 -0.4821  0.4482
  168SOPE  H18X19014   8.768   4.453   8.073  0.2688  1.6108  1.8215
  168SOPE  H18Y19015   8.860   4.549   7.952 -0.1813 -1.9794 -2.1290
  168SOPE  H18Z19016   8.744   4.440   7.897  1.4007  0.7159 -0.9401
  169SOPE     N19017   3.913   4.530   6.365  0.4083  0.0411 -0.4462
  169SOPE   HN119018   3.973   4.445   6.366  0.3512 -0.0033  0.4142
  169SOPE   HN219019   3.817   4.492   6.353  1.0047 -1.2041 -1.5705
  169SOPE   HN319020   3.936   4.575   6.274 -0.7429 -0.0237 -0.7867
  169SOPE   C1219021   3.935   4.619   6.484 -0.3159 -0.1735 -0.3851
  169SOPE  H12A19022   4.043   4.612   6.506 -0.3883  1.5666  0.6850
  169SOPE  H12B19023   3.878   4.576   6.569  0.0357 -1.6513 -0.8541
  169SOPE   C1119024   3.884   4.759   6.471  0.1640  0.2386  0.2690
  169SOPE  H11A19025   3.936   4.807   6.385 -0.7647  0.8274  0.0175
  169SOPE  H11B19026   3.923   4.817   6.557  1.6646 -1.0786  0.5206
  169SOPE     P19027   3.682   4.885   6.366 -0.2329 -0.1722  0.4368
  169SOPE   O1319028   3.535   4.901   6.381  0.7481 -0.5181 -0.4713
  169SOPE   O1419029   3.729   4.843   6.236 -0.1321 -0.6742  0.3905
  169SOPE   O1219030   3.739   4.774   6.462  0.2238 -0.4872 -0.8511
  169SOPE   O1119031   3.756   5.024   6.405 -0.2804 -0.8758  0.1264
  169SOPE    C119032   3.694   5.120   6.494 -0.1791  0.3298 -0.0740
  169SOPE    HA19033   3.586   5.133   6.471  0.1542  2.5843 -0.6368
  169SOPE    HB19034   3.740   5.219   6.473  0.2426  0.2398  0.4279
  169SOPE    C219035   3.723   5.094   6.647  0.5030 -0.0426  0.9991
  169SOPE    HS19036   3.701   5.187   6.703 -2.1197 -0.3844  0.6492
  169SOPE   O2119037   3.858   5.047   6.665  0.1679  0.6994 -0.3611
  169SOPE   C2119038   3.943   5.153   6.667 -0.0220 -0.6798  0.1449
  169SOPE   O2219039   3.907   5.271   6.659  0.3988  0.1488 -0.3206
  169SOPE   C2219040   4.088   5.108   6.681  0.3782 -0.4137  0.2378
  169SOPE   H2R19041   4.139   5.205   6.702 -1.4194  0.4473  0.8772
  169SOPE   H2S19042   4.124   5.059   6.588  2.6199  0.7623  0.3949
  169SOPE    C319043   3.627   4.986   6.714 -0.1028  0.2374  0.3986
  169SOPE    HX19044   3.635   4.891   6.658  0.9006  1.7846 -2.2825
  169SOPE    HY19045   3.525   5.026   6.697 -0.4681 -0.4409  0.9354
  169SOPE   O3119046   3.654   4.958   6.855  0.4415  0.5612  0.5746
  169SOPE   C3119047   3.632   5.066   6.931 -0.3623  0.2448 -0.2417
  169SOPE   O3219048   3.588   5.174   6.901 -0.1321  0.4751 -0.3063
  169SOPE   C3219049   3.680   5.031   7.069  0.5877  0.2441 -0.4145
  169SOPE   H2X19050   3.694   5.129   7.120 -1.2385  0.5371 -0.3770
  169SOPE   H2Y19051   3.783   4.990   7.071 -0.2672 -2.0181  1.3072
  169SOPE   C2319052   4.096   5.016   6.806  0.3838  0.6196 -0.6341
  169SOPE   H3R19053   4.191   4.961   6.792 -0.7432 -1.7037  0.2975
  169SOPE   H3S19054   4.017   4.937   6.806  0.0805  0.9236 -0.0226
  169SOPE   C2419055   4.092   5.095   6.933 -0.2170  0.0124 -0.7542
  169SOPE   H4R19056   4.173   5.171   6.923 -0.7401  0.6115 -0.5204
  169SOPE   H4S19057   3.997   5.153   6.934 -0.8567 -1.0335 -0.2558
  169SOPE   C2519058   4.099   5.017   7.064 -0.0380 -0.1605 -0.1741
  169SOPE   H5R19059   4.024   4.935   7.064  0.6551 -0.7984 -0.6405
  169SOPE   H5S19060   4.197   4.967   7.076  1.2297  2.0018 -1.0011
  169SOPE   C2619061   4.093   5.114   7.187  0.8940  0.1300 -0.9085
  169SOPE   H6R19062   4.158   5.201   7.166  0.5333  0.3353 -1.1981
  169SOPE   H6S19063   3.987   5.144   7.204 -0.0989 -2.6629 -1.6384
  169SOPE   C2719064   4.145   5.038   7.306  0.0500  0.3638 -0.6962
  169SOPE   H7R19065   4.092   4.944   7.331 -0.6579  1.0522  0.4710
  169SOPE   H7S19066   4.243   4.994   7.278  1.1737  1.5390  1.1354
  169SOPE   C2819067   4.151   5.122   7.426 -0.5645 -1.0285 -0.0663
  169SOPE   H8R19068   4.225   5.201   7.400 -0.9698 -0.1940  1.2547
  169SOPE   H8S19069   4.052   5.172   7.436 -0.3752 -0.7925  0.7177
  169SOPE   C2919070   4.189   5.045   7.548 -0.4406 -0.4333 -0.1499
  169SOPE   H9119071   4.269   4.971   7.538 -0.3920 -0.3422 -0.4556
  169SOPE  C21019072   4.128   5.059   7.664  0.3280  0.7346 -0.4765
  169SOPE  H10119073   4.160   4.986   7.741  2.2888  0.8224 -1.1424
  169SOPE  C21119074   4.019   5.157   7.705  0.4383  0.6972 -0.8850
  169SOPE  H11R19075   3.950   5.194   7.626 -1.0986 -0.6806 -0.2263
  169SOPE  H11S19076   4.063   5.241   7.763  1.1308 -1.4238  1.8716
  169SOPE  C21219077   3.910   5.095   7.790 -0.1912 -0.4882 -0.2182
  169SOPE  H12R19078   3.881   5.006   7.730  2.0666 -0.6472 -1.1886
  169SOPE  H12S19079   3.825   5.167   7.793 -0.4237 -0.7684 -0.0555
  169SOPE  C21319080   3.954   5.054   7.927  0.3319  0.3278  0.7621
  169SOPE  H13R19081   3.987   5.149   7.974 -0.8476  1.6029 -0.8515
  169SOPE  H13S19082   4.043   4.987   7.930 -1.1081 -1.8056 -0.7877
  169SOPE  C21419083   3.846   4.992   8.000 -0.0405  0.1439 -0.5010
  169SOPE  H14R19084   3.800   4.904   7.950 -0.3330 -1.0792  1.7940
  169SOPE  H14S19085   3.761   5.061   8.018  0.8139  0.4416  3.1789
  169SOPE  C21519086   3.892   4.938   8.143  0.1505  0.4728 -0.7867
  169SOPE  H15R19087   3.967   4.857   8.130 -1.6544 -1.1176 -1.8394
  169SOPE  H15S19088   3.802   4.892   8.190 -0.9365  1.4778 -1.8199
  169SOPE  C21619089   3.943   5.053   8.241  0.1654  0.1152 -0.7355
  169SOPE  H16R19090   3.866   5.133   8.253 -0.1376 -0.4041  1.0869
  169SOPE  H16S19091   4.041   5.093   8.207 -1.0183  0.7292 -3.7531
  169SOPE  C21719092   3.968   4.982   8.375  0.0890 -0.2913  0.4161
  169SOPE  H17R19093   4.058   4.920   8.357 -0.6066 -1.6003  1.2807
  169SOPE  H17S19094   3.873   4.934   8.409  1.3540 -0.1721  4.7398
  169SOPE  C21819095   4.008   5.090   8.473  0.1234  0.2993  0.7551
  169SOPE  H18R19096   4.089   5.034   8.525  0.4671 -0.3479 -0.4358
  169SOPE  H18S19097   3.925   5.119   8.541 -1.2464 -0.9967 -0.2866
  169SOPE  H18T19098   4.054   5.178   8.422  1.0936 -2.3269 -3.3762
  169SOPE   C3319099   3.581   4.936   7.148  0.3697 -0.5151 -0.1933
  169SOPE   H3X19100   3.592   4.840   7.094  1.2469  1.1445 -3.2136
  169SOPE   H3Y19101   3.473   4.962   7.145  0.2648 -0.9822 -1.9117
  169SOPE   C3419102   3.627   4.920   7.290  0.1601 -0.8555  0.6422
  169SOPE   H4X19103   3.730   4.878   7.284 -0.1768 -1.4544 -3.5150
  169SOPE   H4Y19104   3.563   4.853   7.351 -1.6594 -0.2640 -0.5641
  169SOPE   C3519105   3.643   5.052   7.373  0.1965 -0.4393 -0.2080
  169SOPE   H5X19106   3.560   5.123   7.350  0.7255  0.5441  0.7760
  169SOPE   H5Y19107   3.736   5.104   7.342  0.5842  0.2261  1.8890
  169SOPE   C3619108   3.657   5.033   7.524 -0.0762  0.5934  0.1118
  169SOPE   H6X19109   3.730   5.106   7.565  0.2997  0.7164 -0.7436
  169SOPE   H6Y19110   3.687   4.926   7.533 -0.1316  0.2876 -2.4692
  169SOPE   C3719111   3.525   5.036   7.603 -0.3639  0.1345  0.3090
  169SOPE   H7X19112   3.476   4.942   7.568 -0.3746  0.0139  0.6443
  169SOPE   H7Y19113   3.466   5.127   7.579  0.4050  0.1707 -1.7147
  169SOPE   C3819114   3.556   5.008   7.753 -0.2009 -0.5239 -0.4123
  169SOPE   H8X19115   3.602   4.908   7.763  2.2574  0.5984  0.2328
  169SOPE   H8Y19116   3.626   5.085   7.792 -0.6367 -0.5675  0.4816
  169SOPE   C3919117   3.427   5.027   7.827  0.6955  0.7800  0.6876
  169SOPE   H9X19118   3.360   4.938   7.817  0.7287  0.7966  0.2803
  169SOPE   H9Y19119   3.368   5.109   7.782 -0.2609 -0.9627 -1.4449
  169SOPE  C31019120   3.445   5.050   7.978  0.2372  0.2473 -0.2375
  169SOPE  H10X19121   3.534   4.997   8.019 -0.1901 -0.0692  0.2892
  169SOPE  H10Y19122   3.359   5.016   8.039 -1.1530  3.9821  0.1179
  169SOPE  C31119123   3.472   5.195   8.011 -0.8519  0.2195  0.3366
  169SOPE  H11X19124   3.373   5.246   8.014 -0.5033  0.8549  2.8396
  169SOPE  H11Y19125   3.535   5.242   7.933 -2.7780  1.2066 -0.7197
  169SOPE  C31219126   3.543   5.235   8.139 -1.0667  0.3159 -0.4467
  169SOPE  H12X19127   3.539   5.346   8.140  0.4345  0.3771  0.3908
  169SOPE  H12Y19128   3.647   5.204   8.115 -1.0984  1.9412 -3.1099
  169SOPE  C31319129   3.481   5.190   8.268  0.6288 -0.7538 -0.2964
  169SOPE  H13X19130   3.497   5.081   8.280  1.5063 -0.5486  0.5224
  169SOPE  H13Y19131   3.372   5.210   8.260  0.6812  0.2205  1.0082
  169SOPE  C31419132   3.543   5.259   8.393  0.3825  0.4833 -0.2164
  169SOPE  H14X19133   3.545   5.369   8.379  0.5017  0.4465 -0.5104
  169SOPE  H14Y19134   3.648   5.226   8.409 -0.0834 -0.7381  0.4311
  169SOPE  C31519135   3.463   5.227   8.517 -0.3295 -0.4899  0.3258
  169SOPE  H15X19136   3.488   5.120   8.532  1.0915  0.0029  1.7728
  169SOPE  H15Y19137   3.354   5.237   8.499 -0.1468 -1.6595 -1.6697
  169SOPE  C31619138   3.506   5.299   8.644  1.0240  0.0963 -0.3463
  169SOPE  H16X19139   3.491   5.408   8.628 -1.2241  0.0988  1.3633
  169SOPE  H16Y19140   3.614   5.273   8.650  0.7892 -1.2478 -1.5508
  169SOPE  C31719141   3.423   5.269   8.770  0.9694 -0.4615  0.5525
  169SOPE  H17X19142   3.441   5.160   8.786  1.1126 -0.5417 -0.1399
  169SOPE  H17Y19143   3.313   5.271   8.754  1.1687 -1.3454 -1.2818
  169SOPE  C31819144   3.458   5.339   8.900 -0.3706  0.6104 -0.3396
  169SOPE  H18X19145   3.392   5.302   8.981  1.8750 -0.8381  0.9369
  169SOPE  H18Y19146   3.442   5.448   8.888 -3.2793  0.3173  0.2613
  169SOPE  H18Z19147   3.564   5.317   8.928 -0.7303  0.6601  1.1385
  170SOPE     N19148   4.038   3.871   6.573 -0.3199 -0.3427  0.2937
  170SOPE   HN119149   4.137   3.882   6.602  0.1809 -2.3186 -0.4913
  170SOPE   HN219150   4.027   3.941   6.497  1.4540  1.2911  1.4384
  170SOPE   HN319151   3.980   3.896   6.655 -1.3343 -1.3497 -0.0897
  170SOPE   C1219152   4.012   3.737   6.529  0.3870  0.0206  0.8325
  170SOPE  H12A19153   4.049   3.660   6.601  1.7849 -0.5804 -0.4708
  170SOPE  H12B19154   4.081   3.719   6.444  0.7472  0.4183  1.0337
  170SOPE   C1119155   3.867   3.719   6.487  0.6185 -0.5604 -0.1336
  170SOPE  H11A19156   3.803   3.746   6.574 -0.3349 -0.5823 -0.8124
  170SOPE  H11B19157   3.844   3.614   6.459  2.1628 -1.3799  1.4119
  170SOPE     P19158   3.740   3.926   6.390  0.4862 -0.0757 -0.3418
  170SOPE   O1319159   3.603   3.869   6.397 -0.1696  0.5298  0.4910
  170SOPE   O1419160   3.761   4.024   6.286 -0.0213 -0.3595  0.1174
  170SOPE   O1219161   3.844   3.806   6.374  0.2500  0.0595  0.4686
  170SOPE   O1119162   3.778   3.985   6.532  0.4001  0.0089 -0.4054
  170SOPE    C119163   3.763   4.121   6.550 -0.2412 -0.9215  0.5568
  170SOPE    HA19164   3.658   4.147   6.523  0.3316  1.9657  0.8093
  170SOPE    HB19165   3.834   4.181   6.489 -0.2141 -0.7559  0.7506
  170SOPE    C219166   3.795   4.151   6.695 -0.2062 -0.1480  0.2497
  170SOPE    HS19167   3.777   4.260   6.709  0.8929  0.2598 -1.2525
  170SOPE   O2119168   3.936   4.118   6.716  0.5838  0.2831 -0.1565
  170SOPE   C2119169   4.024   4.211   6.708 -0.2218  0.0360 -0.5584
  170SOPE   O2219170   4.002   4.327   6.680  0.0278 -0.1577  1.0428
  170SOPE   C2219171   4.153   4.144   6.762  0.0820 -0.0962 -0.4276
  170SOPE   H2R19172   4.214   4.133   6.670  0.5546  0.0412 -0.1336
  170SOPE   H2S19173   4.123   4.046   6.807 -0.2550 -0.0230 -0.4909
  170SOPE    C319174   3.697   4.077   6.793  0.3642 -0.3885  0.2226
  170SOPE    HX19175   3.725   3.969   6.799  0.5007 -0.3847 -0.3157
  170SOPE    HY19176   3.599   4.085   6.742  0.7616 -0.2281 -0.5322
  170SOPE   O3119177   3.696   4.144   6.926  0.0300 -0.3069  0.5451
  170SOPE   C3119178   3.728   4.062   7.032  0.1924  0.3678  0.1023
  170SOPE   O3219179   3.764   3.947   7.018  0.0900 -0.1851  0.7179
  170SOPE   C3219180   3.722   4.143   7.162 -0.1435  0.0344  0.1019
  170SOPE   H2X19181   3.666   4.239   7.152 -0.3242 -0.2216 -1.8097
  170SOPE   H2Y19182   3.824   4.175   7.192  0.3375 -1.0828 -0.3111
  170SOPE   C2319183   4.231   4.232   6.858 -0.1090  0.3846  0.0257
  170SOPE   H3R19184   4.245   4.336   6.823  0.7329 -0.0202 -0.9026
  170SOPE   H3S19185   4.336   4.194   6.864  0.5685  1.3333 -3.5312
  170SOPE   C2419186   4.165   4.228   6.998 -0.5173 -0.6527 -0.7419
  170SOPE   H4R19187   4.230   4.280   7.072  1.8098 -1.0288 -2.4081
  170SOPE   H4S19188   4.074   4.292   7.003  0.8987  1.4168  2.0451
  170SOPE   C2519189   4.135   4.092   7.054  0.1472  0.7409  0.9697
  170SOPE   H5R19190   4.036   4.065   7.012  0.9318 -2.5204  0.9258
  170SOPE   H5S19191   4.200   4.016   7.005 -0.2430  1.2741 -0.4236
  170SOPE   C2619192   4.153   4.083   7.199 -0.3528  0.2607 -0.4270
  170SOPE   H6R19193   4.262   4.084   7.219 -0.7164 -0.6473  1.8911
  170SOPE   H6S19194   4.113   4.178   7.241 -0.8888 -0.5804  1.0288
  170SOPE   C2719195   4.078   3.973   7.280  0.1814  0.0722  0.0992
  170SOPE   H7R19196   3.971   3.982   7.253 -0.1350 -0.0122  1.2734
  170SOPE   H7S19197   4.127   3.883   7.236  2.0878  1.7726 -1.4877
  170SOPE   C2819198   4.097   3.984   7.434  0.2268  0.6315  0.5408
  170SOPE   H8R19199   4.035   3.903   7.480 -1.8364  1.3272 -0.8721
  170SOPE   H8S19200   4.200   3.966   7.470  0.3163  0.4471  0.1952
  170SOPE   C2919201   4.054   4.114   7.496  0.6579  0.0601  0.0363
  170SOPE   H9119202   4.016   4.186   7.422  1.8341 -1.5816 -2.3095
  170SOPE  C21019203   4.046   4.145   7.629 -0.2437 -0.1787  0.1958
  170SOPE  H10119204   4.003   4.244   7.647  0.5001 -0.0582  1.4979
  170SOPE  C21119205   4.080   4.057   7.747  0.1490  0.3524 -0.1954
  170SOPE  H11R19206   4.185   4.084   7.768 -0.1352  0.2400  1.5373
  170SOPE  H11S19207   4.087   3.950   7.720 -1.4538 -0.0329  0.7994
  170SOPE  C21219208   3.983   4.083   7.868  0.5132  0.3375 -0.9958
  170SOPE  H12R19209   3.889   4.031   7.839 -0.2239  0.4368  1.0492
  170SOPE  H12S19210   3.982   4.193   7.881 -1.6520  0.2627  0.0153
  170SOPE  C21319211   4.012   4.017   8.002  0.2944 -0.4513  0.2106
  170SOPE  H13R19212   4.117   4.047   8.024  0.3609 -1.4127  1.3074
  170SOPE  H13S19213   4.001   3.907   7.988  1.3083 -0.4018 -1.2115
  170SOPE  C21419214   3.922   4.078   8.111 -0.2025 -0.0368  0.5182
  170SOPE  H14R19215   3.816   4.075   8.077  0.1774 -1.6561 -0.6395
  170SOPE  H14S19216   3.942   4.186   8.130  0.7932  0.0932 -1.0823
  170SOPE  C21519217   3.938   4.000   8.237 -0.0951  0.0192 -0.4934
  170SOPE  H15R19218   4.044   3.992   8.267 -0.6055 -1.2893  1.1120
  170SOPE  H15S19219   3.912   3.892   8.225  0.0444  0.1814 -2.5549
  170SOPE  C21619220   3.845   4.061   8.345  0.0639 -0.2096 -0.1673
  170SOPE  H16R19221   3.751   4.059   8.286 -0.1473  1.9480  0.0133
  170SOPE  H16S19222   3.856   4.170   8.367 -2.8061 -0.1394  1.3511
  170SOPE  C21719223   3.832   3.992   8.479 -0.7812 -0.4507 -0.4809
  170SOPE  H17R19224   3.781   3.897   8.455 -0.8471 -0.8916  1.2949
  170SOPE  H17S19225   3.765   4.044   8.551 -0.4458  0.2118 -0.6411
  170SOPE  C21819226   3.963   3.972   8.547 -0.7092 -0.5524  0.2358
  170SOPE  H18R19227   4.019   4.065   8.571  0.0049 -0.5551 -1.2590
  170SOPE  H18S19228   4.038   3.922   8.482 -1.9529 -1.7229 -0.3429
  170SOPE  H18T19229   3.947   3.911   8.638 -0.4115  0.1492  0.7748
  170SOPE   C3319230   3.653   4.060   7.276  0.2464  0.0523  0.1005
  170SOPE   H3X19231   3.703   3.961   7.284 -2.9550 -1.7278 -0.5990
  170SOPE   H3Y19232   3.544   4.045   7.263  0.0595  0.2870  1.2557
  170SOPE   C3419233   3.666   4.121   7.417 -0.4108 -0.0453 -1.1999
  170SOPE   H4X19234   3.628   4.225   7.429  1.0979  0.3637  0.5829
  170SOPE   H4Y19235   3.773   4.120   7.449 -0.5342  1.3474 -0.6783
  170SOPE   C3519236   3.590   4.022   7.506 -0.3860 -0.4277 -0.0708
  170SOPE   H5X19237   3.613   3.919   7.475  1.7565 -0.0764  0.2498
  170SOPE   H5Y19238   3.482   4.038   7.484 -0.1640  0.2056 -0.7675
  170SOPE   C3619239   3.627   4.040   7.648 -0.2157  0.3044 -0.4840
  170SOPE   H6X19240   3.618   4.148   7.672  0.5975  0.7569 -2.0807
  170SOPE   H6Y19241   3.732   4.010   7.668 -0.4582 -1.2195 -1.2855
  170SOPE   C3719242   3.535   3.958   7.742 -0.1854  0.2454 -0.1784
  170SOPE   H7X19243   3.522   3.854   7.706 -0.2314  0.1567  0.0908
  170SOPE   H7Y19244   3.433   4.003   7.750  0.0109  0.7643 -0.4995
  170SOPE   C3819245   3.595   3.944   7.881 -0.2977 -0.1433  0.0072
  170SOPE   H8X19246   3.610   4.048   7.917  0.5206  0.0104 -0.7517
  170SOPE   H8Y19247   3.700   3.909   7.880 -0.3840 -0.7836  2.8730
  170SOPE   C3919248   3.508   3.853   7.973  0.6142  0.3604  0.0479
  170SOPE   H9X19249   3.414   3.908   7.993  0.8499  0.0162  2.3218
  170SOPE   H9Y19250   3.565   3.836   8.067  0.1160  0.9056  0.4502
  170SOPE  C31019251   3.459   3.721   7.905  0.2156  0.0918  0.5539
  170SOPE  H10X19252   3.545   3.681   7.846 -0.4834  0.2451 -0.6048
  170SOPE  H10Y19253   3.374   3.745   7.838 -0.2522  0.3224  1.2296
  170SOPE  C31119254   3.403   3.608   7.996  0.3895 -0.1095 -0.7706
  170SOPE  H11X19255   3.470   3.564   8.073 -1.2339 -0.7549  0.3179
  170SOPE  H11Y19256   3.371   3.523   7.931 -2.5753  0.0391  0.3592
  170SOPE  C31219257   3.282   3.645   8.087  0.4448 -0.1834  0.1880
  170SOPE  H12X19258   3.234   3.547   8.108  1.4009 -1.2852 -2.4381
  170SOPE  H12Y19259   3.219   3.721   8.036  2.0014  2.4444  1.9186
  170SOPE  C31319260   3.315   3.720   8.222  0.2685  0.5332 -0.6068
  170SOPE  H13X19261   3.361   3.819   8.201  0.2429  0.6816  0.0090
  170SOPE  H13Y19262   3.386   3.656   8.280 -0.5309  0.6492  0.5431
  170SOPE  C31419263   3.188   3.758   8.301 -0.4044 -0.6096  0.2189
  170SOPE  H14X19264   3.124   3.670   8.322 -0.9193 -0.4417 -0.5868
  170SOPE  H14Y19265   3.125   3.824   8.237  0.4643  0.1820  0.1513
  170SOPE  C31519266   3.228   3.817   8.438 -0.0390  0.0479 -0.5578
  170SOPE  H15X19267   3.317   3.763   8.478 -0.8357 -1.7887 -1.1632
  170SOPE  H15Y19268   3.144   3.807   8.510 -0.9728  1.6598 -1.3850
  170SOPE  C31619269   3.246   3.967   8.424  0.5949 -0.7829 -0.1348
  170SOPE  H16X19270   3.155   4.011   8.379  0.2881  0.5940  1.7321
  170SOPE  H16Y19271   3.321   4.008   8.352 -0.8790 -0.6634 -1.6610
  170SOPE  C31719272   3.282   4.041   8.554 -0.4929 -0.0723  0.1016
  170SOPE  H17X19273   3.227   4.002   8.643 -0.0048 -4.2084 -1.2294
  170SOPE  H17Y19274   3.235   4.142   8.550 -2.5199 -0.8980  1.4550
  170SOPE  C31819275   3.424   4.052   8.588 -0.7923 -0.0597  0.1923
  170SOPE  H18X19276   3.488   4.047   8.497 -0.4676  1.0476  0.3400
  170SOPE  H18Y19277   3.458   3.985   8.669 -3.1315  0.1128  1.4229
  170SOPE  H18Z19278   3.445   4.153   8.630 -1.9514 -0.0832  0.8848
  171SOPE     N19279   4.241   0.367   6.081  0.1132 -0.5363  0.1829
  171SOPE   HN119280   4.169   0.442   6.069  1.0534  0.4591  0.5851
  171SOPE   HN219281   4.267   0.329   5.987 -0.1130 -0.3015  0.0246
  171SOPE   HN319282   4.196   0.290   6.133  0.2255 -0.3239  0.6003
  171SOPE   C1219283   4.362   0.418   6.161 -0.0063 -0.1708  0.0345
  171SOPE  H12A19284   4.418   0.494   6.102  0.6705 -0.5795  0.1322
  171SOPE  H12B19285   4.432   0.332   6.169  0.4851  0.2701  0.5578
  171SOPE   C1119286   4.315   0.471   6.300 -0.3178  0.3676  0.4898
  171SOPE  H11A19287   4.396   0.519   6.359 -0.7656  1.0453  0.5682
  171SOPE  H11B19288   4.269   0.381   6.348  0.0904  0.3118  0.7807
  171SOPE     P19289   4.158   0.675   6.383  0.4328  0.0735 -0.0440
  171SOPE   O1319290   4.008   0.664   6.385 -0.4200  0.0470 -0.2695
  171SOPE   O1419291   4.221   0.801   6.356 -0.1772 -0.3481 -0.7776
  171SOPE   O1219292   4.213   0.570   6.279 -0.1572 -0.5208 -0.2878
  171SOPE   O1119293   4.219   0.617   6.517 -0.1316  0.8160 -0.1936
  171SOPE    C119294   4.161   0.509   6.600 -0.4642  0.4151 -0.3042
  171SOPE    HA19295   4.232   0.433   6.641  1.0232  1.7380 -0.3074
  171SOPE    HB19296   4.085   0.453   6.542  0.3326 -0.7431 -0.2765
  171SOPE    C219297   4.091   0.579   6.724  0.8035 -0.0796  0.1330
  171SOPE    HS19298   4.029   0.662   6.683 -1.3684 -3.5047 -4.4541
  171SOPE   O2119299   4.198   0.624   6.811  0.4933 -0.8618 -0.0781
  171SOPE   C2119300   4.179   0.730   6.890  0.3382  0.1844 -0.9614
  171SOPE   O2219301   4.090   0.813   6.877 -0.2290 -0.4084  0.3450
  171SOPE   C2219302   4.300   0.741   6.980  0.2263 -0.2859 -0.4332
  171SOPE   H2R19303   4.378   0.797   6.925  1.0240  0.5883  1.4850
  171SOPE   H2S19304   4.333   0.639   7.009 -0.4423 -0.5039 -0.4114
  171SOPE    C319305   3.990   0.474   6.794  0.0228 -0.6187  0.0998
  171SOPE    HX19306   4.046   0.379   6.807 -1.6069 -1.5919  0.2094
  171SOPE    HY19307   3.917   0.446   6.716 -0.1330  1.3815 -0.5284
  171SOPE   O3119308   3.924   0.525   6.914  0.7375 -0.4639 -0.3917
  171SOPE   C3119309   3.800   0.564   6.909 -0.3602 -0.8043 -0.3721
  171SOPE   O3219310   3.745   0.591   6.805 -0.1864  0.2313  0.1068
  171SOPE   C3219311   3.754   0.592   7.049 -0.2314 -0.1965  0.2850
  171SOPE   H2X19312   3.648   0.624   7.045 -0.0941  0.1399 -1.4267
  171SOPE   H2Y19313   3.822   0.674   7.079  0.8957 -1.3207  0.9452
  171SOPE   C2319314   4.273   0.823   7.109  0.3002 -0.1851 -0.6670
  171SOPE   H3R19315   4.255   0.928   7.076 -0.5603 -0.1429 -0.1106
  171SOPE   H3S19316   4.374   0.828   7.154 -0.2180  0.0873  0.5083
  171SOPE   C2419317   4.168   0.758   7.199 -0.2330 -0.6289  0.4867
  171SOPE   H4R19318   4.084   0.723   7.134  1.2347  2.4880 -3.5071
  171SOPE   H4S19319   4.214   0.666   7.240 -1.0633 -0.6776  1.3469
  171SOPE   C2519320   4.122   0.841   7.319  0.2213  0.0018 -0.2072
  171SOPE   H5R19321   4.204   0.883   7.382 -1.4107  1.2665  1.1486
  171SOPE   H5S19322   4.067   0.932   7.289  0.1602  0.0017 -0.0942
  171SOPE   C2619323   4.010   0.776   7.405  0.0518  1.5834 -0.0631
  171SOPE   H6R19324   3.968   0.839   7.487 -1.3714  0.5636  0.0282
  171SOPE   H6S19325   3.923   0.743   7.346  1.1607  0.5951 -1.2057
  171SOPE   C2719326   4.058   0.641   7.463 -0.5447  0.0218  1.7399
  171SOPE   H7R19327   3.968   0.597   7.513 -0.2194 -0.7137  1.7013
  171SOPE   H7S19328   4.085   0.568   7.383 -0.7873  0.9192  0.8300
  171SOPE   C2819329   4.174   0.655   7.570 -0.0238  0.1068  0.4286
  171SOPE   H8R19330   4.183   0.559   7.625  2.4686  0.9778  1.6999
  171SOPE   H8S19331   4.272   0.672   7.520 -0.8843  1.4413 -0.8962
  171SOPE   C2919332   4.150   0.773   7.661 -0.6147 -0.1274  0.6155
  171SOPE   H9119333   4.156   0.871   7.612  0.7410 -1.6004 -2.4964
  171SOPE  C21019334   4.125   0.758   7.793  0.6546  0.2928 -0.5185
  171SOPE  H10119335   4.098   0.843   7.856 -1.6555  0.4191 -1.5684
  171SOPE  C21119336   4.113   0.631   7.872  0.1239  0.6439 -0.1912
  171SOPE  H11R19337   4.093   0.664   7.976  0.7861 -0.0752  0.1794
  171SOPE  H11S19338   4.202   0.565   7.858 -0.1042  0.1368  0.6894
  171SOPE  C21219339   3.978   0.576   7.824  0.0820  0.5525 -0.1086
  171SOPE  H12R19340   3.982   0.528   7.724 -0.2715  0.9540 -0.3176
  171SOPE  H12S19341   3.894   0.648   7.824 -1.6616 -1.4119  0.1172
  171SOPE  C21319342   3.917   0.457   7.905 -0.1251 -0.2151  0.0332
  171SOPE  H13R19343   3.989   0.373   7.897  1.2816  0.8710  0.9135
  171SOPE  H13S19344   3.818   0.435   7.859 -1.3241 -0.8830  2.7532
  171SOPE  C21419345   3.908   0.486   8.061  0.2526 -0.5402 -0.3298
  171SOPE  H14R19346   4.007   0.527   8.089 -0.1886  2.0225 -2.1112
  171SOPE  H14S19347   3.872   0.400   8.121  0.4765 -0.4659 -0.0882
  171SOPE  C21519348   3.799   0.593   8.088  1.1693  0.2979  0.6412
  171SOPE  H15R19349   3.695   0.565   8.060  0.8165  1.6899  0.4665
  171SOPE  H15S19350   3.824   0.682   8.026 -0.3355  1.0888  1.1067
  171SOPE  C21619351   3.791   0.648   8.231 -0.6742  0.2323 -0.2428
  171SOPE  H16R19352   3.715   0.726   8.253 -0.6941  0.2022 -0.2041
  171SOPE  H16S19353   3.879   0.707   8.266 -1.5336  0.8859  0.8700
  171SOPE  C21719354   3.773   0.537   8.340  0.0123 -0.0614 -0.2793
  171SOPE  H17R19355   3.742   0.584   8.436 -1.1735  2.2504 -1.6956
  171SOPE  H17S19356   3.869   0.483   8.355  1.8811  2.5808 -2.0288
  171SOPE  C21819357   3.663   0.429   8.309  0.5755  0.6412 -0.0984
  171SOPE  H18R19358   3.569   0.487   8.294  0.2676 -0.5208 -3.7784
  171SOPE  H18S19359   3.650   0.352   8.387 -0.7333 -0.2624 -1.1641
  171SOPE  H18T19360   3.676   0.373   8.214 -2.1343 -1.1824  0.4906
  171SOPE   C3319361   3.766   0.480   7.159 -0.0626  0.0153 -0.1170
  171SOPE   H3X19362   3.871   0.446   7.174  0.7409  1.3810 -2.1437
  171SOPE   H3Y19363   3.712   0.394   7.115 -0.8191  1.2038 -1.6035
  171SOPE   C3419364   3.699   0.522   7.292  0.4623 -0.6564 -0.0837
  171SOPE   H4X19365   3.595   0.554   7.269  0.6330 -0.8127 -1.0864
  171SOPE   H4Y19366   3.757   0.602   7.342  1.1141 -2.7554  2.7892
  171SOPE   C3519367   3.707   0.406   7.397 -0.3865  0.4257 -0.4568
  171SOPE   H5X19368   3.811   0.395   7.435  0.0102 -1.0224 -1.8597
  171SOPE   H5Y19369   3.695   0.310   7.343 -0.8017  0.4662 -0.4409
  171SOPE   C3619370   3.610   0.426   7.521 -0.2002 -0.3649 -0.4308
  171SOPE   H6X19371   3.610   0.329   7.574  1.5672 -0.8530 -1.2370
  171SOPE   H6Y19372   3.512   0.445   7.471 -0.0424 -0.5341 -0.8086
  171SOPE   C3719373   3.661   0.543   7.602  0.5225 -0.1702 -0.7044
  171SOPE   H7X19374   3.692   0.630   7.541  0.7957 -1.2699 -2.1964
  171SOPE   H7Y19375   3.750   0.515   7.663  0.5854 -1.4518 -1.3500
  171SOPE   C3819376   3.564   0.590   7.710  0.0412  0.8810 -0.2739
  171SOPE   H8X19377   3.466   0.624   7.670 -0.0955  0.8185  0.0033
  171SOPE   H8Y19378   3.608   0.683   7.753  0.5294  1.1972 -1.4295
  171SOPE   C3919379   3.525   0.473   7.811 -0.9817 -0.0592  0.4995
  171SOPE   H9X19380   3.622   0.431   7.846 -1.3063 -1.4186 -0.1531
  171SOPE   H9Y19381   3.485   0.396   7.741 -0.4619  0.3405 -0.2530
  171SOPE  C31019382   3.427   0.518   7.922 -0.0796  0.3157  0.1478
  171SOPE  H10X19383   3.343   0.552   7.858 -0.2255 -1.8548 -0.9342
  171SOPE  H10Y19384   3.471   0.600   7.982  0.6285 -1.0409  1.5592
  171SOPE  C31119385   3.392   0.400   8.020 -0.3886  0.7947  0.5768
  171SOPE  H11X19386   3.486   0.364   8.066 -1.6271  0.5044  3.0006
  171SOPE  H11Y19387   3.347   0.316   7.963 -2.4462  0.9718  1.8252
  171SOPE  C31219388   3.293   0.453   8.124 -0.5433  0.0407 -0.0784
  171SOPE  H12X19389   3.200   0.476   8.069 -0.6097  2.4471  0.8941
  171SOPE  H12Y19390   3.321   0.558   8.148 -2.5344  0.4924  0.4894
  171SOPE  C31319391   3.270   0.360   8.250 -0.6918 -0.4727 -0.3438
  171SOPE  H13X19392   3.364   0.318   8.291 -0.7125  1.1821  1.5362
  171SOPE  H13Y19393   3.213   0.274   8.210  0.0566 -0.6803 -0.9814
  171SOPE  C31419394   3.204   0.426   8.374  0.7407  1.1660  0.7252
  171SOPE  H14X19395   3.109   0.472   8.339 -0.0876  1.8500  3.6123
  171SOPE  H14Y19396   3.272   0.503   8.416  1.4809  0.6854  0.4290
  171SOPE  C31519397   3.163   0.336   8.493  0.2487 -0.1369  0.5098
  171SOPE  H15X19398   3.255   0.293   8.536  1.6947  2.2721 -0.0069
  171SOPE  H15Y19399   3.098   0.254   8.454  0.7746 -0.9423  1.2930
  171SOPE  C31619400   3.095   0.416   8.606  0.2863  0.2404  0.4446
  171SOPE  H16X19401   3.003   0.468   8.572 -1.1433 -2.4285 -0.0628
  171SOPE  H16Y19402   3.169   0.487   8.649  1.4522 -0.8237  0.2493
  171SOPE  C31719403   3.048   0.328   8.717 -0.1945 -0.3128 -0.0257
  171SOPE  H17X19404   3.134   0.267   8.752 -0.4472  0.3275  1.7930
  171SOPE  H17Y19405   2.971   0.262   8.673 -1.4252  0.7278  0.5039
  171SOPE  C31819406   3.001   0.413   8.829  0.0312  0.3076 -0.4719
  171SOPE  H18X19407   2.935   0.489   8.782 -2.2908  0.0618  2.1723
  171SOPE  H18Y19408   3.092   0.453   8.879  0.3211 -0.0105 -0.7375
  171SOPE  H18Z19409   2.939   0.351   8.896 -1.4513 -0.4158 -2.4216
  172SOPE     N19410   3.629   0.858   6.330  0.0825  0.2767 -0.4846
  172SOPE   HN119411   3.671   0.861   6.425 -0.2713  2.2339 -0.3582
  172SOPE   HN219412   3.547   0.796   6.350  1.7671 -1.4518  1.5561
  172SOPE   HN319413   3.695   0.815   6.262  2.5356 -0.3332  2.1013
  172SOPE   C1219414   3.589   1.002   6.307  0.2087 -0.4377  0.3943
  172SOPE  H12A19415   3.534   1.032   6.398 -0.1367 -1.0545  0.3950
  172SOPE  H12B19416   3.523   1.004   6.218  0.8946  1.2770 -0.1106
  172SOPE   C1119417   3.710   1.093   6.300 -0.0514 -0.0052 -0.6824
  172SOPE  H11A19418   3.656   1.188   6.319 -2.8621 -1.6136  0.0547
  172SOPE  H11B19419   3.770   1.102   6.207  2.6283  1.7905  1.0777
  172SOPE     P19420   3.904   1.165   6.458 -0.1588 -0.0986  0.0893
  172SOPE   O1319421   3.936   1.266   6.355  0.2160 -0.0739 -0.4420
  172SOPE   O1419422   4.008   1.096   6.539  0.1425 -0.0299  0.0733
  172SOPE   O1219423   3.809   1.053   6.401  0.6771 -0.0026 -0.0175
  172SOPE   O1119424   3.805   1.249   6.551 -0.0775  0.0814  0.0329
  172SOPE    C119425   3.703   1.193   6.632  0.0179 -0.0267 -0.3781
  172SOPE    HA19426   3.724   1.088   6.662 -0.9988  0.3534  1.8758
  172SOPE    HB19427   3.608   1.202   6.574 -1.7742  2.0610  2.5998
  172SOPE    C219428   3.687   1.260   6.774 -0.1052 -0.6699 -0.1980
  172SOPE    HS19429   3.619   1.200   6.837  0.9485  0.8100  2.5384
  172SOPE   O2119430   3.626   1.390   6.758 -0.3721 -0.5979 -0.2116
  172SOPE   C2119431   3.575   1.453   6.864 -0.7273 -0.4168 -0.5340
  172SOPE   O2219432   3.536   1.400   6.965 -0.2302  1.3080 -0.2439
  172SOPE   C2219433   3.565   1.605   6.830 -0.4698 -0.1251  0.5279
  172SOPE   H2R19434   3.506   1.609   6.736 -1.7264  0.2398  1.3035
  172SOPE   H2S19435   3.664   1.653   6.816 -0.6928  1.0464  2.5600
  172SOPE    C319436   3.827   1.277   6.848  0.0573  0.4773  0.1769
  172SOPE    HX19437   3.889   1.354   6.795 -0.8795  1.8803  1.0585
  172SOPE    HY19438   3.879   1.180   6.832  0.2083  0.4296  0.9297
  172SOPE   O3119439   3.820   1.314   6.985  0.6797  0.1855  0.6841
  172SOPE   C3119440   3.819   1.214   7.070 -0.0007  0.5345 -0.3888
  172SOPE   O3219441   3.815   1.094   7.045 -0.4218  0.4090 -0.5723
  172SOPE   C3219442   3.835   1.269   7.209  0.1854 -0.4744 -0.3994
  172SOPE   H2X19443   3.780   1.365   7.215  0.6760 -0.1598 -0.8494
  172SOPE   H2Y19444   3.944   1.287   7.221  0.4538 -1.3266 -1.4152
  172SOPE   C2319445   3.491   1.680   6.947 -0.1234  0.7346  0.3636
  172SOPE   H3R19446   3.396   1.630   6.979  0.5057 -2.0298 -1.6734
  172SOPE   H3S19447   3.451   1.775   6.906 -1.9265 -0.8907 -1.9352
  172SOPE   C2419448   3.576   1.698   7.071  0.0836 -0.7636 -0.0508
  172SOPE   H4R19449   3.591   1.596   7.112  2.0900 -0.3795  0.2747
  172SOPE   H4S19450   3.673   1.744   7.042 -0.1819 -0.2247 -0.0789
  172SOPE   C2519451   3.510   1.779   7.183  0.2542 -0.3485 -0.9067
  172SOPE   H5R19452   3.451   1.857   7.130 -0.3239 -0.8747 -1.0465
  172SOPE   H5S19453   3.444   1.709   7.239  1.2551 -0.2909  0.3858
  172SOPE   C2619454   3.602   1.848   7.287  0.3293  0.4161 -0.0347
  172SOPE   H6R19455   3.664   1.925   7.237  1.1982 -0.9841 -1.2051
  172SOPE   H6S19456   3.534   1.888   7.365 -1.0323 -1.4092 -0.2108
  172SOPE   C2719457   3.701   1.756   7.367  0.1207 -0.6704 -0.0750
  172SOPE   H7R19458   3.764   1.704   7.291 -1.2772 -0.0839 -1.7089
  172SOPE   H7S19459   3.774   1.824   7.415 -0.0164 -1.3244  1.0877
  172SOPE   C2819460   3.628   1.661   7.458  0.2094 -1.1232 -0.4364
  172SOPE   H8R19461   3.542   1.619   7.402 -1.1519 -0.6103  1.1954
  172SOPE   H8S19462   3.696   1.581   7.494 -0.2380 -0.1556  2.8337
  172SOPE   C2919463   3.562   1.737   7.570 -0.0453 -0.0743  0.0954
  172SOPE   H9119464   3.560   1.847   7.558  0.1294  0.2260  2.4038
  172SOPE  C21019465   3.505   1.696   7.681  0.1939 -0.0765 -0.7051
  172SOPE  H10119466   3.443   1.765   7.740 -2.2259 -0.9842 -2.0631
  172SOPE  C21119467   3.508   1.557   7.734  0.0053 -0.2614 -0.2257
  172SOPE  H11R19468   3.563   1.489   7.665  0.3260  0.9147 -1.1773
  172SOPE  H11S19469   3.403   1.523   7.731 -0.6917  1.6263  0.9381
  172SOPE  C21219470   3.545   1.561   7.888  0.0344 -0.4463 -0.4238
  172SOPE  H12R19471   3.460   1.611   7.940 -0.2715  0.6340 -1.8834
  172SOPE  H12S19472   3.628   1.630   7.913 -0.6615 -0.4556  2.2397
  172SOPE  C21319473   3.561   1.420   7.950  0.3472  0.6348  0.4343
  172SOPE  H13R19474   3.650   1.363   7.914  0.0782  0.5679 -0.1308
  172SOPE  H13S19475   3.469   1.366   7.920 -0.7213  1.6251  1.8229
  172SOPE  C21419476   3.565   1.423   8.106  0.5385 -0.7776 -0.4077
  172SOPE  H14R19477   3.555   1.528   8.140  0.4634 -1.3062  1.2710
  172SOPE  H14S19478   3.666   1.397   8.143  1.0742  0.2493 -1.0844
  172SOPE  C21519479   3.448   1.344   8.169  0.3757 -0.3949 -0.2982
  172SOPE  H15R19480   3.470   1.235   8.173  3.0032  0.1213  1.0063
  172SOPE  H15S19481   3.363   1.350   8.097 -0.2564 -0.2020  0.4552
  172SOPE  C21619482   3.400   1.402   8.304 -0.7924 -0.8334  0.1715
  172SOPE  H16R19483   3.357   1.504   8.292  0.7102 -0.3767 -1.8717
  172SOPE  H16S19484   3.496   1.424   8.355 -0.0659  1.7819 -2.0877
  172SOPE  C21719485   3.316   1.299   8.378 -0.7217  0.7794 -0.5563
  172SOPE  H17R19486   3.300   1.337   8.482  4.2654 -0.9591  1.1597
  172SOPE  H17S19487   3.392   1.219   8.392 -1.1844  0.2278 -1.1483
  172SOPE  C21819488   3.183   1.255   8.312  0.1125  0.5861 -0.6479
  172SOPE  H18R19489   3.133   1.179   8.376 -0.8043  0.9508 -0.9116
  172SOPE  H18S19490   3.191   1.214   8.209  3.3763 -1.0238  0.0996
  172SOPE  H18T19491   3.110   1.339   8.319  0.7833  1.2797 -1.7825
  172SOPE   C3319492   3.785   1.174   7.314  0.4324  0.9623  0.4104
  172SOPE   H3X19493   3.843   1.079   7.314  0.4020  0.9257 -0.9300
  172SOPE   H3Y19494   3.676   1.153   7.302  0.5814  0.7373 -0.6487
  172SOPE   C3419495   3.799   1.249   7.450  0.3720 -0.2431  0.4831
  172SOPE   H4X19496   3.721   1.328   7.449  1.0090  0.3936  0.9003
  172SOPE   H4Y19497   3.889   1.311   7.466  0.3572  0.0588 -0.5496
  172SOPE   C3519498   3.787   1.160   7.570 -0.2747 -0.1651 -0.2750
  172SOPE   H5X19499   3.886   1.108   7.572 -0.2245 -0.0663 -0.1106
  172SOPE   H5Y19500   3.702   1.089   7.569 -0.3302 -0.1464  0.9490
  172SOPE   C3619501   3.781   1.236   7.708 -0.5495 -0.3545  0.9062
  172SOPE   H6X19502   3.674   1.264   7.712 -0.6499 -0.7712  1.0529
  172SOPE   H6Y19503   3.843   1.329   7.703  0.6060 -1.1324  0.4515
  172SOPE   C3719504   3.814   1.151   7.827  0.1464 -0.3661  0.0206
  172SOPE   H7X19505   3.799   1.221   7.911 -1.5303  0.6128 -1.0410
  172SOPE   H7Y19506   3.923   1.127   7.824  1.2086  3.3695  2.2446
  172SOPE   C3819507   3.724   1.027   7.841 -0.0756 -0.8017 -1.0014
  172SOPE   H8X19508   3.735   0.968   7.748  3.3228  0.0867 -1.2987
  172SOPE   H8Y19509   3.623   1.073   7.846  0.6321  0.7544 -0.0968
  172SOPE   C3919510   3.756   0.932   7.963  0.1328 -0.1027 -0.4831
  172SOPE   H9X19511   3.863   0.932   7.996 -0.0360  1.2656  0.1097
  172SOPE   H9Y19512   3.716   0.832   7.935  0.7489 -0.6911  0.6337
  172SOPE  C31019513   3.682   0.989   8.084 -1.0442  0.9108  0.4324
  172SOPE  H10X19514   3.605   0.913   8.109 -0.7846  0.2492 -0.6937
  172SOPE  H10Y19515   3.615   1.068   8.044 -0.0729  1.6987  0.3420
  172SOPE  C31119516   3.769   1.042   8.202  0.3101 -0.4334  0.0259
  172SOPE  H11X19517   3.817   1.136   8.166  0.3326 -0.3335  0.3122
  172SOPE  H11Y19518   3.846   0.968   8.234 -0.2628  0.0658  2.7714
  172SOPE  C31219519   3.694   1.073   8.328  0.2327  0.5924 -0.2242
  172SOPE  H12X19520   3.657   0.974   8.362  3.0612  0.2430  2.2556
  172SOPE  H12Y19521   3.614   1.148   8.309 -1.1376 -0.6584  0.4199
  172SOPE  C31319522   3.766   1.130   8.450 -0.3371  0.3604 -0.2064
  172SOPE  H13X19523   3.838   1.212   8.426 -2.0308  1.5101 -1.6014
  172SOPE  H13Y19524   3.826   1.044   8.487 -0.0163 -0.1970 -1.9441
  172SOPE  C31419525   3.689   1.169   8.573  0.1128 -1.0549 -0.1648
  172SOPE  H14X19526   3.628   1.261   8.560  1.2642 -0.5381 -2.4148
  172SOPE  H14Y19527   3.750   1.191   8.663 -1.5503 -0.6247  0.8944
  172SOPE  C31519528   3.597   1.059   8.622  0.0764  0.3125  0.0735
  172SOPE  H15X19529   3.648   0.960   8.627  1.4768  0.9464 -0.7939
  172SOPE  H15Y19530   3.530   1.046   8.534  0.7209  1.7998 -0.6735
  172SOPE  C31619531   3.512   1.091   8.746 -0.9109  0.8142  0.1825
  172SOPE  H16X19532   3.430   1.020   8.770 -0.5630  0.4874  0.4210
  172SOPE  H16Y19533   3.461   1.189   8.740 -2.0671  0.1570 -1.0713
  172SOPE  C31719534   3.589   1.088   8.877 -1.0155  0.2143 -0.7480
  172SOPE  H17X19535   3.686   1.140   8.860 -1.0691  0.8175  0.6643
  172SOPE  H17Y19536   3.619   0.984   8.905 -0.6144  0.0322 -1.7797
  172SOPE  C31819537   3.518   1.156   8.996  0.6795 -0.6617 -0.6289
  172SOPE  H18X19538   3.424   1.101   9.014  0.2539  0.1721 -0.2484
  172SOPE  H18Y19539   3.502   1.262   8.966 -0.0364 -0.5935 -0.0367
  172SOPE  H18Z19540   3.577   1.138   9.089  0.0055 -1.2674 -0.3150
  173SAPI   C1219541   6.123   5.329  10.778 -0.4537  0.3409  0.5918
  173SAPI    H219542   6.084   5.277  10.688 -0.3563 -2.7826  2.2409
  173SAPI    O219543   6.221   5.427  10.741 -0.7078 -0.0034 -0.3324
  173SAPI   HO219544   6.219   5.452  10.649 -2.0395 -1.7239 -0.8159
  173SAPI   C1319545   6.003   5.395  10.847 -0.5305  0.3049  1.0546
  173SAPI    H319546   5.924   5.326  10.881 -3.3137  2.1061 -1.2571
  173SAPI    O319547   5.933   5.482  10.765  0.2642  0.0666  0.3067
  173SAPI   HO319548   5.839   5.489  10.785 -0.1059 -1.5727 -0.6175
  173SAPI   C1419549   6.051   5.451  10.985  0.4246 -0.5623  0.5543
  173SAPI    H419550   6.131   5.527  10.976 -0.6099  1.0413  3.4918
  173SAPI    O419551   5.944   5.522  11.055 -0.0785 -0.0988 -0.3099
  173SAPI   HO419552   5.888   5.456  11.095  1.0616 -0.7138  0.3493
  173SAPI   C1519553   6.117   5.343  11.068 -0.6623  0.3501  0.5869
  173SAPI    H519554   6.037   5.269  11.089 -0.3760 -0.9768 -2.5124
  173SAPI    O519555   6.161   5.400  11.197 -0.1551  0.2041 -0.0958
  173SAPI   HO519556   6.113   5.367  11.273 -1.8569 -2.1200 -2.0219
  173SAPI   C1619557   6.234   5.277  11.002 -0.7168  0.5297  0.2343
  173SAPI    H619558   6.319   5.344  10.982  0.0261 -0.9288 -1.8752
  173SAPI    O619559   6.272   5.167  11.088 -0.2186 -0.1370  0.1523
  173SAPI   HO619560   6.353   5.183  11.137 -0.5459  1.3413  0.2532
  173SAPI   C1119561   6.185   5.222  10.866 -0.2482 -0.2051  0.2952
  173SAPI    H119562   6.103   5.155  10.899  0.4744 -0.6196  1.3316
  173SAPI     P19563   6.241   4.992  10.745  0.0762 -0.0917 -0.0713
  173SAPI   O1319564   6.096   4.990  10.736 -0.0172  0.1027 -0.1236
  173SAPI   O1419565   6.308   4.896  10.842  0.2397 -0.3161 -0.2548
  173SAPI   O1219566   6.285   5.145  10.791  0.4026  0.3923 -0.1207
  173SAPI   O1119567   6.307   4.985  10.600  0.4550  0.1502 -1.1420
  173SAPI    C119568   6.443   5.038  10.583 -0.2784 -0.7456  0.3512
  173SAPI    HA19569   6.509   5.026  10.671  0.3988 -0.8011 -0.1603
  173SAPI    HB19570   6.494   4.974  10.509  1.6874  0.8124  0.2821
  173SAPI    C219571   6.445   5.187  10.529  0.3315  0.7834  0.5315
  173SAPI    HS19572   6.396   5.259  10.598  0.8143  2.0559 -0.4244
  173SAPI   O2119573   6.380   5.174  10.399 -0.3683 -0.1091 -0.2714
  173SAPI   C2119574   6.256   5.221  10.391 -0.0344 -0.2589 -0.1226
  173SAPI   O2219575   6.208   5.298  10.470 -0.5756  0.0693  0.2595
  173SAPI   C2219576   6.197   5.176  10.254 -0.1384  0.2602 -0.5495
  173SAPI   H2R19577   6.185   5.270  10.196  0.6204 -0.0544 -1.2248
  173SAPI   H2S19578   6.276   5.115  10.204  0.4620 -0.3681  1.0836
  173SAPI    C319579   6.590   5.243  10.505 -0.2631 -0.4086  0.0515
  173SAPI    HX19580   6.629   5.253  10.609 -0.3002  0.5129 -0.0171
  173SAPI    HY19581   6.577   5.341  10.454 -0.3111  0.0171  0.8646
  173SAPI   O3119582   6.677   5.157  10.432  0.1392 -0.2587  0.1008
  173SAPI   C3119583   6.810   5.186  10.438  0.3913  0.3070 -0.4490
  173SAPI   O3219584   6.861   5.279  10.501 -0.0868  0.3724  0.1428
  173SAPI   C3219585   6.876   5.079  10.357 -0.3710 -0.2252 -0.0253
  173SAPI   H2X19586   6.823   4.981  10.362 -4.0369  1.6047  0.6653
  173SAPI   H2Y19587   6.981   5.071  10.392 -0.1325 -0.3318 -0.7482
  173SAPI   C2319588   6.056   5.113  10.260  0.6716  0.5109  0.0784
  173SAPI   H3R19589   6.028   5.107  10.153  0.6359  0.6283  0.0811
  173SAPI   H3S19590   5.989   5.182  10.315 -0.4720 -1.4097  1.2116
  173SAPI   C2419591   6.066   4.977  10.331 -0.1516 -0.7280 -0.1627
  173SAPI   H4R19592   6.104   5.001  10.433 -1.0258  0.6642 -0.1399
  173SAPI   H4S19593   6.136   4.904  10.285 -0.7709 -2.0865  0.9679
  173SAPI   C2519594   5.928   4.909  10.353 -0.0966 -0.1703  0.3773
  173SAPI   H5R19595   5.865   4.948  10.434 -0.3830  1.6502 -0.6692
  173SAPI   C2619596   5.884   4.810  10.283  0.5266  0.6300  0.0850
  173SAPI   H6R19597   5.786   4.770  10.313  1.5286 -2.2450 -0.2174
  173SAPI   C2719598   5.943   4.729  10.167 -0.6981 -0.6118  0.1386
  173SAPI   H7R19599   6.003   4.795  10.101 -0.7756 -0.6940 -0.0152
  173SAPI   H7S19600   5.852   4.701  10.111 -1.4898 -0.5484  1.3440
  173SAPI   C2819601   6.022   4.615  10.226 -0.3136 -0.5823 -0.3552
  173SAPI   H8R19602   6.043   4.623  10.333  1.7590 -0.4515 -0.7286
  173SAPI   C2919603   6.058   4.506  10.157  0.9686  0.2796 -0.0418
  173SAPI   H9R19604   6.120   4.430  10.208 -0.1485 -0.2866  0.4926
  173SAPI  C21019605   6.026   4.480  10.012  0.2653 -0.6431 -0.0110
  173SAPI  H10R19606   6.121   4.481   9.956 -0.3705 -0.3608 -1.1085
  173SAPI  H10S19607   5.971   4.566   9.968 -1.2761 -0.9397  1.2259
  173SAPI  C21119608   5.949   4.346  10.002 -0.3618  0.3685  0.7451
  173SAPI  H11R19609   5.899   4.310  10.093  1.2020 -0.4275  1.3309
  173SAPI  C21219610   5.948   4.271   9.885  0.1740  0.8512 -1.0029
  173SAPI  H12R19611   5.894   4.175   9.884  1.0309  0.3508 -0.4023
  173SAPI  C21319612   6.027   4.319   9.765  0.0343  1.0036 -0.1327
  173SAPI  H13R19613   6.133   4.336   9.791  0.0765 -0.9601  1.1204
  173SAPI  H13S19614   5.995   4.424   9.745 -1.7179  1.2159  3.1444
  173SAPI  C21419615   6.001   4.231   9.642  0.0698  0.5298 -0.1688
  173SAPI  H14R19616   5.894   4.233   9.618 -0.1989 -0.2472  0.8741
  173SAPI  C21519617   6.078   4.158   9.560 -0.6054 -0.0651  0.4212
  173SAPI  H15R19618   6.035   4.087   9.487 -0.6799 -0.9101  1.2677
  173SAPI  C21619619   6.231   4.156   9.577 -0.0743  0.1827 -0.3572
  173SAPI  H16R19620   6.258   4.063   9.633 -2.5380  1.2210  2.8712
  173SAPI  H16S19621   6.271   4.243   9.633 -0.5581 -0.7344  1.4784
  173SAPI  C21719622   6.290   4.185   9.436  0.0703  0.5125 -0.2108
  173SAPI  H17R19623   6.389   4.234   9.443 -0.2548  1.4794 -1.9432
  173SAPI  H17S19624   6.228   4.238   9.360 -1.3976  1.8043  1.7866
  173SAPI  C21819625   6.306   4.051   9.381 -0.3749  0.4042 -0.3924
  173SAPI  H18R19626   6.206   4.003   9.379 -0.6045  0.7448  1.2887
  173SAPI  H18S19627   6.362   3.992   9.456  0.8833  2.1797  0.1300
  173SAPI  C21919628   6.388   4.052   9.252 -0.7429 -0.1083 -0.7739
  173SAPI  H19R19629   6.415   3.948   9.225  0.4610  0.3051 -1.2207
  173SAPI  H19S19630   6.481   4.109   9.272 -1.0409  0.3764 -0.7344
  173SAPI  C22019631   6.308   4.119   9.138  0.3644  0.8155  0.3930
  173SAPI  H20R19632   6.225   4.060   9.094  1.2053 -0.9326  1.0533
  173SAPI  H20S19633   6.390   4.130   9.063  1.9761 -0.5374  1.8699
  173SAPI  H20T19634   6.280   4.225   9.153 -2.0376  0.1675  0.8855
  173SAPI   C3319635   6.873   5.113  10.210 -0.4772  0.3033 -0.1359
  173SAPI   H3X19636   6.765   5.111  10.182 -0.5176  1.6708 -0.1300
  173SAPI   H3Y19637   6.941   5.041  10.160 -0.8963  0.1819 -0.5442
  173SAPI   C3419638   6.947   5.249  10.162 -0.1878  1.0535 -1.0006
  173SAPI   H4X19639   7.030   5.267  10.233  0.2760 -0.4916 -1.1205
  173SAPI   H4Y19640   6.875   5.332  10.174 -0.9514  0.3985 -0.9126
  173SAPI   C3519641   6.986   5.258  10.018 -0.1600  0.2500  0.2163
  173SAPI   H5X19642   7.064   5.183   9.993 -0.2982 -0.1606  0.9506
  173SAPI   H5Y19643   7.035   5.353   9.989  0.3597 -0.1067 -0.0872
  173SAPI   C3619644   6.869   5.238   9.921  0.7340  0.6704  0.3959
  173SAPI   H6X19645   6.835   5.343   9.906  0.4161  0.6084  0.6630
  173SAPI   H6Y19646   6.794   5.167   9.963  0.7203  0.3716 -0.1229
  173SAPI   C3719647   6.905   5.182   9.781  0.2401  0.2809 -0.6098
  173SAPI   H7X19648   6.954   5.082   9.786  1.5537  0.8301 -1.9525
  173SAPI   H7Y19649   6.982   5.254   9.749 -3.5043  4.6299 -0.8459
  173SAPI   C3819650   6.802   5.197   9.667  0.9901 -0.2502  0.4019
  173SAPI   H8X19651   6.827   5.278   9.595 -2.4355 -0.2545 -0.9661
  173SAPI   H8Y19652   6.713   5.234   9.723  2.0923 -1.1474  2.8721
  173SAPI   C3919653   6.781   5.061   9.602  0.2471  0.6520  0.7968
  173SAPI   H9X19654   6.803   4.979   9.673 -2.0633 -1.1908 -0.4818
  173SAPI   H9Y19655   6.856   5.059   9.520 -0.3326  1.4093  0.2333
  173SAPI  C31019656   6.646   5.052   9.528  0.1225  0.1668  0.0546
  173SAPI  H10X19657   6.570   5.066   9.608 -0.6854 -0.1101 -0.6541
  173SAPI  H10Y19658   6.632   4.949   9.487 -0.4205 -0.1320  0.9538
  173SAPI  C31119659   6.617   5.157   9.420 -0.2868 -0.8295 -0.4755
  173SAPI  H11X19660   6.612   5.259   9.465  0.1451 -0.0386 -2.1370
  173SAPI  H11Y19661   6.524   5.135   9.364 -0.5510 -0.3337 -0.2415
  173SAPI  C31219662   6.734   5.171   9.324  0.2884 -0.0489  0.0006
  173SAPI  H12X19663   6.741   5.075   9.269 -0.5782  0.4037 -0.9276
  173SAPI  H12Y19664   6.831   5.185   9.376  0.8683 -0.3616 -0.9731
  173SAPI  C31319665   6.709   5.274   9.210  0.0070  0.5764 -0.3851
  173SAPI  H13X19666   6.681   5.368   9.262 -2.5203 -0.4925  0.3271
  173SAPI  H13Y19667   6.615   5.247   9.158 -0.8618 -0.3344  1.5441
  173SAPI  C31419668   6.838   5.288   9.127 -0.8438 -0.1830  0.4924
  173SAPI  H14X19669   6.929   5.244   9.174  0.1393  1.8964  0.6369
  173SAPI  H14Y19670   6.866   5.391   9.097  2.4107 -1.3098 -0.6781
  173SAPI  C31519671   6.839   5.222   8.981 -0.3529  0.2536  0.2371
  173SAPI  H15X19672   6.919   5.264   8.917  1.1626 -2.0899  0.4636
  173SAPI  H15Y19673   6.733   5.236   8.949  0.1907 -0.1733 -1.8294
  173SAPI  C31619674   6.882   5.070   8.993  0.5473 -0.0775 -0.0414
  173SAPI  H16X19675   6.806   5.005   9.043 -1.3410  2.2135  0.2903
  173SAPI  H16Y19676   6.963   5.060   9.068  0.5885  1.0516  0.0789
  173SAPI  C31719677   6.926   5.016   8.854 -0.4259  0.0380 -0.1520
  173SAPI  H17X19678   6.938   5.103   8.785  0.5037 -0.5418 -0.7539
  173SAPI  H17Y19679   6.838   4.964   8.810  0.0078 -0.4252 -0.5021
  173SAPI  C31819680   7.058   4.928   8.860 -0.2922  0.0105 -0.5802
  173SAPI  H18X19681   7.047   4.859   8.947  0.6376  1.9939  1.1953
  173SAPI  H18Y19682   7.157   4.978   8.860  1.2555 -2.6120  2.6756
  173SAPI  H18Z19683   7.068   4.878   8.762  1.4761 -0.6677 -0.0843
  174SAPI   C1219684   1.644   0.556  11.010 -0.7500  0.2127  0.5349
  174SAPI    H219685   1.723   0.633  11.000 -0.0156 -0.0827  3.3294
  174SAPI    O219686   1.710   0.436  11.054  0.2534 -0.0238 -0.8352
  174SAPI   HO219687   1.801   0.442  11.024  0.0791 -2.2909 -2.0293
  174SAPI   C1319688   1.551   0.607  11.119  0.3693 -0.6054 -0.4732
  174SAPI    H319689   1.510   0.701  11.075 -0.3441 -1.2370 -1.1931
  174SAPI    O319690   1.619   0.649  11.240  0.9002 -0.2381 -0.2436
  174SAPI   HO319691   1.643   0.573  11.293 -1.0161 -1.5192 -1.0962
  174SAPI   C1419692   1.429   0.523  11.144 -0.2659  0.0238  0.4275
  174SAPI    H419693   1.465   0.430  11.194 -0.4451 -0.5028 -0.3924
  174SAPI    O419694   1.332   0.575  11.231 -0.1350  0.0748 -0.1691
  174SAPI   HO419695   1.298   0.499  11.278  0.8578 -0.8517 -0.9188
  174SAPI   C1519696   1.361   0.489  11.014  0.2733 -0.6013  0.0526
  174SAPI    H519697   1.318   0.582  10.971  0.5493 -0.6786 -0.3988
  174SAPI    O519698   1.242   0.399  11.031  0.2788  0.6215  0.7673
  174SAPI   HO519699   1.174   0.461  11.059  1.5914  2.0035  1.0770
  174SAPI   C1619700   1.463   0.437  10.910 -0.2140  0.0707  0.4030
  174SAPI    H619701   1.494   0.340  10.953  1.2988  0.3591  0.0305
  174SAPI    O619702   1.399   0.410  10.778  0.3968 -0.1372  0.2893
  174SAPI   HO619703   1.400   0.498  10.741  2.1779  0.0495  0.6568
  174SAPI   C1119704   1.577   0.534  10.879 -0.2697 -0.1553 -0.1227
  174SAPI    H119705   1.523   0.626  10.848  0.0035  0.5144  1.2960
  174SAPI     P19706   1.775   0.575  10.702 -0.2542 -0.0909 -0.5225
  174SAPI   O1319707   1.809   0.499  10.578  0.6437  0.4982  0.0777
  174SAPI   O1419708   1.887   0.612  10.798  0.0979 -0.5848  0.0063
  174SAPI   O1219709   1.659   0.475  10.778 -0.1336  0.4670 -0.0641
  174SAPI   O1119710   1.698   0.701  10.664 -0.5056 -0.6542  0.8659
  174SAPI    C119711   1.590   0.697  10.571  0.2860 -0.4578  0.8766
  174SAPI    HA19712   1.531   0.604  10.585  0.0613 -0.3557  0.6149
  174SAPI    HB19713   1.516   0.780  10.579  1.4711  0.7030  0.2904
  174SAPI    C219714   1.628   0.715  10.425 -0.1823 -0.0194  0.2378
  174SAPI    HS19715   1.698   0.633  10.398 -0.9814 -0.6712  0.1246
  174SAPI   O2119716   1.683   0.847  10.405  0.7433 -0.5093  0.3005
  174SAPI   C2119717   1.798   0.854  10.349 -0.6633 -0.0371 -0.1658
  174SAPI   O2219718   1.859   0.758  10.295 -0.0882 -0.2761  0.0541
  174SAPI   C2219719   1.848   0.998  10.354  0.0094  0.3791 -0.3329
  174SAPI   H2R19720   1.813   1.051  10.445 -1.8917  0.4159 -1.0581
  174SAPI   H2S19721   1.959   0.994  10.357  0.0398  0.1574 -1.3905
  174SAPI    C319722   1.504   0.699  10.339 -0.4568  0.8609  0.4759
  174SAPI    HX19723   1.433   0.785  10.338  0.7711  1.9382 -1.1976
  174SAPI    HY19724   1.447   0.608  10.366 -0.6933  0.5729 -0.9420
  174SAPI   O3119725   1.556   0.681  10.207 -0.4534 -0.0354  0.2463
  174SAPI   C3119726   1.462   0.681  10.108  0.4312 -0.2615  0.2210
  174SAPI   O3219727   1.349   0.719  10.125  0.5864  0.0344  0.4231
  174SAPI   C3219728   1.512   0.625   9.973  0.1094 -0.1534  0.3381
  174SAPI   H2X19729   1.494   0.517   9.988 -0.9680  0.2828  2.5285
  174SAPI   H2Y19730   1.622   0.637   9.967 -0.0566  0.7551 -1.9151
  174SAPI   C2319731   1.800   1.092  10.239  0.4526 -0.4381  0.4308
  174SAPI   H3R19732   1.837   1.194  10.263  0.2353 -0.0121 -0.9336
  174SAPI   H3S19733   1.690   1.099  10.248  0.4758 -0.0970  0.4708
  174SAPI   C2419734   1.853   1.044  10.105  0.1605  0.4595  0.0637
  174SAPI   H4R19735   1.945   0.984  10.123 -1.4242 -2.9911 -2.1709
  174SAPI   H4S19736   1.882   1.132  10.043  0.9742 -0.7767 -1.3841
  174SAPI   C2519737   1.768   0.942  10.026 -0.0779 -0.3790 -1.3050
  174SAPI   H5R19738   1.753   0.841  10.065 -0.2682  0.6178  1.4470
  174SAPI   C2619739   1.708   0.966   9.909 -0.1490 -0.6248 -0.4168
  174SAPI   H6R19740   1.665   0.882   9.853  2.4308 -0.5503 -2.7118
  174SAPI   C2719741   1.715   1.097   9.830 -0.5655  0.3650  0.2087
  174SAPI   H7R19742   1.673   1.172   9.900  0.8837 -1.3915  3.1480
  174SAPI   H7S19743   1.645   1.099   9.743  0.7004  1.6561 -0.8110
  174SAPI   C2819744   1.854   1.145   9.786 -0.4545  0.4659 -0.0940
  174SAPI   H8R19745   1.936   1.115   9.852 -2.7774 -1.5248  2.0999
  174SAPI   C2919746   1.869   1.219   9.666 -0.0609 -0.0113 -0.9973
  174SAPI   H9R19747   1.971   1.246   9.637  0.7634 -1.4563  0.4050
  174SAPI  C21019748   1.745   1.253   9.574 -0.4205  0.4837 -0.1833
  174SAPI  H10R19749   1.658   1.296   9.627 -2.9602 -0.4269 -3.3101
  174SAPI  H10S19750   1.700   1.162   9.529  3.2438 -0.3030 -2.6789
  174SAPI  C21119751   1.788   1.351   9.476  0.2413  0.1554  0.8490
  174SAPI  H11R19752   1.798   1.456   9.509  2.4821 -0.4293  2.2424
  174SAPI  C21219753   1.812   1.327   9.342  0.0666 -0.7729 -0.1390
  174SAPI  H12R19754   1.842   1.412   9.279  1.0098 -2.3243 -1.8587
  174SAPI  C21319755   1.794   1.191   9.275 -0.1978 -0.0749 -0.3354
  174SAPI  H13R19756   1.746   1.110   9.334 -0.8294  0.8812  0.5020
  174SAPI  H13S19757   1.899   1.157   9.257 -0.5117 -1.6500  0.5966
  174SAPI  C21419758   1.717   1.226   9.147  0.2765  0.3295  0.1720
  174SAPI  H14R19759   1.613   1.255   9.168  0.1304  0.4822 -0.7454
  174SAPI  C21519760   1.761   1.214   9.018  0.1057  0.3932  0.2566
  174SAPI  H15R19761   1.686   1.244   8.943 -0.0177  1.2001  0.6861
  174SAPI  C21619762   1.899   1.166   8.974 -0.0098  0.5701 -0.4745
  174SAPI  H16R19763   1.895   1.088   8.895  2.5627 -1.5720  1.3183
  174SAPI  H16S19764   1.955   1.126   9.061  0.3090 -1.6280 -1.6093
  174SAPI  C21719765   1.983   1.286   8.913 -0.9115 -0.2892 -0.4657
  174SAPI  H17R19766   1.929   1.340   8.832 -0.7580  2.4507  1.1451
  174SAPI  H17S19767   2.081   1.255   8.872  0.8725  0.0397  3.1472
  174SAPI  C21819768   2.005   1.400   9.007  0.8026 -0.0125 -0.0994
  174SAPI  H18R19769   2.074   1.352   9.079  1.7838  0.0755 -0.9569
  174SAPI  H18S19770   1.913   1.448   9.047  0.7510 -0.0477 -0.1756
  174SAPI  C21919771   2.098   1.507   8.958  0.3040  0.8704  0.3447
  174SAPI  H19R19772   2.073   1.547   8.857  1.7998  0.8761 -0.0536
  174SAPI  H19S19773   2.195   1.453   8.946  0.4991  0.7794  2.1581
  174SAPI  C22019774   2.098   1.606   9.063 -1.1653 -1.0261 -0.8520
  174SAPI  H20R19775   2.117   1.562   9.163 -3.0518  0.9122  0.4344
  174SAPI  H20S19776   1.997   1.652   9.068 -0.4018  0.6604 -0.5541
  174SAPI  H20T19777   2.170   1.688   9.042 -1.5041 -0.2362  0.9222
  174SAPI   C3319778   1.441   0.702   9.858 -0.5287  0.3020 -0.7104
  174SAPI   H3X19779   1.440   0.813   9.865  0.5600  0.2411  0.6462
  174SAPI   H3Y19780   1.333   0.674   9.859 -0.6601  0.6200 -2.5295
  174SAPI   C3419781   1.503   0.664   9.725 -0.0971 -0.2901  0.5211
  174SAPI   H4X19782   1.488   0.557   9.698  2.7464 -0.1117 -2.3405
  174SAPI   H4Y19783   1.614   0.664   9.731 -0.0720 -2.8172  1.5190
  174SAPI   C3519784   1.446   0.748   9.602 -0.1015 -0.1655  0.1197
  174SAPI   H5X19785   1.477   0.851   9.628 -2.7970  0.0513  3.1209
  174SAPI   H5Y19786   1.336   0.736   9.594  0.0646 -1.6531 -0.2022
  174SAPI   C3619787   1.484   0.697   9.459  0.0789  0.4367  0.3340
  174SAPI   H6X19788   1.426   0.602   9.453  0.1566  0.4198 -0.1508
  174SAPI   H6Y19789   1.594   0.687   9.446  0.1135  1.6457 -0.3792
  174SAPI   C3719790   1.438   0.789   9.342  0.6189 -0.4279  0.3780
  174SAPI   H7X19791   1.509   0.874   9.345  0.5223 -0.2812 -0.8574
  174SAPI   H7Y19792   1.333   0.824   9.357 -0.1579 -2.0147 -1.0081
  174SAPI   C3819793   1.445   0.739   9.201 -0.3473  0.5469 -0.1753
  174SAPI   H8X19794   1.374   0.656   9.181  0.6811 -0.2463 -0.5879
  174SAPI   H8Y19795   1.543   0.690   9.188 -1.0686 -0.9839 -0.0122
  174SAPI   C3919796   1.433   0.847   9.093  0.0143 -0.6763 -0.3636
  174SAPI   H9X19797   1.494   0.933   9.128 -0.2605  0.0472 -1.6181
  174SAPI   H9Y19798   1.333   0.893   9.104  0.7313  0.5444  1.8803
  174SAPI  C31019799   1.491   0.799   8.963 -0.0839  0.4302  0.8483
  174SAPI  H10X19800   1.428   0.714   8.929  0.2221 -0.0057  1.3569
  174SAPI  H10Y19801   1.593   0.760   8.986 -0.5362 -0.9609  0.5229
  174SAPI  C31119802   1.474   0.908   8.855 -0.3347  0.5573 -0.1637
  174SAPI  H11X19803   1.515   1.003   8.896  1.1286  0.3057 -0.9639
  174SAPI  H11Y19804   1.367   0.918   8.827 -0.5711  0.5879  0.7476
  174SAPI  C31219805   1.528   0.869   8.715 -0.4604  0.0837  0.5378
  174SAPI  H12X19806   1.465   0.797   8.659  0.2178 -0.0765 -0.0337
  174SAPI  H12Y19807   1.623   0.812   8.724 -0.1614  0.4787 -0.1207
  174SAPI  C31319808   1.554   0.996   8.629  0.6134 -0.3493 -0.3046
  174SAPI  H13X19809   1.568   1.080   8.701  0.5030 -3.5726  3.8503
  174SAPI  H13Y19810   1.459   1.027   8.580 -0.1282 -1.1422  0.5983
  174SAPI  C31419811   1.677   0.974   8.539  0.0958  0.3782  0.6328
  174SAPI  H14X19812   1.651   0.889   8.471  2.0911  0.8401 -0.7968
  174SAPI  H14Y19813   1.758   0.932   8.602 -0.4172 -0.1819  0.9276
  174SAPI  C31519814   1.726   1.089   8.462 -0.2648 -0.5121  0.3746
  174SAPI  H15X19815   1.642   1.134   8.405  0.1600 -0.4402 -0.2062
  174SAPI  H15Y19816   1.796   1.055   8.383 -0.0392  0.0440  0.3324
  174SAPI  C31619817   1.800   1.189   8.548 -0.5481 -0.2014  0.0332
  174SAPI  H16X19818   1.889   1.142   8.595 -1.3409  0.0225  1.8199
  174SAPI  H16Y19819   1.728   1.223   8.625  0.9472  3.3496  0.0661
  174SAPI  C31719820   1.841   1.314   8.458  0.5544  1.2419 -0.1959
  174SAPI  H17X19821   1.745   1.361   8.429 -1.1384 -1.6166  0.3228
  174SAPI  H17Y19822   1.901   1.290   8.368 -1.0764 -0.2192 -0.9498
  174SAPI  C31819823   1.905   1.413   8.541  0.3994 -0.2928 -0.1621
  174SAPI  H18X19824   2.012   1.385   8.547  1.1042  1.8640 -1.3867
  174SAPI  H18Y19825   1.858   1.419   8.641  0.4464 -2.3379  0.0249
  174SAPI  H18Z19826   1.906   1.513   8.491 -2.5802  0.1789  0.5057
  175SAPI   C1219827   5.038   0.658   6.081  0.2441 -0.2659 -0.3225
  175SAPI    H219828   4.961   0.718   6.135  0.5809 -0.3533  0.2623
  175SAPI    O219829   4.995   0.656   5.944  0.3930  0.1160 -0.4232
  175SAPI   HO219830   4.920   0.597   5.939 -0.3610  0.9601  0.4994
  175SAPI   C1319831   5.169   0.733   6.100  0.1019 -0.5016  0.4904
  175SAPI    H319832   5.201   0.747   6.205  1.4535  1.2784 -0.1027
  175SAPI    O319833   5.161   0.871   6.050 -0.4046  0.4090  0.2853
  175SAPI   HO319834   5.134   0.941   6.111 -1.8723 -1.6378  2.1441
  175SAPI   C1419835   5.276   0.667   6.023  0.4058 -0.7918  0.0521
  175SAPI    H419836   5.248   0.663   5.915 -0.7913 -0.1755  0.3302
  175SAPI    O419837   5.402   0.736   6.042 -0.1946 -0.4474 -0.1348
  175SAPI   HO419838   5.416   0.774   6.130 -2.9322  0.7988 -0.1336
  175SAPI   C1519839   5.286   0.515   6.064 -0.1731 -0.7691 -0.8399
  175SAPI    H519840   5.322   0.510   6.169 -0.4627  2.1241 -0.5094
  175SAPI    O519841   5.376   0.436   5.981  0.6866 -0.6840 -0.8916
  175SAPI   HO519842   5.467   0.464   5.988  0.1304  1.3589 -1.2418
  175SAPI   C1619843   5.153   0.446   6.061  0.5639  0.1654 -0.5352
  175SAPI    H619844   5.114   0.435   5.957 -0.4912 -3.0358  0.0758
  175SAPI    O619845   5.156   0.316   6.114 -0.1467 -0.5588  0.4214
  175SAPI   HO619846   5.092   0.299   6.184 -0.7910 -1.2631 -0.3269
  175SAPI   C1119847   5.046   0.521   6.141 -0.1512 -0.8266 -0.8498
  175SAPI    H119848   5.084   0.538   6.244  1.3066  0.5958 -1.5806
  175SAPI     P19849   4.850   0.371   6.241  0.3607 -0.1483  0.0719
  175SAPI   O1319850   4.959   0.285   6.295  0.5741 -0.3481 -0.6566
  175SAPI   O1419851   4.718   0.316   6.184  0.2288  0.6402  0.2301
  175SAPI   O1219852   4.920   0.460   6.132  0.5103 -0.3460 -0.5317
  175SAPI   O1119853   4.794   0.469   6.357 -0.2032  0.8495  0.0978
  175SAPI    C119854   4.856   0.504   6.479 -0.1171 -0.9178  0.2717
  175SAPI    HA19855   4.958   0.461   6.492  0.3706  1.0010  3.9649
  175SAPI    HB19856   4.860   0.613   6.498  2.0673 -1.0724  0.9755
  175SAPI    C219857   4.784   0.448   6.597 -0.2507  0.4900 -0.5448
  175SAPI    HS19858   4.830   0.476   6.694  0.8044 -2.7307 -0.0019
  175SAPI   O2119859   4.771   0.307   6.582 -0.0607  0.8514  0.2509
  175SAPI   C2119860   4.856   0.230   6.640  0.1254 -1.3099  0.5861
  175SAPI   O2219861   4.947   0.263   6.714 -0.1020  0.0546  0.1555
  175SAPI   C2219862   4.816   0.086   6.596 -0.6763  0.2496  0.5968
  175SAPI   H2R19863   4.708   0.082   6.620 -0.1257 -1.4639  3.2112
  175SAPI   H2S19864   4.835   0.066   6.488 -2.2070 -1.2737  0.5668
  175SAPI    C319865   4.643   0.512   6.599 -0.0722 -0.1168 -0.4791
  175SAPI    HX19866   4.581   0.478   6.513 -2.5152  3.2397 -0.2900
  175SAPI    HY19867   4.652   0.618   6.567  0.6005 -0.7266 -2.4382
  175SAPI   O3119868   4.567   0.481   6.722 -0.4856  0.1198  0.5150
  175SAPI   C3119869   4.610   0.524   6.833  0.6066  0.3931  0.3864
  175SAPI   O3219870   4.697   0.608   6.854 -0.6194 -0.2737  0.0618
  175SAPI   C3219871   4.553   0.429   6.936  0.0458 -0.1103  0.2966
  175SAPI   H2X19872   4.603   0.330   6.925  0.0035  0.0679 -1.8596
  175SAPI   H2Y19873   4.444   0.413   6.923 -0.1369 -0.7399  2.2947
  175SAPI   C2319874   4.889  -0.014   6.687  0.2320 -0.2596 -0.4986
  175SAPI   H3R19875   4.870   0.015   6.793  2.7607  1.9771 -0.5375
  175SAPI   H3S19876   4.997   0.008   6.671 -0.0873  1.9200 -0.0632
  175SAPI   C2419877   4.851  -0.167   6.672 -0.4846  0.3763 -0.4512
  175SAPI   H4R19878   4.899  -0.226   6.754 -0.6263 -0.9309 -1.2672
  175SAPI   H4S19879   4.898  -0.209   6.580  0.5848  1.2400 -0.3250
  175SAPI   C2519880   4.703  -0.186   6.669  0.2193 -0.1036  0.1645
  175SAPI   H5R19881   4.665  -0.199   6.566  1.3350  2.5885 -0.6763
  175SAPI   C2619882   4.621  -0.178   6.773  0.3510  0.5264 -0.4553
  175SAPI   H6R19883   4.512  -0.174   6.758 -0.2234  0.1468  2.8332
  175SAPI   C2719884   4.659  -0.154   6.914  0.0144 -0.9706 -0.3135
  175SAPI   H7R19885   4.768  -0.136   6.927 -0.0624 -0.9898  0.3944
  175SAPI   H7S19886   4.634  -0.243   6.975  0.4152 -0.9158 -0.0680
  175SAPI   C2819887   4.582  -0.039   6.984 -0.6492 -0.5901  0.0005
  175SAPI   H8R19888   4.506   0.019   6.929  1.2306  0.1338 -1.9688
  175SAPI   C2919889   4.618   0.008   7.106  0.3825  0.0937  0.2192
  175SAPI   H9R19890   4.552   0.082   7.153 -0.0564 -0.9407  1.2713
  175SAPI  C21019891   4.725  -0.066   7.181  0.7679 -0.1064  0.3504
  175SAPI  H10R19892   4.816  -0.092   7.124  0.9085  0.3838  0.3518
  175SAPI  H10S19893   4.686  -0.159   7.229  0.5246  0.1992  0.7555
  175SAPI  C21119894   4.765   0.030   7.289  0.4681 -0.1996  0.9127
  175SAPI  H11R19895   4.840   0.105   7.260  0.9477 -0.8638  0.3864
  175SAPI  C21219896   4.748   0.012   7.419  0.0951 -0.0422 -0.2379
  175SAPI  H12R19897   4.786   0.087   7.490  0.2123 -1.3529  1.1483
  175SAPI  C21319898   4.666  -0.100   7.488 -0.1152 -0.5854 -0.2804
  175SAPI  H13R19899   4.738  -0.153   7.555  0.9694  1.4959  0.2976
  175SAPI  H13S19900   4.627  -0.174   7.415 -0.5907  1.7756 -2.5640
  175SAPI  C21419901   4.548  -0.040   7.572 -0.5290  0.5609 -0.3620
  175SAPI  H14R19902   4.480   0.030   7.521 -1.4060  1.7390  2.2704
  175SAPI  C21519903   4.534  -0.044   7.705 -0.1510  0.0015  0.3091
  175SAPI  H15R19904   4.444  -0.002   7.752 -0.3333 -0.5451  0.4563
  175SAPI  C21619905   4.617  -0.113   7.807 -0.5257 -0.0376  0.4274
  175SAPI  H16R19906   4.676  -0.035   7.860  3.8767 -2.2977 -0.5959
  175SAPI  H16S19907   4.691  -0.190   7.775 -0.1754  0.1778  0.7106
  175SAPI  C21719908   4.523  -0.175   7.912  0.3111  0.4388  0.4448
  175SAPI  H17R19909   4.461  -0.251   7.861 -0.1982 -0.0004  1.6827
  175SAPI  H17S19910   4.468  -0.091   7.959  0.5545  0.8179  0.0649
  175SAPI  C21819911   4.589  -0.228   8.031 -0.4445 -0.0883  0.4036
  175SAPI  H18R19912   4.653  -0.158   8.090  3.1436 -2.5789 -0.2025
  175SAPI  H18S19913   4.660  -0.308   7.999 -0.2348  0.6048 -0.9295
  175SAPI  C21919914   4.497  -0.297   8.137 -0.2981 -0.2807  0.1319
  175SAPI  H19R19915   4.393  -0.260   8.131 -0.9994 -1.8853  1.7511
  175SAPI  H19S19916   4.541  -0.272   8.236  1.3748 -1.5942 -0.2301
  175SAPI  C22019917   4.499  -0.450   8.135 -0.1726 -0.2949  0.3658
  175SAPI  H20R19918   4.601  -0.485   8.109 -0.0530 -0.1110  0.5761
  175SAPI  H20S19919   4.432  -0.487   8.055  0.8870 -0.2881 -0.5536
  175SAPI  H20T19920   4.484  -0.486   8.239  0.7908  0.4868  0.7938
  175SAPI   C3319921   4.575   0.481   7.078 -0.5802 -0.2081  0.5291
  175SAPI   H3X19922   4.495   0.557   7.089 -0.3126  0.2171 -0.3340
  175SAPI   H3Y19923   4.676   0.525   7.093 -0.6091 -0.6522  2.2997
  175SAPI   C3419924   4.551   0.382   7.189  0.2753 -0.2390  0.3334
  175SAPI   H4X19925   4.630   0.308   7.162  0.2599  0.5840 -2.1716
  175SAPI   H4Y19926   4.452   0.333   7.192 -0.9645  1.8813 -2.4419
  175SAPI   C3519927   4.591   0.447   7.325 -0.1463  0.6454 -0.0340
  175SAPI   H5X19928   4.517   0.529   7.338 -1.4109 -0.5361  0.3635
  175SAPI   H5Y19929   4.689   0.499   7.313  0.4720 -0.8263 -1.6751
  175SAPI   C3619930   4.583   0.350   7.447  0.1913 -0.0395 -0.0859
  175SAPI   H6X19931   4.682   0.302   7.465 -0.4380 -1.5748 -0.5795
  175SAPI   H6Y19932   4.511   0.267   7.436  0.0194 -0.1398  1.5000
  175SAPI   C3719933   4.562   0.437   7.575  0.3095  0.1850  0.0825
  175SAPI   H7X19934   4.469   0.497   7.560  0.5835  0.9055  1.1498
  175SAPI   H7Y19935   4.646   0.509   7.585  0.5306  0.2471 -1.7954
  175SAPI   C3819936   4.534   0.353   7.693 -0.0694  0.0655  0.0008
  175SAPI   H8X19937   4.617   0.286   7.724 -1.6990 -2.5136 -0.9117
  175SAPI   H8Y19938   4.437   0.301   7.677  0.1747 -0.3984  0.0301
  175SAPI   C3919939   4.498   0.431   7.821 -0.1237  0.0566 -0.0015
  175SAPI   H9X19940   4.432   0.519   7.804 -1.9737 -0.8577  1.8980
  175SAPI   H9Y19941   4.591   0.468   7.870  0.0387 -0.6030  0.2079
  175SAPI  C31019942   4.428   0.338   7.922  0.0678  0.0110  0.5127
  175SAPI  H10X19943   4.474   0.236   7.919  0.1193  0.0609 -0.8712
  175SAPI  H10Y19944   4.321   0.326   7.896 -0.1002  0.0296  1.1763
  175SAPI  C31119945   4.434   0.386   8.069 -0.3106  0.2996 -0.2332
  175SAPI  H11X19946   4.414   0.495   8.083  0.0759  0.1083  2.3382
  175SAPI  H11Y19947   4.542   0.386   8.094 -0.3231  3.4837  0.2936
  175SAPI  C31219948   4.377   0.297   8.183 -0.2152 -0.3402 -0.7030
  175SAPI  H12X19949   4.434   0.204   8.201  0.4121  0.1807  0.0845
  175SAPI  H12Y19950   4.280   0.268   8.137 -0.3304  1.0734 -1.4186
  175SAPI  C31319951   4.368   0.367   8.325  0.0887  0.2993 -0.0408
  175SAPI  H13X19952   4.311   0.299   8.392  0.1151  2.5694  2.4376
  175SAPI  H13Y19953   4.314   0.462   8.308 -2.0938 -1.0541 -1.2091
  175SAPI  C31419954   4.504   0.396   8.390  0.1692  0.0371 -0.3221
  175SAPI  H14X19955   4.557   0.488   8.358 -0.9330  1.5581  1.9960
  175SAPI  H14Y19956   4.575   0.316   8.361  0.6882 -0.2317  1.5339
  175SAPI  C31519957   4.485   0.407   8.546 -0.8451 -0.2441  0.5521
  175SAPI  H15X19958   4.453   0.313   8.595  0.3861 -0.1150  1.6628
  175SAPI  H15Y19959   4.402   0.474   8.576 -0.6304 -1.1925  3.5735
  175SAPI  C31619960   4.605   0.466   8.623  0.3079  0.8544  0.9552
  175SAPI  H16X19961   4.692   0.410   8.583 -0.2671 -0.4291  1.4567
  175SAPI  H16Y19962   4.596   0.427   8.726  2.7960  1.2137  1.3801
  175SAPI  C31719963   4.631   0.617   8.612  0.4428 -0.2480  0.4282
  175SAPI  H17X19964   4.551   0.668   8.670 -2.2231 -4.4738  0.9495
  175SAPI  H17Y19965   4.608   0.644   8.507 -0.8159  0.6552  0.9097
  175SAPI  C31819966   4.775   0.660   8.649 -1.0491 -0.3394  0.4082
  175SAPI  H18X19967   4.790   0.765   8.616  0.5988 -0.7524 -0.2616
  175SAPI  H18Y19968   4.851   0.606   8.589  0.9232 -1.3908  3.5590
  175SAPI  H18Z19969   4.798   0.635   8.755  0.1404 -1.6243 -0.1285
  176SAPI   C1219970   4.403   3.796   6.242 -0.5035  0.1337 -0.3719
  176SAPI    H219971   4.324   3.873   6.245 -1.1036 -0.3857 -1.7530
  176SAPI    O219972   4.340   3.667   6.266  0.1605  0.0203 -0.2282
  176SAPI   HO219973   4.346   3.643   6.359 -1.1307 -2.6827 -0.7541
  176SAPI   C1319974   4.442   3.807   6.093  0.0369  0.6241 -0.4464
  176SAPI    H319975   4.490   3.907   6.093  1.5389 -0.0776 -0.7534
  176SAPI    O319976   4.334   3.808   6.003 -0.1093 -0.5180 -0.0389
  176SAPI   HO319977   4.342   3.726   5.952 -2.4285 -0.0669 -1.2401
  176SAPI   C1419978   4.543   3.703   6.065 -0.6445  0.6325 -0.2695
  176SAPI    H419979   4.508   3.600   6.086  0.1895  0.9986  3.4331
  176SAPI    O419980   4.581   3.708   5.925 -0.3146  0.1651  0.8251
  176SAPI   HO419981   4.583   3.616   5.896 -0.0178 -0.0430  1.4966
  176SAPI   C1519982   4.662   3.715   6.161  0.3296  0.1403  0.1080
  176SAPI    H519983   4.699   3.819   6.143 -0.1295  0.5098  1.2175
  176SAPI    O519984   4.775   3.634   6.124 -0.6450 -0.1693 -0.6744
  176SAPI   HO519985   4.742   3.545   6.109  0.5256 -0.5287 -1.1698
  176SAPI   C1619986   4.626   3.707   6.305 -0.2299  1.0986 -0.4503
  176SAPI    H619987   4.581   3.608   6.327 -0.8890  1.4643 -0.1393
  176SAPI    O619988   4.743   3.714   6.395 -0.3844  0.0887  0.9363
  176SAPI   HO619989   4.718   3.685   6.483 -0.8868 -1.4071  0.3299
  176SAPI   C1119990   4.524   3.816   6.338 -0.0161  0.1297  0.6594
  176SAPI    H119991   4.567   3.918   6.333  1.5354 -0.5246  0.0466
  176SAPI     P19992   4.406   3.944   6.541  0.0449 -0.1543 -0.0428
  176SAPI   O1319993   4.299   3.898   6.634  0.4776 -0.1667  0.0894
  176SAPI   O1419994   4.359   4.038   6.433  0.1061 -1.0700 -0.6080
  176SAPI   O1219995   4.485   3.807   6.473  0.1505 -0.1576  0.3329
  176SAPI   O1119996   4.505   4.023   6.633  0.4105  0.3784  0.1740
  176SAPI    C119997   4.640   4.040   6.612 -0.8458 -0.6300  0.6050
  176SAPI    HA19998   4.690   3.948   6.576 -3.0847 -0.5715 -3.1916
  176SAPI    HB19999   4.663   4.111   6.529 -0.3175 -1.1511  0.2990
  176SAPI    C220000   4.707   4.085   6.746 -0.2014 -0.4491  0.3592
  176SAPI    HS20001   4.806   4.038   6.759  0.4263 -0.3230 -3.1710
  176SAPI   O2120002   4.624   4.054   6.857  0.1420  0.1338 -0.4171
  176SAPI   C2120003   4.626   3.925   6.885  0.3830 -0.9393 -0.8628
  176SAPI   O2220004   4.705   3.844   6.836 -0.5364 -0.3283 -0.5342
  176SAPI   C2220005   4.521   3.891   6.988  0.7400 -0.4258  0.1385
  176SAPI   H2R20006   4.447   3.973   6.998  0.8553 -0.4083  0.9084
  176SAPI   H2S20007   4.465   3.804   6.948 -0.4358 -0.2892  1.4029
  176SAPI    C320008   4.720   4.246   6.747  0.1595  0.1021  0.7287
  176SAPI    HX20009   4.619   4.292   6.737  0.6984  1.2079  0.1873
  176SAPI    HY20010   4.785   4.279   6.663 -0.3742  1.5721  0.8654
  176SAPI   O3120011   4.776   4.284   6.870 -0.0849 -0.1630  0.3634
  176SAPI   C3120012   4.780   4.419   6.894  0.6051 -0.2363 -0.2435
  176SAPI   O3220013   4.728   4.507   6.823 -1.0223  0.5474 -0.2715
  176SAPI   C3220014   4.841   4.442   7.023  0.2242 -0.1085 -0.2675
  176SAPI   H2X20015   4.891   4.541   7.019 -1.4110  0.8021  0.7225
  176SAPI   H2Y20016   4.917   4.362   7.041  0.0128 -0.6440 -1.5999
  176SAPI   C2320017   4.571   3.852   7.133 -0.1186  0.0425 -0.7907
  176SAPI   H3R20018   4.642   3.767   7.128 -0.0722 -0.0206  0.6722
  176SAPI   H3S20019   4.479   3.825   7.189 -0.2328  0.2501 -0.8774
  176SAPI   C2420020   4.645   3.968   7.201  0.0393  0.1411  0.4140
  176SAPI   H4R20021   4.737   3.990   7.141  3.1389 -2.3193  3.8217
  176SAPI   H4S20022   4.690   3.927   7.294 -0.3030  1.8403  1.3576
  176SAPI   C2520023   4.577   4.103   7.223 -0.3539 -0.5396  0.6475
  176SAPI   H5R20024   4.585   4.158   7.128 -0.2183  0.8654  1.4561
  176SAPI   C2620025   4.518   4.156   7.331  0.1769  0.2354  0.0873
  176SAPI   H6R20026   4.488   4.261   7.329 -0.2300  0.1299  0.5174
  176SAPI   C2720027   4.503   4.088   7.467 -0.4238 -0.0140 -0.1375
  176SAPI   H7R20028   4.522   3.979   7.457 -4.7856 -0.9203 -0.6487
  176SAPI   H7S20029   4.398   4.101   7.503 -0.6576 -0.4734 -0.6374
  176SAPI   C2820030   4.610   4.146   7.559 -0.3286 -0.3981  0.3134
  176SAPI   H8R20031   4.709   4.147   7.511 -0.8827 -0.6193 -0.8854
  176SAPI   C2920032   4.616   4.184   7.685  0.2259 -0.0472  0.1445
  176SAPI   H9R20033   4.710   4.223   7.728 -0.2779 -1.6378  2.9754
  176SAPI  C21020034   4.496   4.182   7.783  0.6222 -0.1112 -0.5327
  176SAPI  H10R20035   4.405   4.202   7.722 -0.0721  0.8381  0.7755
  176SAPI  H10S20036   4.508   4.274   7.843 -3.8471 -0.1166  0.7485
  176SAPI  C21120037   4.468   4.057   7.858 -0.0115  1.1161 -0.1048
  176SAPI  H11R20038   4.418   3.983   7.793  0.7901  1.1025 -0.7210
  176SAPI  C21220039   4.498   4.033   7.984  0.3689 -0.7984 -0.1883
  176SAPI  H12R20040   4.464   3.938   8.028  0.6033 -1.5615 -1.6135
  176SAPI  C21320041   4.554   4.129   8.087 -0.6269  0.7754  0.6014
  176SAPI  H13R20042   4.484   4.214   8.105 -0.3854  1.1929 -0.3240
  176SAPI  H13S20043   4.652   4.170   8.054 -0.4154 -0.7526 -0.8097
  176SAPI  C21420044   4.574   4.060   8.223  0.4488  0.4603 -0.1732
  176SAPI  H14R20045   4.571   3.951   8.212 -0.9946  0.5329 -0.7482
  176SAPI  C21520046   4.607   4.123   8.339  0.9738 -0.4594 -0.6772
  176SAPI  H15R20047   4.629   4.059   8.425  0.9422 -0.8789 -0.9817
  176SAPI  C21620048   4.628   4.270   8.358  0.2715  0.6577  0.4116
  176SAPI  H16R20049   4.565   4.328   8.288  1.2894  3.0075  1.3173
  176SAPI  H16S20050   4.727   4.303   8.319 -1.4333  1.9254 -3.2162
  176SAPI  C21720051   4.594   4.325   8.499 -0.4405 -0.4589 -0.1686
  176SAPI  H17R20052   4.593   4.436   8.499  1.6124 -0.3963 -0.2502
  176SAPI  H17S20053   4.668   4.282   8.570 -0.3557 -0.0257  0.0048
  176SAPI  C21820054   4.453   4.299   8.554 -0.6152  0.5273  0.1750
  176SAPI  H18R20055   4.454   4.340   8.658 -0.0387  2.0013 -0.3849
  176SAPI  H18S20056   4.443   4.189   8.558  1.4410  0.2598 -0.6163
  176SAPI  C21920057   4.337   4.348   8.468 -0.4378  0.3551  0.3051
  176SAPI  H19R20058   4.331   4.300   8.368 -1.5318  0.6098  0.2369
  176SAPI  H19S20059   4.349   4.459   8.461 -0.6285  0.6267  3.1564
  176SAPI  C22020060   4.207   4.307   8.543  0.2138  0.4164 -0.2323
  176SAPI  H20R20061   4.183   4.198   8.542 -2.6689  0.9214  1.7527
  176SAPI  H20S20062   4.122   4.362   8.499  1.1683  1.7282 -0.4886
  176SAPI  H20T20063   4.219   4.323   8.652 -0.5910  0.3605 -0.1271
  176SAPI   C3320064   4.737   4.454   7.137 -0.3713 -0.2915 -0.3098
  176SAPI   H3X20065   4.668   4.367   7.125  2.5169 -2.5811 -1.6869
  176SAPI   H3Y20066   4.682   4.550   7.135  0.3130  0.1971  2.0085
  176SAPI   C3420067   4.802   4.433   7.272 -0.2357 -0.3365 -0.0891
  176SAPI   H4X20068   4.896   4.377   7.255 -0.3729 -1.2939  1.9991
  176SAPI   H4Y20069   4.727   4.382   7.336 -0.9992  1.8593  0.8605
  176SAPI   C3520070   4.842   4.562   7.348 -0.1009  0.3291  0.5209
  176SAPI   H5X20071   4.751   4.626   7.346 -0.3058  0.0523 -1.6891
  176SAPI   H5Y20072   4.928   4.613   7.301  2.0567 -3.6444 -0.2632
  176SAPI   C3620073   4.883   4.533   7.493  0.3028 -0.4693  0.4015
  176SAPI   H6X20074   4.950   4.445   7.487  0.3286 -0.5384  1.5054
  176SAPI   H6Y20075   4.790   4.519   7.553 -0.5763  1.5001 -0.4055
  176SAPI   C3720076   4.962   4.647   7.559 -0.3734  0.2149 -0.8636
  176SAPI   H7X20077   4.898   4.737   7.546 -3.0670 -1.1795  1.4705
  176SAPI   H7Y20078   5.061   4.641   7.509 -0.0807  0.1852 -0.2967
  176SAPI   C3820079   4.978   4.625   7.709 -0.7935  0.0370 -0.3249
  176SAPI   H8X20080   5.027   4.526   7.727 -0.7321  0.2729  0.8854
  176SAPI   H8Y20081   4.876   4.637   7.753  0.3592  0.6195  2.4279
  176SAPI   C3920082   5.067   4.734   7.774  0.2222 -0.6619  0.1059
  176SAPI   H9X20083   5.041   4.834   7.732 -2.8197 -1.1235  0.6474
  176SAPI   H9Y20084   5.171   4.700   7.753  0.7606  1.2782 -0.5532
  176SAPI  C31020085   5.045   4.741   7.923 -0.3316 -0.8243  0.5916
  176SAPI  H10X20086   5.047   4.643   7.975  1.3885 -0.8697  0.4788
  176SAPI  H10Y20087   4.946   4.786   7.947  1.2555  1.2039  4.0925
  176SAPI  C31120088   5.138   4.840   7.991  0.6942 -0.2416  0.3842
  176SAPI  H11X20089   5.102   4.883   8.087  0.2400 -0.8233  0.4782
  176SAPI  H11Y20090   5.140   4.930   7.925 -0.6750 -0.8057 -0.4778
  176SAPI  C31220091   5.275   4.781   8.005  1.1255 -0.0204  0.3463
  176SAPI  H12X20092   5.313   4.731   7.913 -0.0453 -1.6306  0.6984
  176SAPI  H12Y20093   5.258   4.715   8.093 -2.1844  0.0530 -0.1471
  176SAPI  C31320094   5.376   4.880   8.044 -0.4033 -0.1479  0.1508
  176SAPI  H13X20095   5.379   4.971   7.979  0.7748 -1.4396 -1.7116
  176SAPI  H13Y20096   5.476   4.837   8.026 -0.5102 -0.5323  0.4881
  176SAPI  C31420097   5.392   4.913   8.191  0.8802  0.2294 -0.2734
  176SAPI  H14X20098   5.301   4.968   8.223 -0.5597 -0.1085 -3.3630
  176SAPI  H14Y20099   5.476   4.983   8.208  0.3511  1.5743 -2.7729
  176SAPI  C31520100   5.430   4.788   8.278  0.1800  0.5648 -0.7090
  176SAPI  H15X20101   5.502   4.719   8.230 -0.8701 -0.0172 -1.4812
  176SAPI  H15Y20102   5.333   4.735   8.282 -0.7665  2.0507 -2.6096
  176SAPI  C31620103   5.491   4.838   8.413 -0.2401  0.7606 -0.0874
  176SAPI  H16X20104   5.402   4.880   8.465 -2.8987 -0.5900 -3.1661
  176SAPI  H16Y20105   5.573   4.910   8.395  0.3269  0.0685 -0.3333
  176SAPI  C31720106   5.552   4.731   8.508  0.2414  0.5354 -0.2501
  176SAPI  H17X20107   5.562   4.783   8.606  0.4839 -1.4444  0.8279
  176SAPI  H17Y20108   5.652   4.693   8.479 -0.5836  0.1155 -2.7255
  176SAPI  C31820109   5.468   4.602   8.527 -0.2830  0.5080 -0.2809
  176SAPI  H18X20110   5.358   4.614   8.526 -0.2435  0.8868 -0.0565
  176SAPI  H18Y20111   5.486   4.559   8.628 -1.5420  0.0515 -0.2350
  176SAPI  H18Z20112   5.498   4.528   8.449  0.1081  0.4794 -0.1051
  177SLPC     N20113   1.379   1.278  11.115 -0.7128  0.2768 -0.1113
  177SLPC   C1320114   1.270   1.377  11.144  0.2261  0.2608  0.0969
  177SLPC  H13A20115   1.232   1.354  11.242  0.5864  2.8198  0.9084
  177SLPC  H13B20116   1.305   1.479  11.149 -0.5677  0.4962  1.6586
  177SLPC  H13C20117   1.184   1.366  11.080  0.3250  1.3084 -0.2341
  177SLPC   C1420118   1.314   1.146  11.154  0.2368 -0.6942 -0.0652
  177SLPC  H14A20119   1.245   1.121  11.075  1.1805 -1.6691 -0.6204
  177SLPC  H14B20120   1.383   1.063  11.161  2.1254  0.7080 -1.0504
  177SLPC  H14C20121   1.271   1.153  11.253 -0.0168  3.9608 -0.2758
  177SLPC   C1520122   1.491   1.291  11.213 -0.1039 -0.7139 -0.6479
  177SLPC  H15A20123   1.446   1.303  11.311 -1.1023 -0.6528 -1.0972
  177SLPC  H15B20124   1.553   1.203  11.208  0.9877 -0.0119  0.0832
  177SLPC  H15C20125   1.548   1.378  11.187  0.4983 -1.1094 -0.6554
  177SLPC   C1220126   1.423   1.283  10.969  0.2954 -0.2111 -0.8799
  177SLPC  H12A20127   1.438   1.387  10.946  0.3359  0.4195  1.6999
  177SLPC  H12B20128   1.350   1.245  10.899  1.4237 -0.1998 -2.1138
  177SLPC   C1120129   1.545   1.185  10.941 -0.3249 -0.3313  0.5673
  177SLPC  H11A20130   1.562   1.188  10.831  1.6373  0.8223  0.8626
  177SLPC  H11B20131   1.511   1.084  10.971 -1.0376 -0.1419  0.4228
  177SLPC     P20132   1.762   1.335  10.969  0.0680 -0.0290  0.2210
  177SLPC   O1320133   1.708   1.452  11.043 -0.1958 -0.2784 -0.6198
  177SLPC   O1420134   1.901   1.298  11.013  0.1336  0.8946 -0.1977
  177SLPC   O1220135   1.671   1.212  11.002  0.6251  0.3063  0.8161
  177SLPC   O1120136   1.748   1.358  10.813 -0.0267  0.3766  0.1677
  177SLPC    C120137   1.859   1.326  10.733 -0.4354 -0.6531  0.3243
  177SLPC    HA20138   1.915   1.236  10.767 -1.1928 -0.9195  0.8967
  177SLPC    HB20139   1.813   1.305  10.635  0.2530 -0.6666 -0.0005
  177SLPC    C220140   1.965   1.438  10.730  0.1654 -0.3960  0.7341
  177SLPC    HS20141   2.000   1.447  10.835  0.2051 -0.1950  0.7035
  177SLPC   O2120142   1.903   1.571  10.691 -0.5952 -0.9461 -1.5291
  177SLPC   C2120143   1.985   1.676  10.687  0.1558 -0.5952 -0.1293
  177SLPC   O2220144   2.100   1.677  10.723  0.7454 -0.3871  0.8302
  177SLPC   C2220145   1.911   1.799  10.642  0.2163 -0.1875 -0.2602
  177SLPC   H2R20146   1.833   1.814  10.721  1.1061 -1.2072  0.8447
  177SLPC   H2S20147   1.971   1.892  10.644 -0.5700  0.3664 -1.2573
  177SLPC    C320148   2.095   1.397  10.648  0.7432 -0.0722  0.1716
  177SLPC    HX20149   2.128   1.299  10.689  2.3888 -0.3376 -1.6650
  177SLPC    HY20150   2.189   1.455  10.664  1.4958 -1.3496  0.5223
  177SLPC   O3120151   2.071   1.369  10.512  0.7604  0.0571  0.2521
  177SLPC   C3120152   2.173   1.344  10.433 -0.3768  0.7622  0.4016
  177SLPC   O3220153   2.292   1.343  10.469 -0.6213 -0.2728 -0.3239
  177SLPC   C3220154   2.128   1.333  10.282 -0.4174 -0.3437 -0.1131
  177SLPC   H2X20155   2.074   1.237  10.270 -0.6667 -0.6578  2.7566
  177SLPC   H2Y20156   2.228   1.327  10.233  0.0772  0.1496  0.8099
  177SLPC   C2320157   1.877   1.773  10.496  0.4293 -0.0207 -0.1204
  177SLPC   H3R20158   1.791   1.843  10.483 -0.2693 -0.7572  0.4232
  177SLPC   H3S20159   1.836   1.672  10.476 -0.4418  0.4545 -0.8435
  177SLPC   C2420160   1.996   1.791  10.405 -0.0126 -0.1802 -0.3368
  177SLPC   H4R20161   2.080   1.724  10.432 -1.1687 -0.7041  2.3350
  177SLPC   H4S20162   2.033   1.894  10.421  1.1121 -0.3025 -1.9647
  177SLPC   C2520163   1.946   1.779  10.266  0.2305  0.2424  0.3147
  177SLPC   H5R20164   1.853   1.718  10.261  1.5093 -1.8977  1.1237
  177SLPC   H5S20165   2.013   1.722  10.198  0.5836  0.5804  0.3805
  177SLPC   C2620166   1.916   1.917  10.193 -0.3022  1.2651 -0.4469
  177SLPC   H6R20167   2.012   1.974  10.194 -1.2264  2.8965 -1.0773
  177SLPC   H6S20168   1.845   1.977  10.254 -1.2278 -0.0806 -0.1716
  177SLPC   C2720169   1.859   1.906  10.054 -0.4165 -0.2084  0.6453
  177SLPC   H7R20170   1.775   1.833  10.043 -1.5514  1.0957  0.2824
  177SLPC   H7S20171   1.937   1.867   9.985 -0.5108 -2.6758  1.8315
  177SLPC   C2820172   1.816   2.046  10.008 -0.0842 -0.3565 -0.6035
  177SLPC   H8R20173   1.724   2.070  10.065 -0.9295 -2.2622 -1.0754
  177SLPC   H8S20174   1.777   2.046   9.904 -0.3104 -1.8700 -0.5423
  177SLPC   C2920175   1.924   2.152  10.029  0.0369  0.6806  0.4106
  177SLPC   H9R20176   1.962   2.176  10.130 -0.1379 -0.1672  0.6862
  177SLPC  C21020177   1.991   2.215   9.927  0.0708  0.8137  0.2221
  177SLPC  H10R20178   2.073   2.279   9.963  0.8770  0.4805 -0.9451
  177SLPC  C21120179   1.963   2.204   9.777 -0.4184 -0.0213  0.4604
  177SLPC  H11R20180   1.956   2.095   9.758  1.1170  0.3208 -2.6350
  177SLPC  H11S20181   1.862   2.242   9.749 -0.2001  2.2199  2.4794
  177SLPC  C21220182   2.050   2.275   9.684  0.4403 -0.7836  0.2333
  177SLPC  H12R20183   2.120   2.350   9.724 -1.2347 -0.3606  2.6202
  177SLPC  C21320184   2.047   2.268   9.547  0.5862 -0.2283  0.0241
  177SLPC  H13R20185   2.110   2.329   9.481  2.2309 -0.8574  0.9744
  177SLPC  C21420186   1.951   2.183   9.474 -0.3478  0.5071 -1.1350
  177SLPC  H14R20187   1.880   2.253   9.424 -0.8844  1.1375  0.4544
  177SLPC  H14S20188   1.900   2.113   9.543 -0.7603  0.6549 -1.2855
  177SLPC  C21520189   2.007   2.099   9.364  0.3417  0.3992  0.4767
  177SLPC  H15R20190   2.058   2.163   9.289 -0.6270 -0.7347 -1.2248
  177SLPC  H15S20191   1.922   2.043   9.319  0.4359 -0.2317  1.0580
  177SLPC  C21620192   2.104   1.988   9.398  0.2998 -0.1358 -0.5208
  177SLPC  H16R20193   2.057   1.919   9.471  1.0323  0.2170  0.3072
  177SLPC  H16S20194   2.191   2.033   9.450  0.9304 -0.2906 -1.4277
  177SLPC  C21720195   2.141   1.909   9.271 -0.4609 -0.0694 -0.9524
  177SLPC  H17R20196   2.047   1.861   9.236 -1.4319  1.5648 -0.6763
  177SLPC  H17S20197   2.204   1.829   9.317 -0.6503  1.3802  2.1112
  177SLPC  C21820198   2.218   1.981   9.170  0.0480  0.3724 -0.2432
  177SLPC  H18R20199   2.245   1.908   9.091  1.1036  0.1289  0.3302
  177SLPC  H18S20200   2.301   2.032   9.224  0.0451  0.3191 -0.1893
  177SLPC  H18T20201   2.158   2.062   9.122 -0.9468 -1.6280 -2.5794
  177SLPC   C3320202   2.052   1.454  10.230  0.5565 -0.5523 -0.0029
  177SLPC   H3X20203   2.125   1.538  10.233 -0.0282 -0.0384  0.0563
  177SLPC   H3Y20204   1.967   1.484  10.294  0.8693  0.5010 -0.0627
  177SLPC   C3420205   2.022   1.429  10.081  0.0829 -0.1547 -0.0631
  177SLPC   H4X20206   1.926   1.478  10.056  0.9752  1.9462  0.3712
  177SLPC   H4Y20207   2.010   1.320  10.068 -1.6411 -0.1257  1.0007
  177SLPC   C3520208   2.129   1.499   9.988  0.6143  0.5243  0.1271
  177SLPC   H5X20209   2.227   1.455  10.016 -0.3105 -0.9436  1.2579
  177SLPC   H5Y20210   2.133   1.604  10.022 -0.4852  0.5127  0.3533
  177SLPC   C3620211   2.091   1.484   9.839  0.3440 -0.0767 -0.3809
  177SLPC   H6X20212   1.995   1.538   9.826  0.8844  1.1497  0.5140
  177SLPC   H6Y20213   2.078   1.376   9.816 -0.4313 -0.3969  1.3677
  177SLPC   C3720214   2.203   1.545   9.752 -0.1663  0.3643  0.8907
  177SLPC   H7X20215   2.302   1.505   9.784 -1.1625 -3.2513 -0.1446
  177SLPC   H7Y20216   2.212   1.653   9.778 -0.3783  0.2386  1.4814
  177SLPC   C3820217   2.173   1.523   9.600 -0.7945 -0.0947  0.0484
  177SLPC   H8X20218   2.065   1.535   9.579 -0.3921 -1.7047 -3.6443
  177SLPC   H8Y20219   2.210   1.420   9.583  0.0470 -0.0408  1.3653
  177SLPC   C3920220   2.237   1.622   9.504 -0.4967  0.3326 -0.4125
  177SLPC   H9X20221   2.199   1.723   9.533  1.3947  0.5737  1.4500
  177SLPC   H9Y20222   2.218   1.602   9.396 -0.6978  0.0867 -0.3313
  177SLPC  C31020223   2.392   1.620   9.507  0.8008  0.0951  0.4163
  177SLPC  H10X20224   2.425   1.517   9.478  0.1989  0.6567 -2.6012
  177SLPC  H10Y20225   2.428   1.648   9.608  1.2636 -0.0136  0.2859
  177SLPC  C31120226   2.452   1.731   9.426  0.4197 -0.1721  0.3371
  177SLPC  H11X20227   2.435   1.834   9.466  1.8435  0.3862 -0.4023
  177SLPC  H11Y20228   2.402   1.735   9.327  1.4349  0.6100 -0.1753
  177SLPC  C31220229   2.597   1.709   9.401 -0.2276 -0.3495 -0.5067
  177SLPC  H12X20230   2.620   1.607   9.364  1.6640 -0.6703  1.3697
  177SLPC  H12Y20231   2.654   1.704   9.496 -0.4760 -1.7794 -0.4097
  177SLPC  C31320232   2.662   1.811   9.309 -0.2160  0.6519 -0.9909
  177SLPC  H13X20233   2.662   1.913   9.354  2.5428 -0.1772  1.1394
  177SLPC  H13Y20234   2.614   1.805   9.209  1.7199 -1.1126 -1.8689
  177SLPC  C31420235   2.815   1.790   9.308  0.9061  0.5289  0.0398
  177SLPC  H14X20236   2.834   1.692   9.259  0.6856 -0.1566  1.2926
  177SLPC  H14Y20237   2.849   1.777   9.413 -4.6031 -0.8815  2.0061
  177SLPC  C31520238   2.889   1.900   9.231  0.2644 -0.1484  1.0095
  177SLPC  H15X20239   2.998   1.910   9.250  0.4539  1.1848 -0.5776
  177SLPC  H15Y20240   2.838   1.996   9.255 -0.0823 -0.1661  0.3871
  177SLPC  C31620241   2.875   1.882   9.083  0.3872 -0.0890 -0.0224
  177SLPC  H16X20242   2.910   1.974   9.032  1.4359 -0.9299 -0.8624
  177SLPC  H16Y20243   2.769   1.866   9.052  0.7913 -0.2107 -1.4221
  177SLPC  C31720244   2.964   1.774   9.013  0.3538 -0.2926  0.6837
  177SLPC  H17X20245   2.959   1.668   9.046  2.2439 -1.2629 -1.7904
  177SLPC  H17Y20246   3.067   1.810   9.032  0.0566  1.0126 -0.0259
  177SLPC  C31820247   2.946   1.774   8.856 -0.3255 -0.2673  0.2824
  177SLPC  H18X20248   2.839   1.780   8.824 -0.3025 -0.7904  0.0986
  177SLPC  H18Y20249   2.992   1.680   8.819  1.0391  1.1185 -1.7421
  177SLPC  H18Z20250   2.993   1.861   8.805 -1.1750  1.4009  2.1841
  178SLPC     N20251   4.891   2.978  11.059  0.3070 -0.8484 -0.1814
  178SLPC   C1320252   4.779   2.911  11.124 -0.8497 -0.1278  0.2943
  178SLPC  H13A20253   4.777   2.816  11.071  2.0362  1.6802 -3.5444
  178SLPC  H13B20254   4.784   2.895  11.231 -2.5348 -4.1149 -0.0325
  178SLPC  H13C20255   4.687   2.965  11.105  0.6222  1.7299 -2.0442
  178SLPC   C1420256   5.022   2.913  11.097 -0.0002  0.3322  0.3223
  178SLPC  H14A20257   5.040   2.822  11.044 -1.0013 -0.7357  1.7206
  178SLPC  H14B20258   5.096   2.986  11.070 -1.1710  0.7205 -2.1205
  178SLPC  H14C20259   5.020   2.892  11.203 -0.7987  1.0708  0.4698
  178SLPC   C1520260   4.892   3.114  11.115 -0.3208  0.4978 -0.0561
  178SLPC  H15A20261   4.926   3.119  11.218 -0.1645 -1.9572  0.0664
  178SLPC  H15B20262   4.956   3.182  11.060  0.4959 -0.6138 -0.5130
  178SLPC  H15C20263   4.792   3.155  11.117 -0.7892 -0.5062 -1.3282
  178SLPC   C1220264   4.880   2.974  10.909 -0.0778 -0.8399 -0.3142
  178SLPC  H12A20265   4.803   3.041  10.874  2.3360  1.1593 -2.2047
  178SLPC  H12B20266   4.848   2.874  10.884  0.4932 -1.1275  0.0858
  178SLPC   C1120267   5.007   2.990  10.827 -1.0329 -0.2015  0.0436
  178SLPC  H11A20268   4.984   2.980  10.719 -1.9217 -0.9292  0.2868
  178SLPC  H11B20269   5.070   2.905  10.860 -3.2285 -1.1307  2.1672
  178SLPC     P20270   5.147   3.208  10.752  0.2715  0.4691  0.2157
  178SLPC   O1320271   5.129   3.347  10.796 -0.2979 -0.3060  0.0259
  178SLPC   O1420272   5.286   3.166  10.740 -0.5565 -0.4446 -0.0189
  178SLPC   O1220273   5.080   3.116  10.854  0.3411  0.9143 -1.0302
  178SLPC   O1120274   5.082   3.176  10.616 -0.4605 -0.6496 -0.2986
  178SLPC    C120275   4.977   3.250  10.553 -0.3126  0.4495  0.3218
  178SLPC    HA20276   4.997   3.359  10.565  1.2065  0.2984 -0.5792
  178SLPC    HB20277   4.980   3.242  10.442  0.6608  0.9308  0.3007
  178SLPC    C220278   4.837   3.209  10.599 -0.0109 -0.4525 -0.2331
  178SLPC    HS20279   4.845   3.196  10.709 -0.7366 -1.8868 -0.3257
  178SLPC   O2120280   4.797   3.085  10.540  0.4424  0.2190 -0.4280
  178SLPC   C2120281   4.711   3.009  10.613  0.0823 -0.2934  0.4048
  178SLPC   O2220282   4.658   3.037  10.719  0.9587 -0.6121 -0.4796
  178SLPC   C2220283   4.696   2.875  10.550  0.0734 -0.6556  0.4271
  178SLPC   H2R20284   4.796   2.827  10.545  2.2086  3.2366  1.2268
  178SLPC   H2S20285   4.624   2.819  10.612  0.2136  0.1172  1.3091
  178SLPC    C320286   4.725   3.316  10.563 -0.3677 -0.3729 -0.6172
  178SLPC    HX20287   4.756   3.411  10.613 -0.1276  0.3404 -2.0709
  178SLPC    HY20288   4.636   3.277  10.617  2.0579 -2.1347  2.4988
  178SLPC   O3120289   4.724   3.346  10.422  0.2163  0.2260 -0.1746
  178SLPC   C3120290   4.653   3.254  10.358 -0.1078 -0.4959 -0.2386
  178SLPC   O3220291   4.562   3.193  10.407  0.2515  0.6530 -0.0658
  178SLPC   C3220292   4.707   3.250  10.216  0.4774 -0.4941  1.5156
  178SLPC   H2X20293   4.798   3.186  10.223 -1.1720 -3.0041  1.1912
  178SLPC   H2Y20294   4.751   3.348  10.187 -1.3591 -0.2704 -0.8746
  178SLPC   C2320295   4.651   2.886  10.407 -0.6773 -0.5865 -0.3473
  178SLPC   H3R20296   4.704   2.968  10.354  0.6107 -2.0291 -1.3795
  178SLPC   H3S20297   4.549   2.929  10.408 -0.6267 -0.4560 -0.5462
  178SLPC   C2420298   4.651   2.752  10.332 -0.6141 -0.0395 -0.0747
  178SLPC   H4R20299   4.614   2.663  10.388 -1.4518 -0.3184 -1.0502
  178SLPC   H4S20300   4.757   2.744  10.298 -0.5039 -1.0526  0.4673
  178SLPC   C2520301   4.578   2.746  10.199  0.2722 -0.3138 -0.5400
  178SLPC   H5R20302   4.608   2.826  10.128 -0.2616  1.5697  1.2580
  178SLPC   H5S20303   4.471   2.771  10.217  0.0960  0.4090 -2.3540
  178SLPC   C2620304   4.577   2.612  10.128 -0.1388 -0.2949  0.3262
  178SLPC   H6R20305   4.684   2.584  10.136  1.0502  3.4324 -0.3497
  178SLPC   H6S20306   4.559   2.634  10.020  3.5312  0.7671 -0.2052
  178SLPC   C2720307   4.486   2.507  10.187 -0.1879  0.1310 -0.4708
  178SLPC   H7R20308   4.483   2.546  10.291 -0.9252  0.0231 -0.4513
  178SLPC   H7S20309   4.523   2.402  10.183 -2.0508 -0.6136  0.7391
  178SLPC   C2820310   4.343   2.500  10.130  0.1990 -0.5256  0.1716
  178SLPC   H8R20311   4.296   2.598  10.152  0.3110 -0.2759 -0.6543
  178SLPC   H8S20312   4.290   2.425  10.192  0.7383 -1.5656 -0.5834
  178SLPC   C2920313   4.346   2.467   9.979  0.4398  0.2842 -0.0937
  178SLPC   H9R20314   4.397   2.373   9.951 -2.0981 -0.7722 -1.4711
  178SLPC  C21020315   4.272   2.525   9.874  0.2726 -0.3545  0.2628
  178SLPC  H10R20316   4.278   2.489   9.770  0.0348 -1.6897  0.6896
  178SLPC  C21120317   4.166   2.631   9.895  0.0520 -0.2929 -0.3489
  178SLPC  H11R20318   4.211   2.732   9.885  0.3829 -0.4677 -0.7004
  178SLPC  H11S20319   4.134   2.618  10.000  0.0558 -1.0067 -0.4267
  178SLPC  C21220320   4.055   2.614   9.794  0.6042 -0.5971 -0.5810
  178SLPC  H12R20321   3.965   2.569   9.838  0.5994  0.8597  1.0263
  178SLPC  C21320322   4.023   2.673   9.675  0.0521 -0.0681 -0.0003
  178SLPC  H13R20323   3.925   2.646   9.634 -0.0924 -0.6382  0.6937
  178SLPC  C21420324   4.101   2.781   9.595  0.2696 -0.0870  0.4591
  178SLPC  H14R20325   4.191   2.821   9.647 -0.5333  0.6616  1.2991
  178SLPC  H14S20326   4.038   2.872   9.607  1.1638  0.4928  0.9276
  178SLPC  C21520327   4.132   2.756   9.445 -0.0903 -0.2359  0.0580
  178SLPC  H15R20328   4.192   2.833   9.392 -1.6195  0.7171 -0.3366
  178SLPC  H15S20329   4.031   2.761   9.400  0.2463  1.6266 -0.5527
  178SLPC  C21620330   4.197   2.621   9.422 -0.4823  0.8764 -0.8539
  178SLPC  H16R20331   4.167   2.604   9.317 -4.7341 -1.2635  0.4549
  178SLPC  H16S20332   4.142   2.536   9.467  1.4357  0.4638  0.8904
  178SLPC  C21720333   4.346   2.619   9.452  0.2136 -0.3001 -0.4533
  178SLPC  H17R20334   4.372   2.511   9.443  0.6111 -0.2175 -0.3196
  178SLPC  H17S20335   4.357   2.636   9.561 -0.8130  0.4006 -0.4426
  178SLPC  C21820336   4.438   2.714   9.373 -0.1455  0.4426 -0.1987
  178SLPC  H18R20337   4.541   2.673   9.370 -0.2443  0.2399 -1.8965
  178SLPC  H18S20338   4.453   2.811   9.425 -0.2568  0.0185  0.6431
  178SLPC  H18T20339   4.414   2.731   9.265  1.7452 -1.3983 -0.9806
  178SLPC   C3320340   4.611   3.194  10.105 -0.5262 -0.2575 -0.1757
  178SLPC   H3X20341   4.526   3.262  10.079 -2.3819 -3.0191 -1.7887
  178SLPC   H3Y20342   4.559   3.110  10.155  1.7191 -1.2558  0.6076
  178SLPC   C3420343   4.696   3.141   9.991 -0.8528 -0.2746 -0.1711
  178SLPC   H4X20344   4.622   3.108   9.916 -1.3701  2.0701 -0.7710
  178SLPC   H4Y20345   4.760   3.055  10.021  1.2806  0.6005 -1.9042
  178SLPC   C3520346   4.799   3.244   9.937  0.3146 -0.4933 -0.1088
  178SLPC   H5X20347   4.876   3.278  10.010  0.9577  0.7618 -1.3190
  178SLPC   H5Y20348   4.736   3.331   9.907  1.6762  0.4041 -0.4854
  178SLPC   C3620349   4.874   3.204   9.806  0.5916  0.0232 -0.0670
  178SLPC   H6X20350   4.928   3.109   9.824  2.8612  0.7724 -2.2882
  178SLPC   H6Y20351   4.944   3.285   9.778  1.5573 -1.0160 -0.7162
  178SLPC   C3720352   4.785   3.161   9.691  0.3250  0.2623  0.2737
  178SLPC   H7X20353   4.719   3.245   9.659  1.2202  1.1209  0.6263
  178SLPC   H7Y20354   4.722   3.072   9.714  2.0515 -1.0744  0.0498
  178SLPC   C3820355   4.874   3.112   9.576 -0.6159  0.2940  0.2170
  178SLPC   H8X20356   4.949   3.046   9.625 -0.4332  0.0793 -0.3433
  178SLPC   H8Y20357   4.913   3.206   9.531  1.4434  0.2029  1.6579
  178SLPC   C3920358   4.795   3.033   9.474  0.3530 -0.5214  0.1671
  178SLPC   H9X20359   4.717   2.971   9.522 -0.8376  1.0628  0.3508
  178SLPC   H9Y20360   4.865   2.965   9.421 -1.0321 -1.1134 -0.9637
  178SLPC  C31020361   4.727   3.126   9.365  0.2565 -0.1410 -0.4413
  178SLPC  H10X20362   4.805   3.143   9.287  0.0278 -1.8535 -1.0879
  178SLPC  H10Y20363   4.688   3.211   9.425  0.6657 -1.1021  1.2421
  178SLPC  C31120364   4.608   3.057   9.293 -0.5202 -0.1254  1.0607
  178SLPC  H11X20365   4.542   3.013   9.371  0.3839 -1.7288  0.9808
  178SLPC  H11Y20366   4.653   2.978   9.228  0.5358  1.8616 -0.7539
  178SLPC  C31220367   4.528   3.148   9.193  0.1603 -0.1257 -0.2953
  178SLPC  H12X20368   4.600   3.226   9.163  0.0009  0.7618  1.5480
  178SLPC  H12Y20369   4.444   3.202   9.242 -0.7496 -1.6948 -0.0506
  178SLPC  C31320370   4.477   3.064   9.074 -0.0763  0.4175 -0.2127
  178SLPC  H13X20371   4.433   2.977   9.128  0.3361  0.4220  0.1415
  178SLPC  H13Y20372   4.557   3.032   9.004 -0.9672  0.7230 -1.4052
  178SLPC  C31420373   4.361   3.125   8.999 -0.5467  0.3102 -0.5027
  178SLPC  H14X20374   4.288   3.166   9.072  0.0379  0.9626 -0.2779
  178SLPC  H14Y20375   4.306   3.035   8.963 -0.0218 -0.3566  0.3320
  178SLPC  C31520376   4.403   3.218   8.889 -0.0535  0.0958  0.4265
  178SLPC  H15X20377   4.457   3.308   8.924 -0.0159  0.7983 -1.3420
  178SLPC  H15Y20378   4.476   3.163   8.825 -0.1642  1.1312 -0.6234
  178SLPC  C31620379   4.292   3.257   8.788  0.4034 -0.3667  0.3060
  178SLPC  H16X20380   4.214   3.323   8.831  0.1304 -0.7015  0.3301
  178SLPC  H16Y20381   4.230   3.171   8.755 -1.8479  1.0813  0.5985
  178SLPC  C31720382   4.360   3.318   8.659 -0.3227 -0.5133 -0.6202
  178SLPC  H17X20383   4.416   3.237   8.607 -0.2391 -0.2882 -0.8840
  178SLPC  H17Y20384   4.442   3.388   8.684 -0.1929 -0.0171 -2.2687
  178SLPC  C31820385   4.268   3.389   8.565 -0.0171 -0.2946  0.5130
  178SLPC  H18X20386   4.222   3.470   8.626 -1.2023 -0.6746  0.1460
  178SLPC  H18Y20387   4.173   3.336   8.542 -0.1699 -0.0517  0.5845
  178SLPC  H18Z20388   4.314   3.450   8.484  1.5376 -3.8551 -1.4922
  179SLPC     N20389   0.562   0.372  10.604 -0.4669 -0.4416  0.5124
  179SLPC   C1320390   0.479   0.295  10.701  0.2703 -0.1562 -0.6809
  179SLPC  H13A20391   0.381   0.337  10.689  0.0875 -0.0123  1.0466
  179SLPC  H13B20392   0.456   0.192  10.676 -2.2434 -0.2330  1.5671
  179SLPC  H13C20393   0.520   0.297  10.801  0.6884  0.9578 -0.8653
  179SLPC   C1420394   0.692   0.397  10.673 -0.3000  0.3723  0.0232
  179SLPC  H14A20395   0.666   0.428  10.773 -0.8444 -0.5500  0.1791
  179SLPC  H14B20396   0.750   0.309  10.698 -0.6921  0.1395  0.1151
  179SLPC  H14C20397   0.753   0.470  10.621  0.5071 -1.1891 -1.3187
  179SLPC   C1520398   0.473   0.492  10.587  0.0449 -0.2132 -0.1858
  179SLPC  H15A20399   0.381   0.466  10.536 -0.3348  0.7351 -0.0131
  179SLPC  H15B20400   0.442   0.527  10.684 -1.1118  0.8089 -0.8929
  179SLPC  H15C20401   0.520   0.575  10.535  3.5439 -1.9832 -0.1377
  179SLPC   C1220402   0.570   0.301  10.470 -0.4159 -0.8292 -0.7036
  179SLPC  H12A20403   0.631   0.213  10.475 -0.1072 -0.6154 -0.6944
  179SLPC  H12B20404   0.621   0.368  10.403  2.1863  0.0838  1.9930
  179SLPC   C1120405   0.439   0.250  10.407  0.0461 -0.4131  0.1523
  179SLPC  H11A20406   0.454   0.228  10.299 -1.7063 -0.3226 -0.1420
  179SLPC  H11B20407   0.365   0.333  10.416  1.7824  1.0464  1.6663
  179SLPC     P20408   0.459  -0.006  10.432  0.0571  0.2953  0.2052
  179SLPC   O1320409   0.597  -0.005  10.485 -0.3669  0.0326 -0.1668
  179SLPC   O1420410   0.371  -0.122  10.474 -0.7023 -0.5616  0.8070
  179SLPC   O1220411   0.391   0.132  10.468 -0.1171  0.4613  0.3381
  179SLPC   O1120412   0.473  -0.005  10.268  0.1947 -0.1902 -0.3944
  179SLPC    C120413   0.361  -0.064  10.199  1.3229  0.1765 -0.0431
  179SLPC    HA20414   0.268  -0.067  10.259  1.6480  2.8884  0.6902
  179SLPC    HB20415   0.333  -0.010  10.106 -0.0768  1.6967  1.1993
  179SLPC    C220416   0.399  -0.217  10.169 -0.4731  0.1633 -0.3755
  179SLPC    HS20417   0.424  -0.269  10.263 -1.5029  1.6173  0.7407
  179SLPC   O2120418   0.515  -0.222  10.079 -0.0047 -0.6367 -0.1414
  179SLPC   C2120419   0.578  -0.342  10.067  1.2052 -0.2166  0.2898
  179SLPC   O2220420   0.541  -0.438  10.122  0.3292  0.5831 -0.7650
  179SLPC   C2220421   0.702  -0.338   9.978  0.7289 -0.0464 -0.3635
  179SLPC   H2R20422   0.701  -0.264   9.895  1.2927 -0.2111 -0.5194
  179SLPC   H2S20423   0.779  -0.306  10.052 -0.0703 -0.6837  0.7813
  179SLPC    C320424   0.280  -0.290  10.096  0.6111  0.0153 -1.2677
  179SLPC    HX20425   0.194  -0.321  10.160  1.1394 -2.2267 -1.5744
  179SLPC    HY20426   0.316  -0.391  10.067  0.0945 -1.0868  1.6211
  179SLPC   O3120427   0.226  -0.215   9.984 -0.3903 -0.4959  0.2187
  179SLPC   C3120428   0.276  -0.240   9.866 -0.6519 -0.4732 -0.3265
  179SLPC   O3220429   0.364  -0.320   9.841  0.1279 -0.3112 -0.5219
  179SLPC   C3220430   0.207  -0.157   9.766 -0.0970 -0.2633 -0.3323
  179SLPC   H2X20431   0.242  -0.052   9.775 -0.9565 -0.1376  2.5401
  179SLPC   H2Y20432   0.099  -0.141   9.787 -0.7467 -1.1707 -2.6067
  179SLPC   C2320433   0.743  -0.479   9.923 -0.5027  0.2618  0.3758
  179SLPC   H3R20434   0.680  -0.484   9.832  1.9027  3.0510 -1.6449
  179SLPC   H3S20435   0.721  -0.566   9.988  0.8506 -0.8583 -0.6150
  179SLPC   C2420436   0.885  -0.494   9.866  0.7221 -0.0770  0.0564
  179SLPC   H4R20437   0.960  -0.484   9.948  0.1741 -1.1386  0.7116
  179SLPC   H4S20438   0.895  -0.403   9.805 -1.6234  0.2096  0.0252
  179SLPC   C2520439   0.909  -0.619   9.780  0.1846  0.1267 -0.8505
  179SLPC   H5R20440   0.814  -0.647   9.730 -1.9917  0.4126  2.7727
  179SLPC   H5S20441   0.937  -0.695   9.857  1.7986  0.7200 -0.8240
  179SLPC   C2620442   1.032  -0.598   9.690 -0.2148 -0.0751  0.3038
  179SLPC   H6R20443   1.077  -0.699   9.676  0.7738  0.3114  0.5571
  179SLPC   H6S20444   1.110  -0.547   9.751 -1.1654  1.0518  0.5941
  179SLPC   C2720445   1.004  -0.546   9.549  0.2004  1.0239 -0.3655
  179SLPC   H7R20446   0.967  -0.441   9.553  1.1873  1.4054 -0.7861
  179SLPC   H7S20447   0.922  -0.614   9.518  1.5651 -0.8359 -0.0426
  179SLPC   C2820448   1.132  -0.550   9.455  0.0851  0.1474  0.0984
  179SLPC   H8R20449   1.213  -0.506   9.517  1.2727 -1.9303  0.1141
  179SLPC   H8S20450   1.098  -0.493   9.366 -3.0455 -2.8216 -0.8355
  179SLPC   C2920451   1.169  -0.684   9.412 -0.4568 -0.0992 -0.1426
  179SLPC   H9R20452   1.199  -0.752   9.494  1.6491  0.8223 -0.0732
  179SLPC  C21020453   1.153  -0.725   9.291 -0.0420  0.3454  0.3104
  179SLPC  H10R20454   1.185  -0.828   9.269 -0.2576  0.2815  0.2951
  179SLPC  C21120455   1.088  -0.657   9.170  0.6905 -0.0697  0.3088
  179SLPC  H11R20456   0.980  -0.640   9.189  0.3411  0.0228 -1.5236
  179SLPC  H11S20457   1.079  -0.737   9.093 -1.8334 -0.2110  0.6885
  179SLPC  C21220458   1.144  -0.529   9.114 -0.6970  0.1662 -0.4771
  179SLPC  H12R20459   1.231  -0.497   9.172 -0.5213 -1.8441  0.4785
  179SLPC  C21320460   1.114  -0.457   9.007 -0.5204 -0.3081 -0.6740
  179SLPC  H13R20461   1.169  -0.364   8.988  0.4405 -0.6028  0.5284
  179SLPC  C21420462   1.016  -0.496   8.902  0.2100 -0.7402  0.2549
  179SLPC  H14R20463   0.952  -0.412   8.867  0.3402 -0.5123  0.5718
  179SLPC  H14S20464   0.951  -0.581   8.934  0.0642 -0.8153 -0.2243
  179SLPC  C21520465   1.092  -0.547   8.778 -0.4406 -0.1427  0.6031
  179SLPC  H15R20466   1.124  -0.650   8.806  0.5650 -0.0935 -0.2878
  179SLPC  H15S20467   1.184  -0.490   8.753  1.0249 -2.2090  0.9598
  179SLPC  C21620468   0.999  -0.542   8.647 -1.3876 -0.3393  0.2463
  179SLPC  H16R20469   0.974  -0.436   8.623  0.1205 -0.7813 -4.0180
  179SLPC  H16S20470   0.899  -0.590   8.658 -1.9390  0.2349 -1.8597
  179SLPC  C21720471   1.067  -0.590   8.516 -0.3328 -0.8927 -0.1849
  179SLPC  H17R20472   1.067  -0.701   8.511  2.0210 -0.8960 -1.2062
  179SLPC  H17S20473   1.171  -0.550   8.515  0.4631 -2.8474  0.6506
  179SLPC  C21820474   1.004  -0.525   8.390 -0.4861 -0.5176 -0.0385
  179SLPC  H18R20475   1.076  -0.529   8.306 -0.7715 -0.4934 -0.2826
  179SLPC  H18S20476   0.978  -0.418   8.403  1.0220  0.0247 -1.2773
  179SLPC  H18T20477   0.906  -0.569   8.361 -0.7236  0.1223 -0.2085
  179SLPC   C3320478   0.230  -0.205   9.621  0.4005 -0.2654  0.3758
  179SLPC   H3X20479   0.237  -0.316   9.619  0.0729 -0.3507  2.3306
  179SLPC   H3Y20480   0.326  -0.168   9.580 -1.0147  1.9959 -1.1683
  179SLPC   C3420481   0.116  -0.167   9.516  0.8840  0.4150  0.4206
  179SLPC   H4X20482   0.083  -0.062   9.503  1.0918  0.2932 -1.4085
  179SLPC   H4Y20483   0.025  -0.224   9.544  0.7803  0.9657  1.2261
  179SLPC   C3520484   0.146  -0.226   9.380  0.3094 -0.4722 -0.2600
  179SLPC   H5X20485   0.172  -0.334   9.387 -2.3187 -1.1497 -0.0418
  179SLPC   H5Y20486   0.229  -0.176   9.325  1.9395 -0.8568  1.7175
  179SLPC   C3620487   0.029  -0.212   9.283 -0.3005 -0.1832  0.8710
  179SLPC   H6X20488   0.010  -0.103   9.276  1.5442  0.3297  2.6836
  179SLPC   H6Y20489  -0.054  -0.258   9.340  2.0621 -0.4434  4.5021
  179SLPC   C3720490   0.067  -0.269   9.146  0.3001 -0.5901 -0.7427
  179SLPC   H7X20491   0.127  -0.361   9.156  0.2643 -0.4016  1.8547
  179SLPC   H7Y20492   0.149  -0.202   9.112  1.4065  0.0142  2.6720
  179SLPC   C3820493  -0.049  -0.290   9.051 -0.2931 -0.9903  0.1506
  179SLPC   H8X20494  -0.100  -0.191   9.050  0.0319 -0.8172 -0.2103
  179SLPC   H8Y20495  -0.114  -0.367   9.095 -1.0130  0.8604  2.5019
  179SLPC   C3920496  -0.008  -0.320   8.910 -0.1834  0.2119  0.2739
  179SLPC   H9X20497  -0.096  -0.354   8.851 -0.1854  0.1795  0.2953
  179SLPC   H9Y20498   0.065  -0.404   8.905  1.6263  1.7658 -1.8659
  179SLPC  C31020499   0.041  -0.198   8.831 -0.0207  0.3617 -0.0817
  179SLPC  H10X20500   0.129  -0.149   8.880 -0.1008  1.0965 -0.6503
  179SLPC  H10Y20501  -0.034  -0.117   8.821 -1.0000 -0.6609 -1.1699
  179SLPC  C31120502   0.072  -0.233   8.688  0.1597  0.1392  0.0202
  179SLPC  H11X20503  -0.014  -0.295   8.654 -0.3983  0.0770  1.4882
  179SLPC  H11Y20504   0.159  -0.302   8.682 -0.3066 -0.3320 -1.9952
  179SLPC  C31220505   0.100  -0.116   8.591 -0.3135 -0.3383  0.2603
  179SLPC  H12X20506   0.014  -0.047   8.574 -0.3323 -0.0467  1.4808
  179SLPC  H12Y20507   0.122  -0.159   8.491  0.1893  1.3424 -0.3898
  179SLPC  C31320508   0.224  -0.028   8.633  0.8556 -0.6969 -0.1967
  179SLPC  H13X20509   0.302  -0.105   8.651  0.0160 -1.4023  0.5365
  179SLPC  H13Y20510   0.217   0.021   8.733  3.5796 -1.3560  0.3966
  179SLPC  C31420511   0.278   0.079   8.536 -0.0373  0.1860 -0.3130
  179SLPC  H14X20512   0.349   0.145   8.591  1.9482 -2.6104  0.6683
  179SLPC  H14Y20513   0.198   0.143   8.493  1.0696  3.0912  1.5820
  179SLPC  C31520514   0.358   0.027   8.423  0.3842 -0.4653  0.0925
  179SLPC  H15X20515   0.301  -0.020   8.340  0.9818  1.1585 -1.3007
  179SLPC  H15Y20516   0.429  -0.052   8.455 -1.3198 -2.3784 -0.6118
  179SLPC  C31620517   0.441   0.138   8.362  0.6517 -0.3904  0.5087
  179SLPC  H16X20518   0.495   0.188   8.446  2.2771  2.3551 -2.0107
  179SLPC  H16Y20519   0.391   0.216   8.301  1.6652  1.3147  1.7566
  179SLPC  C31720520   0.553   0.089   8.271 -0.6536 -0.5350  0.1056
  179SLPC  H17X20521   0.502   0.048   8.181  1.1956 -0.2691 -1.1054
  179SLPC  H17Y20522   0.613   0.008   8.317  2.1279  0.7079 -1.1185
  179SLPC  C31820523   0.650   0.202   8.238 -0.1742  0.3771  0.2246
  179SLPC  H18X20524   0.693   0.227   8.337  1.0855 -2.8629  0.6166
  179SLPC  H18Y20525   0.586   0.280   8.190  2.1125  0.8454 -2.3080
  179SLPC  H18Z20526   0.735   0.174   8.173 -0.2179  2.2548 -0.7040
  180SLPC     N20527   2.087   3.462  10.935 -1.0976 -0.0036 -0.0770
  180SLPC   C1320528   2.112   3.559  10.817  0.3423  0.5620 -0.5438
  180SLPC  H13A20529   2.141   3.504  10.729 -0.6253 -1.1249  0.1563
  180SLPC  H13B20530   2.018   3.602  10.786 -0.2655  0.6859  1.3638
  180SLPC  H13C20531   2.186   3.636  10.831  1.8546 -0.7662 -0.9091
  180SLPC   C1420532   2.119   3.523  11.067 -0.5894 -0.5018 -0.7871
  180SLPC  H14A20533   2.225   3.541  11.075 -0.3211 -1.3983 -1.8884
  180SLPC  H14B20534   2.076   3.616  11.101 -0.0957 -1.7675  3.9511
  180SLPC  H14C20535   2.106   3.453  11.148  2.1072  0.5323  0.6686
  180SLPC   C1520536   2.187   3.350  10.927  0.3320 -0.4917  0.7734
  180SLPC  H15A20537   2.179   3.277  11.006 -0.0519 -2.3721 -0.9360
  180SLPC  H15B20538   2.173   3.293  10.837  2.8374 -0.6387  0.4248
  180SLPC  H15C20539   2.287   3.381  10.902 -0.4377  1.6528  0.0464
  180SLPC   C1220540   1.945   3.402  10.939 -0.3234  0.0347  0.2038
  180SLPC  H12A20541   1.945   3.317  11.005 -1.8428 -0.7758 -0.7761
  180SLPC  H12B20542   1.927   3.360  10.841 -1.2829 -1.8288  1.1272
  180SLPC   C1120543   1.817   3.488  10.955  0.3561 -0.2500 -0.3067
  180SLPC  H11A20544   1.805   3.531  11.057 -2.1634  0.5990 -0.8698
  180SLPC  H11B20545   1.738   3.411  10.942 -0.2145  0.2601  0.0405
  180SLPC     P20546   1.663   3.632  10.810 -0.3958  0.3621  0.4230
  180SLPC   O1320547   1.554   3.606  10.912 -0.6284 -0.7268  0.1673
  180SLPC   O1420548   1.676   3.766  10.749 -0.1569  0.3059  0.0159
  180SLPC   O1220549   1.803   3.597  10.860 -0.4873  0.0854  0.1743
  180SLPC   O1120550   1.638   3.522  10.691  0.2949 -0.5620  0.1658
  180SLPC    C120551   1.746   3.457  10.617 -0.0406  0.7351  0.3747
  180SLPC    HA20552   1.832   3.423  10.679  0.2756 -1.6870 -1.2890
  180SLPC    HB20553   1.704   3.365  10.572 -1.2232  2.9210 -3.4597
  180SLPC    C220554   1.794   3.543  10.495  0.0828 -0.1368 -0.3891
  180SLPC    HS20555   1.836   3.639  10.533  1.2401 -1.1819  1.1570
  180SLPC   O2120556   1.679   3.566  10.412  0.3753  0.2819  0.2017
  180SLPC   C2120557   1.698   3.664  10.323  0.6580  0.1974  1.0010
  180SLPC   O2220558   1.790   3.744  10.325  0.4256 -0.1946 -0.7118
  180SLPC   C2220559   1.602   3.653  10.210 -0.1802 -0.4154  0.2579
  180SLPC   H2R20560   1.501   3.657  10.257 -2.1244  3.6742 -3.4822
  180SLPC   H2S20561   1.615   3.746  10.152  0.1783  0.2766  1.4298
  180SLPC    C320562   1.903   3.460  10.418 -0.3474 -0.4010  0.6038
  180SLPC    HX20563   1.872   3.354  10.413  1.6825 -1.0124 -0.5160
  180SLPC    HY20564   1.989   3.465  10.488 -0.5338 -1.7677  0.9593
  180SLPC   O3120565   1.931   3.502  10.282  0.7169  0.0670 -0.1537
  180SLPC   C3120566   2.037   3.587  10.270 -0.7611  0.3408  0.6450
  180SLPC   O3220567   2.120   3.609  10.356  0.2490  0.3941  0.1665
  180SLPC   C3220568   2.036   3.651  10.135  0.3485 -1.1993  0.9306
  180SLPC   H2X20569   2.121   3.722  10.131 -1.3626  0.9339  0.4024
  180SLPC   H2Y20570   1.941   3.708  10.126 -0.2125 -2.2017  0.3742
  180SLPC   C2320571   1.642   3.546  10.102 -1.0454  1.1111  0.4915
  180SLPC   H3R20572   1.549   3.488  10.083 -0.2019 -0.7790  1.9241
  180SLPC   H3S20573   1.716   3.475  10.144 -1.4753 -1.0011 -2.1100
  180SLPC   C2420574   1.706   3.599   9.972 -0.0433  0.1956 -0.0452
  180SLPC   H4R20575   1.747   3.514   9.913  0.2745  0.6068 -0.4214
  180SLPC   H4S20576   1.786   3.673   9.991  1.2698 -0.9678 -0.8762
  180SLPC   C2520577   1.595   3.664   9.891 -0.5230  0.1526 -0.2856
  180SLPC   H5R20578   1.535   3.736   9.950 -1.1154 -0.6980  0.1705
  180SLPC   H5S20579   1.524   3.582   9.867 -0.0663 -0.7910  1.4423
  180SLPC   C2620580   1.649   3.728   9.765  0.2178 -0.3293  0.1179
  180SLPC   H6R20581   1.704   3.650   9.708  3.3253  0.7057  1.4770
  180SLPC   H6S20582   1.724   3.805   9.792  2.5504 -2.5557  0.4267
  180SLPC   C2720583   1.555   3.809   9.683  0.1269  0.8710  0.3397
  180SLPC   H7R20584   1.518   3.883   9.756  0.4522  1.7785 -0.3945
  180SLPC   H7S20585   1.473   3.743   9.647  0.1618  1.0936 -0.1619
  180SLPC   C2820586   1.620   3.884   9.575  0.0235  0.6717  0.4610
  180SLPC   H8R20587   1.654   3.825   9.487  0.9606  3.0923 -0.9069
  180SLPC   H8S20588   1.701   3.938   9.628 -1.3953  1.4239  1.9406
  180SLPC   C2920589   1.525   3.989   9.534  0.4975 -0.2973  0.5489
  180SLPC   H9R20590   1.508   4.072   9.603  2.0252  1.1630 -0.7395
  180SLPC  C21020591   1.454   4.005   9.419  0.2200 -0.1145 -0.4194
  180SLPC  H10R20592   1.385   4.090   9.409 -0.3016 -0.5624 -0.6555
  180SLPC  C21120593   1.459   3.914   9.305 -0.0830 -0.1038 -0.5328
  180SLPC  H11R20594   1.544   3.842   9.296  0.7871  0.7041  0.8738
  180SLPC  H11S20595   1.469   3.981   9.218  1.8956  0.5691  0.1521
  180SLPC  C21220596   1.338   3.822   9.318  0.3611 -0.2166 -0.4271
  180SLPC  H12R20597   1.298   3.789   9.415 -1.8644 -0.0397 -1.2318
  180SLPC  C21320598   1.282   3.770   9.208  0.4598 -0.4565  0.7294
  180SLPC  H13R20599   1.199   3.698   9.207 -1.5384  1.6202  2.7086
  180SLPC  C21420600   1.329   3.805   9.063  0.4426 -0.0006 -0.0586
  180SLPC  H14R20601   1.437   3.833   9.057  0.7122 -0.5786  1.5463
  180SLPC  H14S20602   1.274   3.893   9.022 -0.8205 -1.2516 -1.1611
  180SLPC  C21520603   1.309   3.682   8.965 -0.1340 -0.2694 -0.2160
  180SLPC  H15R20604   1.199   3.670   8.955 -0.6104  2.0067  1.6790
  180SLPC  H15S20605   1.361   3.592   9.004  1.9611  1.2096  0.6000
  180SLPC  C21620606   1.367   3.716   8.825  0.1144 -0.4146 -0.3648
  180SLPC  H16R20607   1.478   3.704   8.827  0.0151 -1.2994  0.2560
  180SLPC  H16S20608   1.344   3.824   8.813  3.1561  0.3288 -0.4551
  180SLPC  C21720609   1.291   3.640   8.712 -0.7294 -0.6330 -1.1970
  180SLPC  H17R20610   1.185   3.627   8.743 -0.6820 -0.6871 -1.0596
  180SLPC  H17S20611   1.337   3.539   8.713  1.1310  0.1825  0.1160
  180SLPC  C21820612   1.299   3.708   8.574  0.1436 -0.8726 -0.1123
  180SLPC  H18R20613   1.407   3.729   8.557 -0.2568  0.9994 -0.5751
  180SLPC  H18S20614   1.242   3.803   8.572  2.4330  0.6047  0.4787
  180SLPC  H18T20615   1.259   3.636   8.500 -2.1420 -1.1871  1.3404
  180SLPC   C3320616   2.061   3.555  10.024 -0.2364 -0.7062  0.3762
  180SLPC   H3X20617   1.987   3.474  10.011 -1.8328  0.4563  1.7940
  180SLPC   H3Y20618   2.155   3.496  10.031 -0.1144 -0.4156  1.3126
  180SLPC   C3420619   2.065   3.628   9.888  0.2741 -0.3893  0.4547
  180SLPC   H4X20620   2.146   3.705   9.887  1.1636 -1.3037  0.3557
  180SLPC   H4Y20621   1.967   3.679   9.873  0.6700 -0.0414 -1.1857
  180SLPC   C3520622   2.092   3.525   9.773 -0.2190 -0.3661 -0.5505
  180SLPC   H5X20623   2.020   3.442   9.789 -0.8031  0.5896  2.4333
  180SLPC   H5Y20624   2.192   3.479   9.787  0.1758  0.2545 -1.2629
  180SLPC   C3620625   2.089   3.581   9.636  0.0183  0.0526 -0.5705
  180SLPC   H6X20626   2.176   3.646   9.614 -0.1500 -0.1865 -2.0705
  180SLPC   H6Y20627   1.993   3.634   9.618  0.8100  1.0531 -1.9904
  180SLPC   C3720628   2.110   3.469   9.533  0.1834  0.2605  0.3809
  180SLPC   H7X20629   2.027   3.396   9.526  0.3096  0.1456  0.0615
  180SLPC   H7Y20630   2.208   3.418   9.543  0.0615 -0.1493 -0.4299
  180SLPC   C3820631   2.100   3.533   9.394 -0.3839  0.3908  0.0333
  180SLPC   H8X20632   2.168   3.620   9.384  0.7923 -0.6164 -1.1539
  180SLPC   H8Y20633   1.998   3.571   9.376 -0.9392 -0.0095  2.1433
  180SLPC   C3920634   2.124   3.438   9.270 -0.3330  1.0712  0.2782
  180SLPC   H9X20635   2.041   3.365   9.273 -0.4765  1.2641  1.9437
  180SLPC   H9Y20636   2.215   3.376   9.283 -0.1726  1.5981  1.9095
  180SLPC  C31020637   2.131   3.512   9.135 -0.1343 -0.0359  0.4400
  180SLPC  H10X20638   2.230   3.558   9.114  0.1703 -1.0630 -0.4823
  180SLPC  H10Y20639   2.054   3.592   9.136 -0.9371 -0.7927 -0.1898
  180SLPC  C31120640   2.109   3.415   9.017 -0.8702  0.8314  0.5003
  180SLPC  H11X20641   2.004   3.379   9.027 -0.2115 -1.3039  0.3965
  180SLPC  H11Y20642   2.170   3.323   9.036 -0.5872  0.9588  0.2161
  180SLPC  C31220643   2.129   3.461   8.870  0.1335 -0.1713 -0.5659
  180SLPC  H12X20644   2.236   3.460   8.842 -0.3258 -2.6958 -2.6616
  180SLPC  H12Y20645   2.076   3.555   8.844 -1.8145 -1.5833 -2.0463
  180SLPC  C31320646   2.069   3.361   8.772 -0.0011  0.4209  0.5622
  180SLPC  H13X20647   1.962   3.348   8.798  0.3098 -0.3152  1.5181
  180SLPC  H13Y20648   2.107   3.257   8.780  0.2623  0.4907  0.2386
  180SLPC  C31420649   2.077   3.420   8.632  0.4271 -0.6196 -0.2470
  180SLPC  H14X20650   2.180   3.446   8.597  0.5561 -0.4403  0.2438
  180SLPC  H14Y20651   2.034   3.522   8.640 -1.8737 -1.5783  0.4435
  180SLPC  C31520652   2.003   3.348   8.522 -0.2224 -0.5834  0.5205
  180SLPC  H15X20653   1.903   3.318   8.561 -1.0442 -1.6511 -2.1444
  180SLPC  H15Y20654   2.063   3.259   8.494  0.5820 -0.3789  1.5471
  180SLPC  C31620655   1.970   3.433   8.405  0.1790 -0.5521  0.3331
  180SLPC  H16X20656   1.898   3.512   8.436  1.1619 -0.1621  1.7287
  180SLPC  H16Y20657   1.921   3.376   8.323  1.1524  1.5875 -1.8608
  180SLPC  C31720658   2.095   3.492   8.341 -0.4032  0.0260  0.5168
  180SLPC  H17X20659   2.174   3.418   8.313 -1.1052 -0.7584  0.5587
  180SLPC  H17Y20660   2.136   3.572   8.405 -1.0151  2.2458 -1.7344
  180SLPC  C31820661   2.078   3.558   8.201  0.0540  0.7025 -0.1811
  180SLPC  H18X20662   2.176   3.579   8.153 -0.2341  0.6998 -0.7784
  180SLPC  H18Y20663   2.014   3.648   8.189 -0.0821  0.4867 -1.1497
  180SLPC  H18Z20664   2.034   3.481   8.134 -0.0314  0.2573  0.3741
  181SLPC     N20665   2.568   0.795  11.063 -0.7450  0.1578 -0.3610
  181SLPC   C1320666   2.676   0.855  11.146  0.6385  0.2611 -0.2198
  181SLPC  H13A20667   2.722   0.786  11.216  3.7835  0.2668 -2.0752
  181SLPC  H13B20668   2.757   0.886  11.081 -1.0098  4.5117 -0.5549
  181SLPC  H13C20669   2.646   0.946  11.195  0.4261 -0.4269  0.9731
  181SLPC   C1420670   2.518   0.899  10.970  0.2536  0.8160  0.2591
  181SLPC  H14A20671   2.433   0.860  10.916 -0.2600  1.0224  0.9082
  181SLPC  H14B20672   2.486   0.990  11.018 -0.1636  1.5533 -1.3719
  181SLPC  H14C20673   2.590   0.927  10.895 -1.3159  0.4296 -1.4620
  181SLPC   C1520674   2.463   0.754  11.159  0.7472 -0.0065 -0.6050
  181SLPC  H15A20675   2.497   0.694  11.242 -3.4539 -1.0578  0.6008
  181SLPC  H15B20676   2.404   0.829  11.212  2.5403 -0.0177  1.5761
  181SLPC  H15C20677   2.384   0.700  11.108 -0.8397  0.2677  1.4083
  181SLPC   C1220678   2.613   0.664  10.986 -0.1044 -0.3241 -0.0084
  181SLPC  H12A20679   2.523   0.619  10.948  1.9839 -2.7193 -2.5573
  181SLPC  H12B20680   2.654   0.596  11.059  0.1131 -0.6164 -0.3985
  181SLPC   C1120681   2.713   0.674  10.871 -0.5269 -0.2633  0.4996
  181SLPC  H11A20682   2.667   0.758  10.815 -2.5351 -1.7779 -0.2195
  181SLPC  H11B20683   2.714   0.590  10.798 -1.3066  1.4035 -1.4978
  181SLPC     P20684   2.948   0.761  10.821 -0.0968 -0.2513 -0.4589
  181SLPC   O1320685   2.901   0.894  10.776 -0.8809 -0.8095  0.0726
  181SLPC   O1420686   3.073   0.758  10.894  0.4333 -0.0421  0.4327
  181SLPC   O1220687   2.840   0.698  10.919 -0.0654 -0.2834  0.6526
  181SLPC   O1120688   2.957   0.656  10.707  0.0621  0.0794  0.0192
  181SLPC    C120689   2.982   0.518  10.737  0.4063  0.1018  0.0525
  181SLPC    HA20690   2.934   0.481  10.830 -2.1372  1.1196 -0.7528
  181SLPC    HB20691   2.945   0.452  10.656  1.5346 -1.7441  0.9972
  181SLPC    C220692   3.132   0.486  10.732 -0.5194  0.4062 -0.6663
  181SLPC    HS20693   3.185   0.571  10.780 -0.8780 -0.3994  1.2767
  181SLPC   O2120694   3.162   0.477  10.592  0.1052  0.7028  0.4868
  181SLPC   C2120695   3.293   0.466  10.559  0.4976 -0.6741 -0.7897
  181SLPC   O2220696   3.381   0.468  10.643  0.1811 -0.5929  0.0761
  181SLPC   C2220697   3.311   0.458  10.415 -0.9993 -0.2623 -0.1118
  181SLPC   H2R20698   3.420   0.455  10.397 -0.7679 -2.9870  1.1925
  181SLPC   H2S20699   3.279   0.359  10.377  2.1781 -0.9717 -1.2000
  181SLPC    C320700   3.165   0.364  10.824 -0.0587 -0.0327 -0.0916
  181SLPC    HX20701   3.138   0.399  10.925  0.8283  0.5930 -0.0585
  181SLPC    HY20702   3.272   0.337  10.825 -0.1052 -0.1979  0.3836
  181SLPC   O3120703   3.079   0.255  10.791 -0.0270 -0.3117  0.2737
  181SLPC   C3120704   3.110   0.177  10.686  0.4814 -0.6799  0.4835
  181SLPC   O3220705   3.217   0.179  10.629  0.1577  0.2399  0.8487
  181SLPC   C3220706   2.997   0.077  10.647 -0.7859  0.1405 -0.1670
  181SLPC   H2X20707   2.918   0.105  10.720  1.4830  1.3561  2.0148
  181SLPC   H2Y20708   3.026  -0.027  10.670 -1.7870 -0.2828 -0.7710
  181SLPC   C2320709   3.218   0.551  10.334 -0.1248  0.6471 -0.0058
  181SLPC   H3R20710   3.241   0.649  10.381  0.1270  0.0588  1.1273
  181SLPC   H3S20711   3.108   0.535  10.337 -0.2317  1.5009  1.3872
  181SLPC   C2420712   3.268   0.559  10.191  0.1051 -0.5974  0.4970
  181SLPC   H4R20713   3.267   0.463  10.135  2.4169 -1.1969  1.3312
  181SLPC   H4S20714   3.379   0.573  10.189 -0.1771  2.0499 -1.4417
  181SLPC   C2520715   3.207   0.677  10.121  0.7370  0.7617  1.1532
  181SLPC   H5R20716   3.204   0.758  10.196  1.7568  2.4872 -0.5881
  181SLPC   H5S20717   3.101   0.661  10.091  1.5136 -0.7642 -1.1411
  181SLPC   C2620718   3.278   0.726   9.997 -0.1734 -0.2872  0.5475
  181SLPC   H6R20719   3.387   0.713  10.009 -0.2921 -4.3688 -1.1871
  181SLPC   H6S20720   3.244   0.831   9.978  1.5616 -0.0241 -1.3740
  181SLPC   C2720721   3.252   0.655   9.861 -0.0439  0.8547 -0.2847
  181SLPC   H7R20722   3.142   0.644   9.845 -0.1296 -0.5597  1.0119
  181SLPC   H7S20723   3.285   0.549   9.873  1.2728  1.3453  0.5171
  181SLPC   C2820724   3.320   0.719   9.745  0.4373  0.2168 -0.2420
  181SLPC   H8R20725   3.427   0.695   9.762  0.0952  0.0100  1.9962
  181SLPC   H8S20726   3.311   0.830   9.748  0.3568  0.2085 -0.1675
  181SLPC   C2920727   3.270   0.684   9.612  0.6799  0.0189  0.3404
  181SLPC   H9R20728   3.338   0.610   9.569  0.2955 -0.6374  0.8289
  181SLPC  C21020729   3.163   0.729   9.546 -0.3575 -0.6171  1.2296
  181SLPC  H10R20730   3.162   0.706   9.439 -1.7411  0.2496  1.0264
  181SLPC  C21120731   3.052   0.831   9.570  0.0995  0.1618 -0.3228
  181SLPC  H11R20732   3.023   0.813   9.675  0.1743 -1.8106 -0.6051
  181SLPC  H11S20733   2.967   0.814   9.501 -0.3622  0.9512  0.0436
  181SLPC  C21220734   3.090   0.973   9.551 -0.0803 -0.3491  0.0625
  181SLPC  H12R20735   3.077   1.008   9.447  1.3827 -0.5653 -0.2256
  181SLPC  C21320736   3.132   1.071   9.632  0.4989  0.3651 -0.6405
  181SLPC  H13R20737   3.133   1.177   9.600 -0.4178  0.8479  0.7969
  181SLPC  C21420738   3.128   1.067   9.786 -0.5750 -0.5259 -0.4308
  181SLPC  H14R20739   3.177   0.972   9.816 -0.5705 -0.1128  0.8992
  181SLPC  H14S20740   3.028   1.067   9.834 -2.3750  1.8251 -3.7886
  181SLPC  C21520741   3.217   1.163   9.869  0.5234 -0.4905 -0.1494
  181SLPC  H15R20742   3.320   1.153   9.829 -0.0136 -0.3251 -1.6584
  181SLPC  H15S20743   3.213   1.129   9.974  2.2946  1.6992  0.7143
  181SLPC  C21620744   3.155   1.299   9.867  0.9334 -0.5271  0.4620
  181SLPC  H16R20745   3.049   1.287   9.898  0.7177  0.2294  0.0492
  181SLPC  H16S20746   3.162   1.348   9.768  1.1441 -0.9311  0.2748
  181SLPC  C21720747   3.232   1.395   9.959  0.7559 -0.3026  0.0488
  181SLPC  H17R20748   3.336   1.421   9.931  0.4812 -1.6154 -2.4444
  181SLPC  H17S20749   3.246   1.349  10.059  2.2202 -0.1321 -0.0519
  181SLPC  C21820750   3.157   1.523   9.983 -0.2370 -0.2706  0.7490
  181SLPC  H18R20751   3.136   1.584   9.893 -2.7589 -0.2495  1.2743
  181SLPC  H18S20752   3.205   1.597  10.052  0.4615  1.7332 -1.7428
  181SLPC  H18T20753   3.056   1.495  10.018 -0.8871  1.1502  0.0704
  181SLPC   C3320754   2.956   0.087  10.500 -0.3307  0.7645 -0.4303
  181SLPC   H3X20755   2.972   0.192  10.468  0.7235  0.9626  0.6782
  181SLPC   H3Y20756   2.846   0.071  10.490 -0.4140  1.6361 -0.9777
  181SLPC   C3420757   3.033  -0.009  10.406 -0.2828  0.6681 -0.4840
  181SLPC   H4X20758   2.982  -0.108  10.406 -0.5520  0.8012  0.2244
  181SLPC   H4Y20759   3.140  -0.018  10.435  0.6013  1.7869 -3.1305
  181SLPC   C3520760   3.037   0.046  10.261  0.5289 -0.0394 -0.0505
  181SLPC   H5X20761   3.088   0.145  10.263 -0.2744  0.3811  0.6018
  181SLPC   H5Y20762   2.933   0.070  10.228  0.3680  1.1645  1.2045
  181SLPC   C3620763   3.094  -0.051  10.161 -0.2930  0.1843 -0.2372
  181SLPC   H6X20764   3.037  -0.146  10.158  1.7377 -1.0545 -1.1498
  181SLPC   H6Y20765   3.200  -0.066  10.191 -0.5440 -0.8670  0.1439
  181SLPC   C3720766   3.102   0.010  10.017  0.7979  0.3816 -0.6701
  181SLPC   H7X20767   3.164   0.101  10.032  2.0194 -0.7454  1.7955
  181SLPC   H7Y20768   2.995   0.025   9.992  0.8091  3.4808  0.7229
  181SLPC   C3820769   3.167  -0.093   9.928  0.2428 -0.4466 -0.4086
  181SLPC   H8X20770   3.111  -0.188   9.935  1.3442 -1.1049 -0.3370
  181SLPC   H8Y20771   3.267  -0.124   9.964  0.0699 -1.5533 -0.8348
  181SLPC   C3920772   3.178  -0.046   9.780  0.5607 -0.4060  0.5061
  181SLPC   H9X20773   3.228   0.054   9.784  1.5813 -0.9127  0.9931
  181SLPC   H9Y20774   3.076  -0.029   9.739  0.5002  0.3656  0.9516
  181SLPC  C31020775   3.289  -0.120   9.701  0.6967  0.0721 -0.6445
  181SLPC  H10X20776   3.275  -0.230   9.694  3.7243 -0.3207 -2.4599
  181SLPC  H10Y20777   3.387  -0.109   9.753  0.9542  1.3687 -1.3707
  181SLPC  C31120778   3.292  -0.071   9.552  1.0104  0.6453 -0.7213
  181SLPC  H11X20779   3.327   0.034   9.557 -0.4768  1.1257  0.2759
  181SLPC  H11Y20780   3.186  -0.072   9.518  0.3171 -2.0717  1.1498
  181SLPC  C31220781   3.390  -0.162   9.470  0.0222  0.5729  0.7253
  181SLPC  H12X20782   3.358  -0.268   9.464 -1.4921  1.0786 -1.1054
  181SLPC  H12Y20783   3.494  -0.163   9.508  0.5273 -1.2806 -0.5894
  181SLPC  C31320784   3.402  -0.107   9.326  0.3127  0.3993 -0.0631
  181SLPC  H13X20785   3.428   0.001   9.325  0.0948  0.4518 -0.7850
  181SLPC  H13Y20786   3.305  -0.115   9.273  0.6336  0.6794 -0.7027
  181SLPC  C31420787   3.514  -0.185   9.251 -0.4230  0.0840  1.0618
  181SLPC  H14X20788   3.467  -0.279   9.217 -2.3967  1.9204 -1.8046
  181SLPC  H14Y20789   3.598  -0.208   9.320  2.9128  0.8423 -2.4040
  181SLPC  C31520790   3.554  -0.110   9.123  0.4089  0.0139  0.2256
  181SLPC  H15X20791   3.617  -0.024   9.155 -0.6425  0.0394  2.4306
  181SLPC  H15Y20792   3.459  -0.072   9.079  0.2442 -0.3422  0.2685
  181SLPC  C31620793   3.612  -0.196   9.015 -0.1559  0.4169  0.0064
  181SLPC  H16X20794   3.560  -0.294   9.010 -0.8840  0.8456 -1.2539
  181SLPC  H16Y20795   3.716  -0.226   9.042  0.5210 -0.4067 -3.0777
  181SLPC  C31720796   3.621  -0.134   8.875  0.0689 -0.8353  0.2745
  181SLPC  H17X20797   3.519  -0.095   8.854 -0.0036 -0.2602  1.5651
  181SLPC  H17Y20798   3.643  -0.208   8.795  1.0220  0.3633 -0.6012
  181SLPC  C31820799   3.721  -0.024   8.855 -0.5429 -0.4869 -0.2753
  181SLPC  H18X20800   3.820  -0.043   8.902 -1.5499  0.4476  2.4353
  181SLPC  H18Y20801   3.684   0.073   8.894 -0.9550 -0.2810 -1.1491
  181SLPC  H18Z20802   3.740  -0.001   8.748  1.4102 -0.6551 -0.0101
  182SLPC     N20803   0.088   4.467  10.893  0.0967 -0.0515  0.4039
  182SLPC   C1320804   0.135   4.396  11.016 -0.3249 -0.2831 -0.3263
  182SLPC  H13A20805   0.168   4.479  11.076  1.0621  0.7182 -2.3516
  182SLPC  H13B20806   0.057   4.337  11.060 -0.6179 -0.4912 -1.1021
  182SLPC  H13C20807   0.217   4.341  10.972 -1.5662  0.4212 -3.8160
  182SLPC   C1420808   0.181   4.578  10.867 -0.1107  0.7317  0.2004
  182SLPC  H14A20809   0.281   4.537  10.862 -0.8767 -1.1375 -1.3099
  182SLPC  H14B20810   0.157   4.619  10.770 -1.0307  1.1556  0.5883
  182SLPC  H14C20811   0.157   4.656  10.938 -0.5884 -0.7883  1.7914
  182SLPC   C1520812  -0.038   4.527  10.932 -0.2264  0.2079  0.0272
  182SLPC  H15A20813  -0.031   4.561  11.034 -2.3299 -2.6730  1.2713
  182SLPC  H15B20814  -0.073   4.608  10.870  0.5325 -0.0528 -0.7522
  182SLPC  H15C20815  -0.120   4.457  10.934  0.6274 -0.8172  0.2000
  182SLPC   C1220816   0.072   4.366  10.779 -0.1892 -0.1804 -0.7994
  182SLPC  H12A20817   0.008   4.407  10.702 -1.8588 -2.9528 -1.0224
  182SLPC  H12B20818   0.012   4.283  10.814 -1.4284 -0.0027 -2.3804
  182SLPC   C1120819   0.196   4.306  10.715 -0.0509 -0.4059 -0.7658
  182SLPC  H11A20820   0.255   4.381  10.659  1.7744 -1.9171 -1.0041
  182SLPC  H11B20821   0.169   4.232  10.636  0.4477 -1.6841  0.2291
  182SLPC     P20822   0.270   4.106  10.860 -0.3920 -0.0357 -0.0538
  182SLPC   O1320823   0.406   4.063  10.894 -0.5143  0.0224 -0.4972
  182SLPC   O1420824   0.173   4.100  10.978 -0.4245  0.0533  0.1431
  182SLPC   O1220825   0.285   4.251  10.807  0.1142 -0.1795 -0.1562
  182SLPC   O1120826   0.210   4.023  10.746 -0.4347 -0.5336 -0.2445
  182SLPC    C120827   0.294   3.970  10.645  0.2548 -0.3026  0.7028
  182SLPC    HA20828   0.374   4.040  10.613 -1.1128 -0.5082 -3.7269
  182SLPC    HB20829   0.351   3.878  10.671  0.7189 -0.1131  0.3640
  182SLPC    C220830   0.219   3.942  10.508 -0.7459  0.0412 -0.2032
  182SLPC    HS20831   0.199   4.033  10.447  0.2166  0.4890  0.1377
  182SLPC   O2120832   0.107   3.861  10.537 -0.3323  0.9267  0.3017
  182SLPC   C2120833  -0.006   3.932  10.553 -0.1737  0.0401  0.3093
  182SLPC   O2220834  -0.017   4.050  10.524  0.6481  0.6052 -0.5598
  182SLPC   C2220835  -0.124   3.846  10.588 -0.9190 -0.4515 -0.5413
  182SLPC   H2R20836  -0.113   3.744  10.546  1.2186 -1.0201  1.2142
  182SLPC   H2S20837  -0.135   3.844  10.699  0.5508 -2.8128 -0.3748
  182SLPC    C320838   0.306   3.855  10.412  0.1955  0.2576  0.3724
  182SLPC    HX20839   0.240   3.825  10.328 -0.5714  0.1603  1.0021
  182SLPC    HY20840   0.329   3.765  10.472 -1.7171  0.5979  1.6764
  182SLPC   O3120841   0.419   3.940  10.373 -0.2398  0.0533  0.3331
  182SLPC   C3120842   0.486   3.887  10.268 -0.2393 -0.2454  0.0198
  182SLPC   O3220843   0.445   3.796  10.197  0.3628  0.3876 -0.5660
  182SLPC   C3220844   0.607   3.977  10.240 -0.9134  0.3112  0.4138
  182SLPC   H2X20845   0.664   3.963  10.335  0.8440 -0.9883 -0.7414
  182SLPC   H2Y20846   0.585   4.081  10.209 -1.2053 -1.0091 -4.5798
  182SLPC   C2320847  -0.251   3.900  10.520 -0.1658 -0.5720 -0.3631
  182SLPC   H3R20848  -0.256   4.010  10.538 -3.8801 -0.8339  1.1501
  182SLPC   H3S20849  -0.343   3.849  10.555 -0.3518 -1.8758 -2.5625
  182SLPC   C2420850  -0.273   3.875  10.368  0.6249 -0.1682  0.2725
  182SLPC   H4R20851  -0.380   3.895  10.345  0.7074  1.5216  1.1984
  182SLPC   H4S20852  -0.246   3.769  10.350  0.4743 -0.3858  1.2914
  182SLPC   C2520853  -0.188   3.965  10.271 -0.1511  0.5380 -0.1696
  182SLPC   H5R20854  -0.078   3.962  10.281  0.0137  2.6458 -0.8512
  182SLPC   H5S20855  -0.220   4.070  10.289 -1.6868  0.0874 -0.1041
  182SLPC   C2620856  -0.217   3.940  10.117  0.5498 -0.1155 -1.0910
  182SLPC   H6R20857  -0.162   4.021  10.065 -0.5316 -0.1160 -2.2819
  182SLPC   H6S20858  -0.326   3.955  10.110  0.2331 -1.0783  1.0252
  182SLPC   C2720859  -0.164   3.805  10.066  0.5364  0.4644 -0.7528
  182SLPC   H7R20860  -0.203   3.720  10.126  1.2597  0.0196 -0.8931
  182SLPC   H7S20861  -0.055   3.818  10.084  0.4313  0.6804 -0.2425
  182SLPC   C2820862  -0.205   3.775   9.917  0.0944 -0.5688 -0.4522
  182SLPC   H8R20863  -0.290   3.843   9.897  2.8402  2.3247 -3.6803
  182SLPC   H8S20864  -0.228   3.667   9.904  0.4610 -0.5540 -1.3470
  182SLPC   C2920865  -0.094   3.814   9.819 -0.0041  0.2347  0.1175
  182SLPC   H9R20866   0.003   3.819   9.871  0.1869  1.1987 -0.3083
  182SLPC  C21020867  -0.100   3.850   9.691 -0.1594  0.7981  0.0837
  182SLPC  H10R20868  -0.007   3.872   9.637  1.5653 -2.4369  1.4410
  182SLPC  C21120869  -0.220   3.863   9.610 -0.4265  0.3833 -0.0601
  182SLPC  H11R20870  -0.244   3.972   9.606  1.4126  0.8595  1.0721
  182SLPC  H11S20871  -0.308   3.826   9.667 -0.0874 -0.4372 -0.0623
  182SLPC  C21220872  -0.205   3.812   9.475 -0.3801  0.1451  0.5372
  182SLPC  H12R20873  -0.265   3.721   9.459  0.3157  0.1882 -3.2474
  182SLPC  C21320874  -0.129   3.854   9.375 -0.7591  0.8780  0.0714
  182SLPC  H13R20875  -0.129   3.781   9.292 -1.7608 -3.6804  3.6374
  182SLPC  C21420876  -0.035   3.975   9.361  0.0573 -0.3580 -0.4622
  182SLPC  H14R20877   0.064   3.960   9.410 -0.2954 -1.7402 -0.1143
  182SLPC  H14S20878  -0.075   4.066   9.412 -1.5653 -0.7139 -1.0435
  182SLPC  C21520879  -0.014   3.998   9.213  0.1690 -0.5037  0.2455
  182SLPC  H15R20880  -0.110   4.004   9.158  0.7898 -0.8216 -0.9195
  182SLPC  H15S20881   0.035   3.908   9.171  0.9623 -0.7989  1.7201
  182SLPC  C21620882   0.085   4.109   9.187  0.2286 -0.1991  0.4110
  182SLPC  H16R20883   0.187   4.073   9.211 -0.0811 -1.8435 -0.6053
  182SLPC  H16S20884   0.062   4.196   9.252  0.5242  1.0379 -1.0810
  182SLPC  C21720885   0.095   4.148   9.037 -0.4630  0.4895 -0.1336
  182SLPC  H17R20886   0.162   4.072   8.992  0.7589  0.2974  1.8727
  182SLPC  H17S20887   0.148   4.245   9.025 -1.6522  1.4682  1.9977
  182SLPC  C21820888  -0.037   4.166   8.962  0.6508 -0.1372  0.5152
  182SLPC  H18R20889  -0.102   4.239   9.014  0.6514  0.4916 -0.3370
  182SLPC  H18S20890  -0.096   4.072   8.959  1.3176 -0.5521  0.3060
  182SLPC  H18T20891  -0.013   4.193   8.857 -0.6418  1.6610  0.6311
  182SLPC   C3320892   0.694   3.922  10.123  0.3937 -0.8053 -0.8713
  182SLPC   H3X20893   0.721   3.816  10.139 -3.5680 -1.7040  1.2589
  182SLPC   H3Y20894   0.787   3.983  10.122  0.2125 -0.4373 -3.9131
  182SLPC   C3420895   0.620   3.951   9.983 -0.2021  0.2382 -0.0155
  182SLPC   H4X20896   0.564   4.046   9.981 -1.9385 -0.7388 -1.7223
  182SLPC   H4Y20897   0.554   3.862   9.974 -0.5211  0.6589 -4.6930
  182SLPC   C3520898   0.710   3.936   9.853 -0.0627 -0.2881  0.1513
  182SLPC   H5X20899   0.776   3.848   9.866 -0.5384 -0.3898  2.3612
  182SLPC   H5Y20900   0.770   4.029   9.855  0.9142 -0.8189 -1.9625
  182SLPC   C3620901   0.633   3.945   9.720 -0.0521  0.4316 -0.3674
  182SLPC   H6X20902   0.580   4.042   9.710  0.5184  1.1004  2.3272
  182SLPC   H6Y20903   0.559   3.863   9.727 -0.1753  0.6586  1.9440
  182SLPC   C3720904   0.714   3.923   9.591 -0.3166  0.2611 -0.2494
  182SLPC   H7X20905   0.764   3.824   9.596 -1.4895 -0.3750 -0.6988
  182SLPC   H7Y20906   0.807   3.984   9.596  0.3960 -0.8648  1.2173
  182SLPC   C3820907   0.635   3.958   9.462  0.1915  0.2178  0.1443
  182SLPC   H8X20908   0.716   3.984   9.390  2.0651 -1.0934  1.6642
  182SLPC   H8Y20909   0.575   4.048   9.483  0.8042  0.9249 -1.0430
  182SLPC   C3920910   0.561   3.843   9.398  0.4120 -0.4197 -0.0727
  182SLPC   H9X20911   0.476   3.804   9.458  0.0091  1.7472  0.8524
  182SLPC   H9Y20912   0.633   3.764   9.366 -0.3666 -0.7917 -0.9664
  182SLPC  C31020913   0.501   3.892   9.261 -0.0327  0.4943  0.2555
  182SLPC  H10X20914   0.583   3.949   9.213 -0.2584  1.3988  0.9243
  182SLPC  H10Y20915   0.423   3.971   9.261 -1.2552 -0.6182 -2.1044
  182SLPC  C31120916   0.458   3.778   9.174 -0.2822  0.2164  0.3529
  182SLPC  H11X20917   0.369   3.730   9.221  0.0933 -1.3232 -0.4422
  182SLPC  H11Y20918   0.534   3.698   9.162 -2.1668 -1.5333 -0.5876
  182SLPC  C31220919   0.416   3.821   9.032 -0.5394 -1.1223 -1.1963
  182SLPC  H12X20920   0.339   3.901   9.041 -0.4457 -1.1514  0.0839
  182SLPC  H12Y20921   0.369   3.733   8.983 -2.4710 -0.6376 -0.3119
  182SLPC  C31320922   0.523   3.882   8.946 -0.4587  0.0269 -1.1151
  182SLPC  H13X20923   0.603   3.806   8.935 -1.4033 -0.8983 -1.8115
  182SLPC  H13Y20924   0.568   3.974   8.990  0.1245 -0.0922 -1.4570
  182SLPC  C31420925   0.476   3.938   8.809  0.1102  0.3395  0.6027
  182SLPC  H14X20926   0.556   3.957   8.734 -1.6221 -0.1547 -1.4914
  182SLPC  H14Y20927   0.416   4.030   8.827 -2.7252 -1.2366 -0.0800
  182SLPC  C31520928   0.390   3.836   8.728  0.2851 -0.0570  0.0447
  182SLPC  H15X20929   0.302   3.800   8.786 -0.5848 -1.7836 -2.2328
  182SLPC  H15Y20930   0.458   3.749   8.721 -0.2529 -0.3961 -1.3057
  182SLPC  C31620931   0.354   3.883   8.586  0.6266 -0.4612  0.3510
  182SLPC  H16X20932   0.370   3.799   8.515 -0.1893 -0.0919 -0.2922
  182SLPC  H16Y20933   0.413   3.970   8.553 -0.8318 -0.2039 -1.7641
  182SLPC  C31720934   0.203   3.925   8.571  0.1122  0.4145 -0.8713
  182SLPC  H17X20935   0.137   3.836   8.577  1.1796 -0.5305 -2.5339
  182SLPC  H17Y20936   0.173   3.971   8.474 -2.7485  1.7242  0.4956
  182SLPC  C31820937   0.169   4.030   8.673 -0.3159 -1.0433  0.1227
  182SLPC  H18X20938   0.064   4.064   8.657  0.8384  2.3350 -1.1929
  182SLPC  H18Y20939   0.245   4.111   8.669 -0.3038 -1.0081  0.9935
  182SLPC  H18Z20940   0.181   3.995   8.777  0.1276 -0.8350  0.1447
  183SLPC     N20941   4.458   4.730  10.689  0.1287  0.1673 -0.2138
  183SLPC   C1320942   4.372   4.760  10.802 -0.0331  0.4173 -0.4071
  183SLPC  H13A20943   4.361   4.866  10.813 -0.6098  0.3129  0.0487
  183SLPC  H13B20944   4.276   4.715  10.784  0.8784 -1.5702 -0.5826
  183SLPC  H13C20945   4.408   4.724  10.898 -1.2557  1.7670  0.6095
  183SLPC   C1420946   4.571   4.830  10.687 -0.6649 -0.6323  0.2901
  183SLPC  H14A20947   4.525   4.927  10.676  0.2713 -0.2179 -0.0922
  183SLPC  H14B20948   4.618   4.828  10.784  0.2024 -0.8892 -0.1240
  183SLPC  H14C20949   4.644   4.820  10.608 -1.4385 -0.7811 -0.4149
  183SLPC   C1520950   4.376   4.740  10.563 -1.0210  0.3469  0.1820
  183SLPC  H15A20951   4.300   4.663  10.567 -1.1862  0.4391 -0.9198
  183SLPC  H15B20952   4.331   4.837  10.551  1.3569  1.3586 -1.2225
  183SLPC  H15C20953   4.438   4.712  10.478 -0.9562 -1.4284  0.7564
  183SLPC   C1220954   4.518   4.592  10.702  0.0642  0.1816  0.4519
  183SLPC  H12A20955   4.583   4.593  10.788  1.1267  0.9774 -0.3286
  183SLPC  H12B20956   4.584   4.571  10.619 -0.0162  1.3924  0.0536
  183SLPC   C1120957   4.427   4.466  10.706  0.7569 -0.5584 -0.0052
  183SLPC  H11A20958   4.493   4.377  10.712  1.3339 -0.0391  2.2443
  183SLPC  H11B20959   4.378   4.467  10.606  2.9462  1.0852 -1.1260
  183SLPC     P20960   4.380   4.419  10.958 -0.2093  0.5189  0.1918
  183SLPC   O1320961   4.475   4.518  11.004  0.3202 -0.5036 -0.0085
  183SLPC   O1420962   4.264   4.390  11.047 -0.1134  0.4319 -0.3848
  183SLPC   O1220963   4.327   4.463  10.811 -0.1428 -0.2776 -0.0633
  183SLPC   O1120964   4.465   4.287  10.918 -0.1869 -0.7187 -0.0949
  183SLPC    C120965   4.412   4.160  10.956 -0.3557 -0.0088  0.5658
  183SLPC    HA20966   4.496   4.087  10.960 -0.3610  0.0144  1.2523
  183SLPC    HB20967   4.361   4.150  11.054 -0.2157 -1.6711  0.4931
  183SLPC    C220968   4.328   4.093  10.842 -0.3042 -0.4625  0.6115
  183SLPC    HS20969   4.344   3.984  10.850  2.6282 -0.0232  2.0373
  183SLPC   O2120970   4.350   4.148  10.712 -0.1525 -0.1931 -0.2962
  183SLPC   C2120971   4.450   4.104  10.652 -0.0830 -1.0920 -0.1618
  183SLPC   O2220972   4.531   4.020  10.680 -0.0918  1.1779 -0.1270
  183SLPC   C2220973   4.453   4.170  10.510 -0.0676  0.5281  0.2419
  183SLPC   H2R20974   4.352   4.173  10.465 -0.1853  0.3882  0.4971
  183SLPC   H2S20975   4.483   4.276  10.522 -0.8563  0.5981  1.8243
  183SLPC    C320976   4.179   4.110  10.867 -0.6557  0.3174 -0.6216
  183SLPC    HX20977   4.164   4.220  10.869  1.0883  0.5991 -1.1899
  183SLPC    HY20978   4.163   4.069  10.969 -2.4436 -1.9913 -1.7498
  183SLPC   O3120979   4.117   4.045  10.758  0.3171 -0.0451 -0.0846
  183SLPC   C3120980   4.038   4.110  10.675  0.3604  0.5561  0.6562
  183SLPC   O3220981   4.029   4.232  10.667  0.0343 -0.2425 -0.0119
  183SLPC   C3220982   3.948   4.014  10.605 -0.9468  0.8150 -0.4805
  183SLPC   H2X20983   3.849   4.022  10.654 -0.5030 -0.3033  0.6418
  183SLPC   H2Y20984   3.987   3.913  10.629  0.2970  1.1819 -0.8824
  183SLPC   C2320985   4.549   4.097  10.410 -0.4135 -0.3688  0.7007
  183SLPC   H3R20986   4.501   3.997  10.400 -0.3284 -0.4193  0.7993
  183SLPC   H3S20987   4.647   4.084  10.461 -1.0684  0.1799  2.1614
  183SLPC   C2420988   4.556   4.159  10.267 -0.6172 -0.6159 -0.0295
  183SLPC   H4R20989   4.613   4.254  10.271 -0.6964 -0.5872  0.4325
  183SLPC   H4S20990   4.453   4.175  10.227 -0.5695 -1.0752 -0.3490
  183SLPC   C2520991   4.629   4.061  10.176  0.1256 -0.2790  0.6022
  183SLPC   H5R20992   4.568   3.969  10.171  0.7006 -0.6361 -0.0667
  183SLPC   H5S20993   4.730   4.038  10.217  1.1731  0.6029 -1.3256
  183SLPC   C2620994   4.671   4.106  10.037  0.0811 -0.0273 -0.0249
  183SLPC   H6R20995   4.737   4.195  10.042 -0.8123  0.6790 -0.5004
  183SLPC   H6S20996   4.575   4.137   9.991 -1.1892 -0.8325  1.9515
  183SLPC   C2720997   4.733   3.995   9.953  0.0096 -1.1458 -0.4592
  183SLPC   H7R20998   4.663   3.911   9.930 -1.5431  0.2577 -1.0983
  183SLPC   H7S20999   4.825   3.961  10.005  2.1719  1.8014 -2.0632
  183SLPC   C2821000   4.759   4.049   9.808  0.0352  0.2869 -0.7556
  183SLPC   H8R21001   4.811   4.146   9.819  1.1642 -0.5168  1.5007
  183SLPC   H8S21002   4.663   4.078   9.760 -1.2123 -1.2793  0.6577
  183SLPC   C2921003   4.840   3.961   9.710  0.1887  0.0934 -1.2669
  183SLPC   H9R21004   4.915   3.902   9.764 -0.3374  1.0423  0.5832
  183SLPC  C21021005   4.846   3.967   9.578  0.5159 -0.0650  0.7358
  183SLPC  H10R21006   4.920   3.905   9.524  0.2584  0.3195 -0.0842
  183SLPC  C21121007   4.770   4.058   9.489  0.6937 -0.4317  0.3729
  183SLPC  H11R21008   4.730   4.141   9.551 -0.9928 -0.9063 -0.0331
  183SLPC  H11S21009   4.684   3.995   9.459  0.9092 -0.5730  0.0446
  183SLPC  C21221010   4.839   4.109   9.370 -0.3205  0.0434 -0.0238
  183SLPC  H12R21011   4.875   4.213   9.382 -1.0169  0.1528  1.2493
  183SLPC  C21321012   4.869   4.042   9.254  0.3643 -0.1133 -0.4953
  183SLPC  H13R21013   4.932   4.086   9.175  0.9997 -1.1863 -0.5949
  183SLPC  C21421014   4.811   3.901   9.229 -0.2408 -0.4893 -0.4598
  183SLPC  H14R21015   4.744   3.859   9.308  0.8307 -1.1165  0.1501
  183SLPC  H14S21016   4.887   3.822   9.211 -1.3991 -1.0526 -3.3449
  183SLPC  C21521017   4.730   3.887   9.098 -0.1928  0.0383  0.9471
  183SLPC  H15R21018   4.639   3.944   9.123 -0.2702  0.2617  0.1782
  183SLPC  H15S21019   4.705   3.780   9.079  0.0054 -0.2150  2.0055
  183SLPC  C21621020   4.802   3.934   8.972  0.5591 -0.0094  0.9276
  183SLPC  H16R21021   4.905   3.895   8.968  0.2974 -0.6045 -0.3023
  183SLPC  H16S21022   4.810   4.045   8.976 -1.0174  0.1558  0.3424
  183SLPC  C21721023   4.730   3.901   8.832  0.0219 -0.0991 -0.8721
  183SLPC  H17R21024   4.693   3.798   8.851 -1.6384  0.7556  0.8794
  183SLPC  H17S21025   4.807   3.893   8.753  1.0858  0.7026  0.0475
  183SLPC  C21821026   4.622   3.997   8.787 -0.1420  0.1478  0.0750
  183SLPC  H18R21027   4.657   4.101   8.805  2.2752 -0.6691  0.4459
  183SLPC  H18S21028   4.522   3.990   8.834 -0.4416 -0.9396 -0.6972
  183SLPC  H18T21029   4.601   3.993   8.678  0.4613  3.3274 -0.2794
  183SLPC   C3321030   3.939   4.037  10.454  0.1894 -0.3783 -0.6876
  183SLPC   H3X21031   3.948   4.145  10.431  0.3444 -0.6772 -2.1823
  183SLPC   H3Y21032   3.847   4.003  10.400 -0.3203  0.5606 -0.4299
  183SLPC   C3421033   4.059   3.970  10.382  0.5043  0.5240  0.3755
  183SLPC   H4X21034   4.050   3.859  10.382  0.4588  0.5265  0.1531
  183SLPC   H4Y21035   4.155   3.991  10.434  0.2794 -1.3655  1.6583
  183SLPC   C3521036   4.081   4.033  10.244  1.0349 -0.2651  0.2313
  183SLPC   H5X21037   4.125   4.135  10.252 -0.5300  0.4461  0.1700
  183SLPC   H5Y21038   3.983   4.036  10.192  1.3394 -0.8490 -0.3894
  183SLPC   C3621039   4.170   3.950  10.156  0.2425 -0.4023 -0.5438
  183SLPC   H6X21040   4.118   3.851  10.147  2.6332 -1.6733 -1.3155
  183SLPC   H6Y21041   4.270   3.926  10.199 -1.0654 -1.4846  2.1360
  183SLPC   C3721042   4.175   4.020  10.024 -0.1270  0.8291  0.0783
  183SLPC   H7X21043   4.199   4.128  10.032 -2.7999  1.5381 -0.6450
  183SLPC   H7Y21044   4.072   4.019   9.982 -0.4144  1.2478  0.7600
  183SLPC   C3821045   4.282   3.940   9.936  0.2009  0.0762 -0.4819
  183SLPC   H8X21046   4.250   3.835   9.917  2.1557 -0.5104 -0.7871
  183SLPC   H8Y21047   4.380   3.934   9.988 -0.4761 -1.3052  0.6938
  183SLPC   C3921048   4.306   4.011   9.800  0.6030 -0.6200  0.1186
  183SLPC   H9X21049   4.409   3.980   9.774  0.6381 -0.7102  0.3570
  183SLPC   H9Y21050   4.299   4.119   9.825 -1.1240 -0.8925  0.9883
  183SLPC  C31021051   4.211   3.979   9.692  0.2692 -0.3979  0.3812
  183SLPC  H10X21052   4.105   3.983   9.724  0.3274  3.9636  0.6464
  183SLPC  H10Y21053   4.240   3.878   9.657 -1.4103 -0.8359  0.1707
  183SLPC  C31121054   4.235   4.069   9.567  0.9467 -0.0147  0.1477
  183SLPC  H11X21055   4.206   4.175   9.586  0.3300  0.2522 -1.9611
  183SLPC  H11Y21056   4.170   4.030   9.485  2.2036  0.5252 -1.1659
  183SLPC  C31221057   4.385   4.073   9.528  0.7912 -0.0521  0.0484
  183SLPC  H12X21058   4.427   3.972   9.507 -0.6216 -0.5812 -0.2778
  183SLPC  H12Y21059   4.439   4.129   9.608  0.1480  1.6538 -0.6593
  183SLPC  C31321060   4.409   4.159   9.405  0.0931 -0.7372 -0.6306
  183SLPC  H13X21061   4.517   4.176   9.384  0.0237  1.0965  0.2301
  183SLPC  H13Y21062   4.377   4.263   9.431  0.6912 -1.0377  1.5718
  183SLPC  C31421063   4.336   4.103   9.284 -0.5906 -0.4633 -0.1850
  183SLPC  H14X21064   4.225   4.113   9.287 -0.5920  0.1016 -1.2961
  183SLPC  H14Y21065   4.364   3.998   9.265  1.5136  0.1512 -0.7127
  183SLPC  C31521066   4.375   4.184   9.152  0.4044  0.2904  0.1989
  183SLPC  H15X21067   4.484   4.204   9.163  0.9848 -2.5612  0.3125
  183SLPC  H15Y21068   4.329   4.286   9.154  0.8013  0.4710  0.3772
  183SLPC  C31621069   4.344   4.117   9.019 -0.1236  0.0149 -0.1478
  183SLPC  H16X21070   4.422   4.041   8.998  1.3783  1.9780 -2.1855
  183SLPC  H16Y21071   4.351   4.194   8.939  2.3967 -0.7675 -0.7904
  183SLPC  C31721072   4.215   4.040   9.012  0.1749  0.3364  0.6965
  183SLPC  H17X21073   4.132   4.075   9.077 -0.0734 -1.0908  1.1833
  183SLPC  H17Y21074   4.222   3.935   9.047 -0.0619 -0.1157 -0.5550
  183SLPC  C31821075   4.159   4.041   8.871 -0.6028  0.3789  0.7772
  183SLPC  H18X21076   4.236   4.026   8.792  1.0375 -3.1279  2.7940
  183SLPC  H18Y21077   4.109   4.137   8.846  0.1166  0.6583  0.3954
  183SLPC  H18Z21078   4.092   3.955   8.855 -1.6429  1.0697  1.3058
  184SLPC     N21079   5.679   0.656  10.813 -0.1585 -0.6359  0.5150
  184SLPC   C1321080   5.683   0.511  10.834 -0.2567  0.3690 -0.1477
  184SLPC  H13A21081   5.681   0.461  10.738  0.6757  2.6545 -1.4463
  184SLPC  H13B21082   5.779   0.481  10.874 -0.0941 -0.3338 -1.0237
  184SLPC  H13C21083   5.599   0.477  10.892  1.1754 -0.7423  1.3571
  184SLPC   C1421084   5.797   0.701  10.717 -0.4265 -0.4035 -0.6091
  184SLPC  H14A21085   5.781   0.662  10.618 -1.5693 -1.2087 -0.1279
  184SLPC  H14B21086   5.800   0.808  10.703 -0.2105 -0.1292  1.2662
  184SLPC  H14C21087   5.892   0.664  10.754  0.3749  0.9128 -1.2765
  184SLPC   C1521088   5.702   0.719  10.947 -0.0697 -0.2315  0.1665
  184SLPC  H15A21089   5.651   0.665  11.026  1.4501 -1.8288  0.1057
  184SLPC  H15B21090   5.806   0.712  10.973  0.1500 -0.4060 -0.7227
  184SLPC  H15C21091   5.679   0.825  10.944 -0.1715 -0.2787 -1.5932
  184SLPC   C1221092   5.543   0.690  10.748 -0.3646 -0.0068 -0.7304
  184SLPC  H12A21093   5.528   0.624  10.664 -1.6166 -2.6452  1.4122
  184SLPC  H12B21094   5.559   0.789  10.706  0.4089 -0.1443 -0.7708
  184SLPC   C1121095   5.414   0.688  10.837  0.2536 -0.3579  0.5998
  184SLPC  H11A21096   5.350   0.761  10.783  0.6986 -0.8632 -0.6521
  184SLPC  H11B21097   5.438   0.723  10.940  0.1279  1.0994  0.1582
  184SLPC     P21098   5.307   0.475  10.732 -0.2003  0.0083 -0.1083
  184SLPC   O1321099   5.261   0.347  10.784  0.5420  0.2915 -0.1660
  184SLPC   O1421100   5.207   0.557  10.663 -0.1059  0.5694  0.5313
  184SLPC   O1221101   5.357   0.560  10.849 -0.2175  0.3999  0.2062
  184SLPC   O1121102   5.438   0.459  10.646 -0.3401  0.0715  0.4093
  184SLPC    C121103   5.453   0.373  10.531  0.1881  0.0496 -0.3729
  184SLPC    HA21104   5.555   0.332  10.522 -0.0447 -0.4889 -0.5620
  184SLPC    HB21105   5.396   0.282  10.560 -0.4261  1.2198  2.4639
  184SLPC    C221106   5.415   0.444  10.403  0.6798  0.2975  0.3258
  184SLPC    HS21107   5.321   0.503  10.418 -0.2854 -0.8576 -0.9313
  184SLPC   O2121108   5.392   0.346  10.303  0.0537  0.1397  0.2548
  184SLPC   C2121109   5.278   0.286  10.297  0.3404 -0.1842 -0.1485
  184SLPC   O2221110   5.182   0.314  10.368  0.7961  0.3052  0.3796
  184SLPC   C2221111   5.282   0.179  10.189  0.2392  0.1476  0.2536
  184SLPC   H2R21112   5.381   0.181  10.139  0.6296  0.5881  1.0214
  184SLPC   H2S21113   5.244   0.086  10.235  1.5090  0.4335  1.9699
  184SLPC    C321114   5.519   0.539  10.351  0.1236 -0.1902 -0.1485
  184SLPC    HX21115   5.615   0.484  10.346 -1.1227 -2.5356 -0.0511
  184SLPC    HY21116   5.543   0.618  10.424  0.0744  0.9061 -1.2847
  184SLPC   O3121117   5.481   0.597  10.229 -0.4383 -0.1296  0.8238
  184SLPC   C3121118   5.582   0.649  10.149 -0.0640 -0.1753 -0.5771
  184SLPC   O3221119   5.694   0.668  10.180 -0.7659 -0.0635  0.0683
  184SLPC   C3221120   5.531   0.653  10.005 -0.4327  0.1498  0.7569
  184SLPC   H2X21121   5.589   0.731   9.951  1.2659 -0.9803  0.8677
  184SLPC   H2Y21122   5.429   0.696  10.009 -0.4015  0.2705  0.3365
  184SLPC   C2321123   5.181   0.213  10.075 -0.1739  0.6994 -0.2462
  184SLPC   H3R21124   5.201   0.301  10.010  0.8313  1.1735  0.6753
  184SLPC   H3S21125   5.076   0.224  10.110 -0.0656  0.9457  0.0058
  184SLPC   C2421126   5.174   0.089   9.983 -0.4855 -0.0008 -0.1365
  184SLPC   H4R21127   5.106   0.016  10.032  0.2355 -0.9899 -0.5651
  184SLPC   H4S21128   5.271   0.034   9.980 -1.2003 -1.2737 -1.8632
  184SLPC   C2521129   5.131   0.127   9.845 -0.0033  0.1556 -0.3969
  184SLPC   H5R21130   5.188   0.207   9.794 -1.9472  2.0134  0.2213
  184SLPC   H5S21131   5.035   0.181   9.857  0.9313  1.8618 -0.3769
  184SLPC   C2621132   5.111   0.006   9.760 -0.4585 -0.0940 -0.2089
  184SLPC   H6R21133   5.032  -0.058   9.802 -0.2648 -0.9969 -1.1673
  184SLPC   H6S21134   5.208  -0.048   9.752 -0.9023 -1.4808  2.7491
  184SLPC   C2721135   5.075   0.046   9.610 -0.0079  0.7596 -0.1737
  184SLPC   H7R21136   5.161   0.109   9.580  1.6982 -0.5513  1.7000
  184SLPC   H7S21137   4.982   0.106   9.602 -0.0658  0.8256  0.8143
  184SLPC   C2821138   5.070  -0.076   9.514  0.1748  0.4516 -0.5397
  184SLPC   H8R21139   4.981  -0.137   9.538  0.9622 -0.7311 -0.5783
  184SLPC   H8S21140   5.159  -0.134   9.545  0.1119  0.8451  0.4137
  184SLPC   C2921141   5.067  -0.050   9.365  0.1551 -0.1089  0.6258
  184SLPC   H9R21142   5.161  -0.006   9.330 -1.0661  0.7621 -1.7469
  184SLPC  C21021143   4.969  -0.064   9.270 -0.4032  0.4205 -0.5986
  184SLPC  H10R21144   4.991  -0.047   9.164 -1.3114 -1.4737 -1.1221
  184SLPC  C21121145   4.831  -0.126   9.301 -0.2271  0.5477 -0.5735
  184SLPC  H11R21146   4.821  -0.138   9.411  0.2120 -0.5624 -0.6470
  184SLPC  H11S21147   4.820  -0.224   9.252 -2.7380  0.6495 -0.3262
  184SLPC  C21221148   4.720  -0.051   9.237  0.4092 -0.1587 -0.7978
  184SLPC  H12R21149   4.746   0.020   9.157  0.0242  1.5522  0.5373
  184SLPC  C21321150   4.595  -0.091   9.255  0.6662 -0.2041 -0.5663
  184SLPC  H13R21151   4.522  -0.019   9.215 -0.9472 -1.3994  0.0919
  184SLPC  C21421152   4.543  -0.193   9.356 -0.2399 -0.7315 -0.0162
  184SLPC  H14R21153   4.441  -0.157   9.381  0.1176  0.5536 -0.3420
  184SLPC  H14S21154   4.602  -0.201   9.449  0.0232 -2.0545 -0.2767
  184SLPC  C21521155   4.519  -0.325   9.293  0.5227  0.0832 -0.3060
  184SLPC  H15R21156   4.601  -0.360   9.227  1.4842  3.4972 -1.1144
  184SLPC  H15S21157   4.438  -0.319   9.217 -2.2619 -4.0811  1.9383
  184SLPC  C21621158   4.483  -0.438   9.390  0.1457 -1.3578  0.0842
  184SLPC  H16R21159   4.400  -0.406   9.457 -0.8893 -2.5216 -0.5753
  184SLPC  H16S21160   4.575  -0.447   9.450  0.1520 -1.6580  0.0340
  184SLPC  C21721161   4.442  -0.571   9.324 -0.4236 -0.1319  0.4863
  184SLPC  H17R21162   4.522  -0.618   9.263 -0.7204  1.0346 -0.8651
  184SLPC  H17S21163   4.359  -0.558   9.251 -0.1837 -1.4534 -0.0488
  184SLPC  C21821164   4.387  -0.665   9.426  0.5996 -0.1571 -0.2961
  184SLPC  H18R21165   4.314  -0.604   9.483  0.3188 -1.6179  0.9364
  184SLPC  H18S21166   4.464  -0.708   9.493  2.1594  1.5242 -0.9266
  184SLPC  H18T21167   4.335  -0.748   9.373 -0.2644  0.9107 -1.1709
  184SLPC   C3321168   5.526   0.514   9.941 -0.3976  0.3389 -0.2345
  184SLPC   H3X21169   5.467   0.442  10.000  0.1659 -0.8237 -1.0594
  184SLPC   H3Y21170   5.629   0.474   9.933  1.0610  3.4228  1.2458
  184SLPC   C3421171   5.459   0.526   9.808 -0.0821 -0.0259  0.1693
  184SLPC   H4X21172   5.508   0.608   9.752  0.7653 -0.4437  0.2859
  184SLPC   H4Y21173   5.350   0.547   9.805 -0.1506 -0.4618 -0.9631
  184SLPC   C3521174   5.469   0.390   9.730 -0.2569 -0.0004 -0.3749
  184SLPC   H5X21175   5.411   0.306   9.774 -1.5413 -1.0996 -3.7712
  184SLPC   H5Y21176   5.572   0.349   9.740 -0.6977 -0.7424  1.5954
  184SLPC   C3621177   5.438   0.400   9.582  0.0282 -0.0065 -0.8779
  184SLPC   H6X21178   5.507   0.485   9.563  0.4564  0.3927  2.0471
  184SLPC   H6Y21179   5.333   0.427   9.554 -0.5499 -1.3746 -0.1194
  184SLPC   C3721180   5.476   0.271   9.511 -0.4929 -0.0709 -0.0101
  184SLPC   H7X21181   5.393   0.199   9.532 -1.0321  0.1839 -1.1603
  184SLPC   H7Y21182   5.560   0.209   9.549 -1.2318 -1.5715 -0.7037
  184SLPC   C3821183   5.495   0.276   9.358 -1.5124 -0.3596 -0.4597
  184SLPC   H8X21184   5.592   0.257   9.308 -1.3047 -1.3025  0.2967
  184SLPC   H8Y21185   5.469   0.381   9.330  0.9492  0.4999  0.2366
  184SLPC   C3921186   5.401   0.181   9.291  0.0926 -0.4879  0.0628
  184SLPC   H9X21187   5.298   0.166   9.331 -0.0359 -3.0234 -0.9884
  184SLPC   H9Y21188   5.445   0.079   9.296  1.1357  0.0070  1.7908
  184SLPC  C31021189   5.394   0.215   9.140  0.2449  0.0167  0.0840
  184SLPC  H10X21190   5.493   0.182   9.104  0.4312  1.7693 -1.1567
  184SLPC  H10Y21191   5.377   0.322   9.116  1.2702  0.2228  0.2262
  184SLPC  C31121192   5.287   0.130   9.078  0.4774  0.4387  0.4964
  184SLPC  H11X21193   5.251   0.163   8.978 -0.5985  0.8037  0.9824
  184SLPC  H11Y21194   5.198   0.149   9.143  1.7778 -1.6010  3.0585
  184SLPC  C31221195   5.301  -0.024   9.080  0.3142 -0.4432 -0.1536
  184SLPC  H12X21196   5.297  -0.054   9.187 -0.6206 -1.2332 -0.3988
  184SLPC  H12Y21197   5.405  -0.050   9.050 -0.1476 -0.5179 -1.7235
  184SLPC  C31321198   5.209  -0.101   8.990 -0.0769  0.5074 -0.1316
  184SLPC  H13X21199   5.106  -0.060   8.995  0.2601  1.2557  1.9199
  184SLPC  H13Y21200   5.205  -0.204   9.031 -0.4831  1.3712  2.2102
  184SLPC  C31421201   5.263  -0.101   8.844 -0.3916 -0.4986 -0.3365
  184SLPC  H14X21202   5.374  -0.114   8.842 -0.3128  0.0897 -0.0728
  184SLPC  H14Y21203   5.253  -0.005   8.789  2.1039 -0.5986 -1.0845
  184SLPC  C31521204   5.195  -0.214   8.767 -0.1540 -0.5451 -0.1922
  184SLPC  H15X21205   5.085  -0.219   8.784 -0.1908 -2.2884 -0.7403
  184SLPC  H15Y21206   5.239  -0.310   8.800 -0.4721 -1.1054 -1.3370
  184SLPC  C31621207   5.211  -0.224   8.612 -0.7255 -0.2242  0.3369
  184SLPC  H16X21208   5.317  -0.199   8.593  0.3690 -3.7220  1.2116
  184SLPC  H16Y21209   5.146  -0.144   8.569 -1.3322 -0.1721  1.3016
  184SLPC  C31721210   5.178  -0.362   8.543 -0.2725  0.1589 -0.0312
  184SLPC  H17X21211   5.214  -0.354   8.438  0.9870  2.7303  0.5120
  184SLPC  H17Y21212   5.068  -0.368   8.532 -0.3845  1.1870  0.4231
  184SLPC  C31821213   5.247  -0.485   8.607  0.1898  0.4427 -0.7194
  184SLPC  H18X21214   5.236  -0.572   8.540 -1.9125  0.0444  0.0620
  184SLPC  H18Y21215   5.197  -0.517   8.701  1.6458 -0.7035 -0.3059
  184SLPC  H18Z21216   5.353  -0.463   8.630 -0.2197 -0.2946  2.1586
  185SLPC     N21217   5.082   3.471   6.151  0.1091 -0.0287 -0.1800
  185SLPC   C1321218   5.091   3.614   6.174 -0.6360 -0.4209 -0.2566
  185SLPC  H13A21219   4.995   3.661   6.158 -0.3988 -0.3486 -1.6774
  185SLPC  H13B21220   5.125   3.640   6.272 -1.5482 -1.6893  0.4261
  185SLPC  H13C21221   5.150   3.657   6.094 -2.3632  1.9187 -0.3886
  185SLPC   C1421222   5.218   3.415   6.166  0.2153 -0.1190  0.1905
  185SLPC  H14A21223   5.250   3.422   6.269 -1.7855 -0.4034  0.8784
  185SLPC  H14B21224   5.209   3.310   6.140 -1.2777  0.5834 -2.5311
  185SLPC  H14C21225   5.291   3.464   6.104 -0.3536 -1.3369 -1.5293
  185SLPC   C1521226   5.035   3.448   6.012 -0.5000 -0.1966  0.1006
  185SLPC  H15A21227   5.044   3.343   5.989  1.9595 -0.4917  2.0692
  185SLPC  H15B21228   4.934   3.485   5.999 -1.1062 -0.7185  2.7582
  185SLPC  H15C21229   5.097   3.501   5.941 -0.2894  0.0517  0.4666
  185SLPC   C1221230   4.973   3.415   6.237  0.0741  0.1384  0.7119
  185SLPC  H12A21231   4.978   3.308   6.222 -0.4016  0.4194 -2.1132
  185SLPC  H12B21232   4.876   3.435   6.193 -0.3589 -2.7026  0.1564
  185SLPC   C1121233   4.978   3.440   6.390  0.4434  0.4180 -0.1827
  185SLPC  H11A21234   4.885   3.414   6.444 -0.1878  0.1781 -1.3631
  185SLPC  H11B21235   4.977   3.550   6.404 -0.3714  0.7445 -2.3304
  185SLPC     P21236   5.095   3.238   6.503  0.4173  0.0305  0.0094
  185SLPC   O1321237   5.011   3.159   6.412 -0.1986  0.0814  0.4663
  185SLPC   O1421238   5.232   3.194   6.511  0.3109  0.1947 -0.2334
  185SLPC   O1221239   5.094   3.380   6.445 -0.5025 -0.5439 -0.3039
  185SLPC   O1121240   5.030   3.250   6.643  0.4360 -0.4846 -0.3011
  185SLPC    C121241   5.106   3.305   6.754  0.2334  0.7686  0.0781
  185SLPC    HA21242   5.191   3.235   6.771 -0.8627 -0.4947  0.6025
  185SLPC    HB21243   5.141   3.409   6.737 -0.9920  0.9773 -1.3579
  185SLPC    C221244   5.028   3.315   6.890  0.3815  0.3304 -0.5364
  185SLPC    HS21245   5.091   3.385   6.949  1.8218  0.3635 -2.0575
  185SLPC   O2121246   5.023   3.180   6.949 -0.0974  0.1908  0.0579
  185SLPC   C2121247   5.031   3.178   7.079 -0.0862 -0.4706  0.3839
  185SLPC   O2221248   5.024   3.268   7.162 -0.0888 -0.2302  0.4422
  185SLPC   C2221249   5.065   3.029   7.115  0.1510 -0.4222  0.8125
  185SLPC   H2R21250   4.992   2.977   7.048 -0.8597  2.8816 -0.8889
  185SLPC   H2S21251   5.173   3.012   7.094  0.4434  1.6800  0.4005
  185SLPC    C321252   4.886   3.377   6.871  0.2133  0.4517 -0.1047
  185SLPC    HX21253   4.827   3.305   6.810 -1.1289  0.8771  0.6547
  185SLPC    HY21254   4.897   3.475   6.820 -1.7144  0.7960  0.0715
  185SLPC   O3121255   4.811   3.398   6.990 -0.1213  0.1301  0.2167
  185SLPC   C3121256   4.864   3.497   7.059 -0.5516  0.0412 -0.7988
  185SLPC   O3221257   4.951   3.575   7.018  0.2179  0.0075 -0.2975
  185SLPC   C3221258   4.796   3.503   7.201 -0.0670 -0.3951 -0.1183
  185SLPC   H2X21259   4.810   3.405   7.251  1.1205  1.4162  3.4230
  185SLPC   H2Y21260   4.687   3.525   7.188  0.3574  0.9642 -1.7331
  185SLPC   C2321261   5.044   2.991   7.261 -0.3878 -0.2132  0.2339
  185SLPC   H3R21262   5.022   2.882   7.262 -0.0099 -0.2941 -0.2698
  185SLPC   H3S21263   4.947   3.033   7.294 -1.6606 -1.2055 -2.0185
  185SLPC   C2421264   5.155   3.037   7.352 -0.0317  0.3097 -0.1397
  185SLPC   H4R21265   5.186   3.141   7.328  0.4253  0.8326  2.4230
  185SLPC   H4S21266   5.243   2.977   7.320 -1.6146 -2.1393 -0.1743
  185SLPC   C2521267   5.115   3.031   7.498 -0.3389 -0.4238 -0.4354
  185SLPC   H5R21268   5.050   2.946   7.526 -0.2107 -0.0977  0.9765
  185SLPC   H5S21269   5.045   3.115   7.520 -2.1716 -1.7749 -0.9365
  185SLPC   C2621270   5.235   3.033   7.593 -0.8740 -0.1136 -0.1575
  185SLPC   H6R21271   5.317   3.094   7.549 -0.0332  0.7320  2.4003
  185SLPC   H6S21272   5.283   2.934   7.605  2.1932  1.4814  2.0426
  185SLPC   C2721273   5.208   3.076   7.734  0.6802  0.2528 -1.2710
  185SLPC   H7R21274   5.131   3.011   7.782  0.3952  0.6916 -1.1281
  185SLPC   H7S21275   5.169   3.180   7.745  0.0479  0.1841 -2.6380
  185SLPC   C2821276   5.337   3.056   7.832 -0.1796  0.4230  0.3415
  185SLPC   H8R21277   5.308   3.120   7.918  0.5043  1.1648  0.0325
  185SLPC   H8S21278   5.423   3.107   7.785 -0.1317  1.6408  1.7081
  185SLPC   C2921279   5.366   2.905   7.860 -0.1109 -0.0681 -0.9815
  185SLPC   H9R21280   5.418   2.842   7.787  1.4646  0.1018 -0.0599
  185SLPC  C21021281   5.350   2.843   7.973  0.1362  0.0846 -0.1731
  185SLPC  H10R21282   5.360   2.734   7.986 -0.2028  0.1326  0.5270
  185SLPC  C21121283   5.292   2.922   8.087  0.5227  0.6223  0.1109
  185SLPC  H11R21284   5.187   2.949   8.067  0.8744  1.3974 -0.7318
  185SLPC  H11S21285   5.353   3.012   8.109  3.7508 -1.0083 -1.3367
  185SLPC  C21221286   5.310   2.846   8.219  0.1868 -0.3644  0.2860
  185SLPC  H12R21287   5.391   2.771   8.213  0.5442  0.0918 -0.8401
  185SLPC  C21321288   5.248   2.872   8.335  0.1050 -0.2918  0.4204
  185SLPC  H13R21289   5.280   2.820   8.427 -1.7055 -1.5606  0.3854
  185SLPC  C21421290   5.148   2.980   8.359  0.2064 -0.0522 -0.4078
  185SLPC  H14R21291   5.079   2.959   8.443 -0.4940 -1.7145 -1.3630
  185SLPC  H14S21292   5.078   2.971   8.274 -0.2080 -0.7569  0.0068
  185SLPC  C21521293   5.201   3.119   8.384  0.0309 -0.1396  0.8528
  185SLPC  H15R21294   5.113   3.186   8.395  0.0564 -0.1189  0.9315
  185SLPC  H15S21295   5.256   3.155   8.295 -1.4341  2.3158  0.8448
  185SLPC  C21621296   5.285   3.132   8.515  0.2483  0.1715 -0.1925
  185SLPC  H16R21297   5.356   3.046   8.514  0.7807  0.5906  0.4406
  185SLPC  H16S21298   5.211   3.116   8.596 -1.8584  2.4168 -1.5664
  185SLPC  C21721299   5.365   3.259   8.541  0.1315  0.2574 -0.4513
  185SLPC  H17R21300   5.417   3.276   8.444 -2.3740  2.8589 -1.5004
  185SLPC  H17S21301   5.432   3.236   8.626 -2.7500 -2.0383  1.3387
  185SLPC  C21821302   5.286   3.385   8.561  0.9729 -0.0297 -0.2774
  185SLPC  H18R21303   5.217   3.380   8.474 -0.7511 -3.2651  1.0717
  185SLPC  H18S21304   5.342   3.480   8.553  0.0234  0.6391  0.6943
  185SLPC  H18T21305   5.219   3.389   8.650  1.3435 -0.8274  0.0547
  185SLPC   C3321306   4.863   3.615   7.286  0.3306 -0.0991  0.4582
  185SLPC   H3X21307   4.821   3.717   7.273 -1.0979 -0.4046  2.3294
  185SLPC   H3Y21308   4.969   3.625   7.252 -0.4997 -1.2064 -2.8248
  185SLPC   C3421309   4.867   3.575   7.429 -0.5526  0.2515 -0.6252
  185SLPC   H4X21310   4.952   3.505   7.445  0.9333  2.2924  0.9093
  185SLPC   H4Y21311   4.770   3.526   7.453 -0.8015  0.3670 -1.3696
  185SLPC   C3521312   4.882   3.695   7.515 -0.2025  0.1237 -0.2414
  185SLPC   H5X21313   4.788   3.752   7.506  0.4389  0.9634 -2.1763
  185SLPC   H5Y21314   4.963   3.770   7.498 -1.6054  1.4940 -1.1068
  185SLPC   C3621315   4.889   3.660   7.664  0.7210  0.5307  0.5347
  185SLPC   H6X21316   4.971   3.585   7.676  1.3164  1.2345  0.9240
  185SLPC   H6Y21317   4.794   3.608   7.687  0.8926 -0.0120  0.0368
  185SLPC   C3721318   4.913   3.776   7.764  0.0325  0.3246  0.4585
  185SLPC   H7X21319   4.820   3.835   7.751 -0.2402 -0.1250  0.3469
  185SLPC   H7Y21320   5.002   3.827   7.721 -0.3061 -0.1198 -0.8251
  185SLPC   C3821321   4.928   3.734   7.914 -0.4192  0.0224 -1.1489
  185SLPC   H8X21322   5.010   3.661   7.925 -0.1037  0.5973  0.5755
  185SLPC   H8Y21323   4.837   3.677   7.944 -1.3732  0.4715 -3.0304
  185SLPC   C3921324   4.952   3.849   8.014 -0.0571  0.3175  0.5716
  185SLPC   H9X21325   4.905   3.940   7.972 -0.5585  0.1080  0.6820
  185SLPC   H9Y21326   5.060   3.874   8.025 -0.6030  2.2955  2.0527
  185SLPC  C31021327   4.899   3.814   8.154 -0.3444  0.4665 -0.3846
  185SLPC  H10X21328   4.788   3.811   8.160 -0.3438 -1.5249 -0.5434
  185SLPC  H10Y21329   4.933   3.884   8.233 -0.8513 -3.0871  3.2955
  185SLPC  C31121330   4.960   3.678   8.214 -0.6594 -0.2533  0.2803
  185SLPC  H11X21331   5.069   3.669   8.196 -0.5042 -2.0488  1.8468
  185SLPC  H11Y21332   4.913   3.597   8.154  0.1945  1.2192 -2.5999
  185SLPC  C31221333   4.925   3.659   8.356 -0.0140  0.1183 -0.6522
  185SLPC  H12X21334   4.954   3.747   8.417 -1.5090 -0.1669  0.5337
  185SLPC  H12Y21335   4.977   3.574   8.406  1.0345 -1.5019 -4.1552
  185SLPC  C31321336   4.775   3.658   8.388 -0.2534  0.1220  0.5929
  185SLPC  H13X21337   4.732   3.585   8.316  2.3235  0.1251 -1.1038
  185SLPC  H13Y21338   4.725   3.754   8.365  0.6613  0.5147  0.1739
  185SLPC  C31421339   4.754   3.623   8.536 -0.2044 -0.1886 -0.4097
  185SLPC  H14X21340   4.805   3.697   8.601  2.7078 -1.4209 -1.1211
  185SLPC  H14Y21341   4.803   3.525   8.556  3.3049  0.9844 -2.3637
  185SLPC  C31521342   4.600   3.603   8.574 -0.5776 -0.0283 -0.0620
  185SLPC  H15X21343   4.611   3.548   8.670 -0.0081  1.1538  0.5746
  185SLPC  H15Y21344   4.552   3.535   8.501 -1.0696 -1.1080  1.2314
  185SLPC  C31621345   4.520   3.735   8.585  0.1341 -0.4153 -0.8940
  185SLPC  H16X21346   4.599   3.812   8.570 -0.2673  0.9269  2.7679
  185SLPC  H16Y21347   4.485   3.750   8.690  2.4598  0.4583 -0.1682
  185SLPC  C31721348   4.405   3.748   8.480 -0.8738 -0.3637 -0.3772
  185SLPC  H17X21349   4.323   3.677   8.505 -0.1687 -1.7759 -1.8996
  185SLPC  H17Y21350   4.451   3.720   8.383 -0.3284 -1.3818  0.1594
  185SLPC  C31821351   4.344   3.890   8.471 -0.4471 -0.0829  1.1106
  185SLPC  H18X21352   4.422   3.968   8.464 -2.3477  1.8588  0.3408
  185SLPC  H18Y21353   4.285   3.912   8.562 -0.5504 -1.7054  1.4737
  185SLPC  H18Z21354   4.281   3.896   8.379  1.6093 -0.6001 -0.3910
  186SLPC     N21355   6.333   0.961   5.844 -0.2761 -0.1653  0.4488
  186SLPC   C1321356   6.440   0.994   5.745 -0.0935  0.5444  0.5073
  186SLPC  H13A21357   6.525   0.934   5.775 -1.2977 -0.6988  1.6178
  186SLPC  H13B21358   6.414   0.971   5.642  0.9271 -1.1284  0.5695
  186SLPC  H13C21359   6.475   1.096   5.741  2.4597 -0.2769  0.1841
  186SLPC   C1421360   6.294   0.813   5.827 -0.0737 -0.3749 -0.4057
  186SLPC  H14A21361   6.265   0.806   5.724  0.2012  3.2826 -0.8670
  186SLPC  H14B21362   6.381   0.758   5.859  0.0648 -0.8308 -1.5549
  186SLPC  H14C21363   6.220   0.776   5.896  1.0239  0.2149  1.1458
  186SLPC   C1521364   6.215   1.043   5.801 -0.5001  0.3502 -0.8325
  186SLPC  H15A21365   6.170   1.000   5.712 -0.9301 -2.6549  0.6942
  186SLPC  H15B21366   6.148   1.048   5.886  2.3601  0.9096  1.5349
  186SLPC  H15C21367   6.239   1.147   5.790 -2.1109  1.2480  2.8192
  186SLPC   C1221368   6.383   0.996   5.983  0.4308  0.3882 -0.0540
  186SLPC  H12A21369   6.396   1.103   5.991 -0.7129  0.5247  0.0986
  186SLPC  H12B21370   6.478   0.948   6.003  0.2637 -0.3938 -1.0626
  186SLPC   C1121371   6.280   0.951   6.092 -0.5469 -0.2472  0.2946
  186SLPC  H11A21372   6.179   0.984   6.059 -1.1926 -1.8642  0.5633
  186SLPC  H11B21373   6.294   1.013   6.183  1.9734  2.0425 -1.4732
  186SLPC     P21374   6.405   0.752   6.198  0.1768  0.4425  0.4038
  186SLPC   O1321375   6.402   0.606   6.204 -0.4118 -0.1860 -0.2341
  186SLPC   O1421376   6.533   0.806   6.152 -0.1593  0.1412 -0.5749
  186SLPC   O1221377   6.284   0.812   6.114 -0.1526  0.3859  0.0990
  186SLPC   O1121378   6.373   0.803   6.344  0.4469 -0.0165  0.3494
  186SLPC    C121379   6.237   0.781   6.390 -0.8525 -0.1058 -0.2932
  186SLPC    HA21380   6.173   0.865   6.356 -1.5834 -0.3611  0.4130
  186SLPC    HB21381   6.201   0.678   6.373  1.5530 -1.1638  0.5248
  186SLPC    C221382   6.232   0.777   6.543  0.5588 -0.2933 -0.5051
  186SLPC    HS21383   6.130   0.776   6.589  0.5884 -2.2866 -0.3934
  186SLPC   O2121384   6.305   0.889   6.608 -0.0643  0.0013 -0.0170
  186SLPC   C2121385   6.256   1.012   6.589 -0.1893  0.8969  0.3316
  186SLPC   O2221386   6.158   1.040   6.520  0.1006  0.3073 -0.9051
  186SLPC   C2221387   6.340   1.106   6.674  0.2946  0.6058 -1.7215
  186SLPC   H2R21388   6.447   1.100   6.642  0.9811  0.1651  0.5046
  186SLPC   H2S21389   6.307   1.210   6.653 -1.8284  0.4809  0.6079
  186SLPC    C321390   6.303   0.640   6.586  0.1750 -0.2427 -0.5136
  186SLPC    HX21391   6.401   0.628   6.535  1.2361  2.6095  0.6161
  186SLPC    HY21392   6.244   0.555   6.547 -2.7856  0.7269  1.4894
  186SLPC   O3121393   6.293   0.614   6.729 -0.6391 -0.2569  0.2565
  186SLPC   C3121394   6.396   0.661   6.805 -0.1501  0.3100  0.3423
  186SLPC   O3221395   6.496   0.706   6.759 -0.8950  0.2261  0.3970
  186SLPC   C3221396   6.361   0.658   6.954  0.0753 -0.1598 -0.2401
  186SLPC   H2X21397   6.253   0.683   6.959  0.0696  0.2802 -1.9045
  186SLPC   H2Y21398   6.405   0.753   6.992 -1.4672  0.4615  0.0877
  186SLPC   C2321399   6.337   1.069   6.824  0.6320 -0.2319 -0.4455
  186SLPC   H3R21400   6.381   0.967   6.835  0.9353 -0.2111 -1.3662
  186SLPC   H3S21401   6.234   1.060   6.865  0.9761  0.1740  0.5413
  186SLPC   C2421402   6.418   1.159   6.920 -0.1176 -0.2877  0.0961
  186SLPC   H4R21403   6.375   1.262   6.920  0.1009 -0.1802  1.5396
  186SLPC   H4S21404   6.524   1.169   6.888 -0.2723  0.4728 -0.2123
  186SLPC   C2521405   6.410   1.116   7.063 -0.2722  0.1942 -0.0116
  186SLPC   H5R21406   6.474   1.026   7.075  1.6968  1.5952  0.4379
  186SLPC   H5S21407   6.303   1.095   7.085 -0.5111 -0.2688 -1.5523
  186SLPC   C2621408   6.458   1.222   7.160 -0.2309  0.0516 -0.5227
  186SLPC   H6R21409   6.393   1.312   7.173  0.8729  0.8712 -0.5259
  186SLPC   H6S21410   6.561   1.244   7.124  0.2868 -1.6885 -0.1916
  186SLPC   C2721411   6.481   1.176   7.301  0.7612 -0.0478 -0.4206
  186SLPC   H7R21412   6.560   1.100   7.317  0.2992 -0.0853  2.1893
  186SLPC   H7S21413   6.388   1.140   7.349  0.0635  1.7086 -0.4039
  186SLPC   C2821414   6.515   1.290   7.400  0.6983  0.0354 -0.3678
  186SLPC   H8R21415   6.514   1.247   7.502 -0.5208  1.5832  0.3138
  186SLPC   H8S21416   6.430   1.362   7.402  0.0305 -0.7369  0.0877
  186SLPC   C2921417   6.646   1.359   7.379 -1.2138  0.8981 -0.2543
  186SLPC   H9R21418   6.653   1.441   7.306  1.2985  0.2779 -0.8046
  186SLPC  C21021419   6.761   1.329   7.443 -0.0059  0.8642 -0.1867
  186SLPC  H10R21420   6.849   1.394   7.432 -0.7608  1.6610 -1.7198
  186SLPC  C21121421   6.781   1.219   7.547 -0.1314  0.2381 -0.3384
  186SLPC  H11R21422   6.793   1.127   7.486 -1.4810 -1.1630  1.3826
  186SLPC  H11S21423   6.692   1.207   7.613  1.3826  3.3191  2.5367
  186SLPC  C21221424   6.911   1.238   7.622  0.4512 -0.1700  0.3206
  186SLPC  H12R21425   7.009   1.218   7.576  0.7209 -2.6268  1.7925
  186SLPC  C21321426   6.917   1.286   7.751 -0.1802  0.5907  0.2361
  186SLPC  H13R21427   7.016   1.292   7.799 -0.8761 -0.8201  1.9524
  186SLPC  C21421428   6.810   1.325   7.841 -0.3516  0.0117  0.1239
  186SLPC  H14R21429   6.836   1.281   7.940  3.3275  1.1874 -0.2027
  186SLPC  H14S21430   6.713   1.286   7.803  0.2428 -0.5878 -0.8162
  186SLPC  C21521431   6.807   1.476   7.856 -0.1216 -0.5059  0.6680
  186SLPC  H15R21432   6.799   1.528   7.758  2.5078  1.2714  1.3045
  186SLPC  H15S21433   6.902   1.499   7.908 -0.5629 -0.3487  1.4287
  186SLPC  C21621434   6.677   1.524   7.925 -0.0897 -0.3987  0.2023
  186SLPC  H16R21435   6.593   1.482   7.867 -0.2931 -0.1122  0.2868
  186SLPC  H16S21436   6.681   1.635   7.919  0.4180 -0.5034 -3.4060
  186SLPC  C21721437   6.673   1.480   8.071  0.5455  0.3018  0.2256
  186SLPC  H17R21438   6.731   1.541   8.144 -1.0613 -0.4876  2.2646
  186SLPC  H17S21439   6.731   1.386   8.068  3.4226  1.9634 -1.5342
  186SLPC  C21821440   6.530   1.468   8.130  0.3644  0.2504  0.0561
  186SLPC  H18R21441   6.466   1.411   8.059  0.8397 -0.6473  0.3435
  186SLPC  H18S21442   6.478   1.567   8.131  0.5186  0.3482 -0.6404
  186SLPC  H18T21443   6.518   1.425   8.231 -2.8873 -0.6265 -0.5777
  186SLPC   C3321444   6.396   0.537   7.037  0.5601 -0.0650  0.5102
  186SLPC   H3X21445   6.506   0.528   7.040  0.5728  0.2849  1.4888
  186SLPC   H3Y21446   6.363   0.447   6.980  0.3406 -0.0041  0.5402
  186SLPC   C3421447   6.348   0.558   7.184  0.1871  0.7264  0.0846
  186SLPC   H4X21448   6.358   0.455   7.224 -0.9894  1.6863  3.1595
  186SLPC   H4Y21449   6.240   0.583   7.177 -0.5347 -1.9201  0.5179
  186SLPC   C3521450   6.432   0.654   7.272 -0.2739  0.2064 -0.6417
  186SLPC   H5X21451   6.415   0.755   7.229  2.8497  0.6248 -1.1465
  186SLPC   H5Y21452   6.542   0.634   7.271 -0.3472 -0.2537 -0.0411
  186SLPC   C3621453   6.394   0.656   7.424 -0.0318  0.5225  0.3997
  186SLPC   H6X21454   6.446   0.571   7.473  1.7911  1.3978  0.0614
  186SLPC   H6Y21455   6.284   0.667   7.434 -0.3756  1.3267 -3.1563
  186SLPC   C3721456   6.457   0.779   7.501 -0.0477  0.1734 -0.6788
  186SLPC   H7X21457   6.420   0.871   7.450  0.0556 -0.8595 -2.7160
  186SLPC   H7Y21458   6.567   0.773   7.491  0.5017 -0.0618  3.5315
  186SLPC   C3821459   6.416   0.775   7.647 -0.2687 -0.4361 -0.5176
  186SLPC   H8X21460   6.464   0.688   7.698 -0.0800  0.3458  0.6906
  186SLPC   H8Y21461   6.308   0.756   7.663 -0.4051  0.8077  0.2047
  186SLPC   C3921462   6.468   0.903   7.711 -0.8072 -0.5603 -0.0708
  186SLPC   H9X21463   6.409   0.991   7.678 -0.9919 -1.1358 -1.3101
  186SLPC   H9Y21464   6.568   0.919   7.665 -0.1163 -0.0951  1.4960
  186SLPC  C31021465   6.466   0.894   7.870 -0.1662  0.3729 -0.0303
  186SLPC  H10X21466   6.514   0.796   7.889 -2.3223 -0.4039  1.9450
  186SLPC  H10Y21467   6.357   0.882   7.888 -0.0942 -0.8654 -0.3124
  186SLPC  C31121468   6.526   0.999   7.950 -0.4531 -0.2418 -0.0777
  186SLPC  H11X21469   6.448   1.079   7.948  0.1753  0.4087  0.7869
  186SLPC  H11Y21470   6.623   1.041   7.916 -0.0379 -2.4173 -1.8131
  186SLPC  C31221471   6.541   0.960   8.099 -0.4026 -0.9345 -0.4124
  186SLPC  H12X21472   6.611   0.874   8.101  0.0272 -0.5824  0.1272
  186SLPC  H12Y21473   6.444   0.918   8.131 -0.3878 -0.4009  0.3783
  186SLPC  C31321474   6.574   1.086   8.186 -0.5040  0.3269  0.3180
  186SLPC  H13X21475   6.482   1.143   8.212 -0.5186 -0.0995  1.2187
  186SLPC  H13Y21476   6.650   1.148   8.135  2.8342 -1.4892  2.7586
  186SLPC  C31421477   6.638   1.037   8.321  0.0406 -0.2050 -0.5541
  186SLPC  H14X21478   6.685   1.127   8.366  0.7019 -2.0658  2.8192
  186SLPC  H14Y21479   6.729   0.976   8.301  0.5341 -0.7445  2.8122
  186SLPC  C31521480   6.547   0.965   8.421  0.6674  0.3317  0.2726
  186SLPC  H15X21481   6.508   0.871   8.376 -0.0529  1.6756 -2.1469
  186SLPC  H15Y21482   6.463   1.030   8.454 -0.4139 -0.4693 -0.8208
  186SLPC  C31621483   6.633   0.953   8.549  0.2790 -0.1261  0.4324
  186SLPC  H16X21484   6.560   0.956   8.632 -1.3710  0.0265 -0.9735
  186SLPC  H16Y21485   6.701   1.040   8.562  2.3780 -1.8390  1.7127
  186SLPC  C31721486   6.727   0.833   8.554  0.5647 -0.1045  0.2532
  186SLPC  H17X21487   6.792   0.817   8.465 -2.1097  0.9102 -2.0433
  186SLPC  H17Y21488   6.668   0.739   8.550 -0.2755  0.4295 -0.2012
  186SLPC  C31821489   6.806   0.829   8.682  0.3101 -0.4258  0.4455
  186SLPC  H18X21490   6.866   0.735   8.679 -1.3179 -1.4720 -0.8615
  186SLPC  H18Y21491   6.744   0.827   8.774 -1.1331 -1.6170 -0.5055
  186SLPC  H18Z21492   6.869   0.921   8.684 -2.2620  1.4738 -0.0128
  187SLPC     N21493   0.367   4.093   6.256  0.5628  0.6885  0.0496
  187SLPC   C1321494   0.388   3.969   6.171 -0.1932  0.1552  0.3792
  187SLPC  H13A21495   0.334   3.973   6.078  0.2182 -0.2411  0.1174
  187SLPC  H13B21496   0.487   3.965   6.128 -0.5672  0.3943 -0.5369
  187SLPC  H13C21497   0.371   3.879   6.228 -2.5178  0.8245  0.8515
  187SLPC   C1421498   0.422   4.209   6.179  0.6863  0.3747  0.1632
  187SLPC  H14A21499   0.529   4.212   6.168  0.5984  0.7555 -0.7321
  187SLPC  H14B21500   0.386   4.203   6.077 -3.0183 -2.5251  1.4158
  187SLPC  H14C21501   0.397   4.302   6.228 -0.1466 -0.9458  2.3739
  187SLPC   C1521502   0.447   4.070   6.383  0.3647  0.3818  0.0591
  187SLPC  H15A21503   0.394   4.001   6.446  0.3605  1.5783  1.4173
  187SLPC  H15B21504   0.548   4.044   6.356  0.9947  2.7344 -0.0353
  187SLPC  H15C21505   0.462   4.163   6.435  1.3085 -1.1157  2.6292
  187SLPC   C1221506   0.221   4.115   6.290  0.2928  0.1790  0.5772
  187SLPC  H12A21507   0.173   4.095   6.195  0.8293  2.7625 -0.3065
  187SLPC  H12B21508   0.217   4.220   6.314  2.7417 -0.1394  2.8842
  187SLPC   C1121509   0.159   4.034   6.410  0.1321 -0.9719 -0.2490
  187SLPC  H11A21510   0.165   3.925   6.390  0.3644 -0.7904 -1.2186
  187SLPC  H11B21511   0.051   4.060   6.406  0.4110  0.1391 -0.9582
  187SLPC     P21512   0.185   4.197   6.615 -0.1575  0.3540  0.1365
  187SLPC   O1321513   0.272   4.306   6.562 -0.3057  0.0853  0.0312
  187SLPC   O1421514   0.039   4.215   6.603 -0.2833  0.3563 -0.7831
  187SLPC   O1221515   0.217   4.061   6.536 -0.0718 -0.7661  0.3550
  187SLPC   O1121516   0.225   4.173   6.767  0.1454  0.2666  0.3335
  187SLPC    C121517   0.179   4.063   6.847  0.3596  0.2681 -0.5051
  187SLPC    HA21518   0.081   4.090   6.893  1.3276  0.2035  1.7031
  187SLPC    HB21519   0.147   3.974   6.788 -2.2992  0.2064  0.8609
  187SLPC    C221520   0.281   4.022   6.956 -0.2555  0.6372  0.5678
  187SLPC    HS21521   0.247   3.924   6.993  0.4638  1.0523  2.3990
  187SLPC   O2121522   0.285   4.113   7.066 -0.2096 -0.6052 -0.1120
  187SLPC   C2121523   0.178   4.106   7.147  0.5329 -0.3889  1.1671
  187SLPC   O2221524   0.087   4.025   7.148  0.4091  0.0646  0.8047
  187SLPC   C2221525   0.187   4.227   7.241  0.3287 -0.5959 -0.2452
  187SLPC   H2R21526   0.297   4.243   7.241  1.0307 -4.3412  0.8716
  187SLPC   H2S21527   0.135   4.316   7.203  0.9903 -0.9783 -2.1319
  187SLPC    C321528   0.413   4.018   6.891  0.2264 -0.2289 -0.4253
  187SLPC    HX21529   0.464   4.115   6.910  1.3891 -0.8790 -0.1021
  187SLPC    HY21530   0.397   3.998   6.783  1.2323 -0.3367 -0.5639
  187SLPC   O3121531   0.495   3.915   6.949  0.2438  0.0993 -0.2773
  187SLPC   C3121532   0.605   3.900   6.885  0.3599 -0.5312 -0.3347
  187SLPC   O3221533   0.641   3.972   6.791  0.3402 -0.5980  0.4606
  187SLPC   C3221534   0.704   3.796   6.946  0.2313  0.4767 -0.1155
  187SLPC   H2X21535   0.771   3.747   6.872  1.2055 -0.6088  1.4375
  187SLPC   H2Y21536   0.644   3.709   6.981  2.7422 -0.4189  2.3198
  187SLPC   C2321537   0.156   4.199   7.390  0.8716 -0.3742 -0.3746
  187SLPC   H3R21538   0.054   4.169   7.422  1.6073 -1.5106  1.0024
  187SLPC   H3S21539   0.180   4.294   7.442  0.6006 -0.3802 -0.2381
  187SLPC   C2421540   0.263   4.102   7.445  0.3933  0.6947 -0.3683
  187SLPC   H4R21541   0.365   4.127   7.408  0.5356 -1.4983 -1.6133
  187SLPC   H4S21542   0.232   4.000   7.413 -1.2685  0.8638  0.5651
  187SLPC   C2521543   0.256   4.100   7.604  0.1524  0.2141  0.1155
  187SLPC   H5R21544   0.155   4.055   7.617  0.3792 -0.6279 -0.8487
  187SLPC   H5S21545   0.260   4.204   7.641 -0.3409  0.9887 -1.8764
  187SLPC   C2621546   0.372   4.011   7.653  0.7384  0.5499 -0.0657
  187SLPC   H6R21547   0.462   4.075   7.639 -0.6299  2.0343 -3.0960
  187SLPC   H6S21548   0.386   3.927   7.582 -0.3895 -1.1338  1.5993
  187SLPC   C2721549   0.352   3.945   7.790  0.1066 -0.4910 -0.8553
  187SLPC   H7R21550   0.447   3.889   7.801  0.0411 -0.5163 -0.3984
  187SLPC   H7S21551   0.263   3.877   7.795 -0.4558  0.2730 -0.2591
  187SLPC   C2821552   0.360   4.052   7.905 -0.2445  0.0473 -0.2516
  187SLPC   H8R21553   0.276   4.122   7.884 -2.1300 -1.8077  0.6021
  187SLPC   H8S21554   0.451   4.111   7.886 -0.7258  0.5678 -1.0110
  187SLPC   C2921555   0.343   3.990   8.043 -0.2651  0.9547  0.7436
  187SLPC   H9R21556   0.248   3.939   8.062  0.7255 -1.3971 -0.2321
  187SLPC  C21021557   0.436   3.993   8.137  0.0812 -0.3857  0.2299
  187SLPC  H10R21558   0.404   3.958   8.236 -1.2130 -2.3212 -0.8013
  187SLPC  C21121559   0.571   4.060   8.133  0.3514  0.4855  0.4343
  187SLPC  H11R21560   0.575   4.143   8.058  1.1066  1.3795  1.4388
  187SLPC  H11S21561   0.653   3.989   8.111  1.3572  1.7495 -0.0324
  187SLPC  C21221562   0.600   4.129   8.264  0.0507  0.6430 -0.3507
  187SLPC  H12R21563   0.542   4.222   8.274 -0.9566 -0.0947  0.9594
  187SLPC  C21321564   0.666   4.080   8.370  0.5867  0.0520  0.0970
  187SLPC  H13R21565   0.663   4.139   8.463  2.5099  2.0152 -1.0028
  187SLPC  C21421566   0.729   3.940   8.389  0.5583 -0.0977  0.3281
  187SLPC  H14R21567   0.732   3.888   8.290 -1.0106  0.9827 -0.3435
  187SLPC  H14S21568   0.666   3.871   8.449  1.3183  0.6420  2.0159
  187SLPC  C21521569   0.878   3.953   8.442  0.2817 -0.1756 -0.0131
  187SLPC  H15R21570   0.916   4.020   8.362 -0.6833 -0.5275 -0.7848
  187SLPC  H15S21571   0.918   3.849   8.440 -0.8561 -0.7322  2.3381
  187SLPC  C21621572   0.890   4.018   8.573 -0.4972  0.3428  0.2552
  187SLPC  H16R21573   0.829   4.111   8.578 -1.6863 -0.3217 -1.0889
  187SLPC  H16S21574   0.998   4.041   8.584 -0.5052 -0.0592  1.2374
  187SLPC  C21721575   0.865   3.919   8.692 -0.2489 -0.2928 -0.3259
  187SLPC  H17R21576   0.779   3.861   8.650  0.4624  0.4252 -2.9319
  187SLPC  H17S21577   0.824   3.973   8.780 -1.3915  0.7738 -1.4566
  187SLPC  C21821578   0.976   3.818   8.726  0.3131 -0.5117 -0.4554
  187SLPC  H18R21579   0.945   3.744   8.803  0.3117  0.3416  0.3859
  187SLPC  H18S21580   1.069   3.869   8.761  1.1345 -2.0979 -0.2295
  187SLPC  H18T21581   1.018   3.768   8.636  1.1960  0.7004 -0.7515
  187SLPC   C3321582   0.777   3.857   7.062 -0.2788  0.5308 -0.2213
  187SLPC   H3X21583   0.797   3.963   7.035  0.1740  0.0932 -1.6841
  187SLPC   H3Y21584   0.878   3.811   7.074 -0.0606  0.9014 -0.6068
  187SLPC   C3421585   0.697   3.841   7.191 -0.0728 -0.0080 -0.3304
  187SLPC   H4X21586   0.698   3.738   7.233 -0.6564 -0.0474 -0.4101
  187SLPC   H4Y21587   0.591   3.871   7.181 -0.2473 -0.8353 -1.1044
  187SLPC   C3521588   0.757   3.933   7.295  0.2998 -0.0636 -0.1843
  187SLPC   H5X21589   0.714   4.035   7.287  0.0379 -0.0605  1.0680
  187SLPC   H5Y21590   0.867   3.946   7.286  0.0509  3.0968  0.1825
  187SLPC   C3621591   0.721   3.884   7.436 -0.4281  0.0565 -0.5003
  187SLPC   H6X21592   0.743   3.776   7.451  0.1751  0.4326  1.5268
  187SLPC   H6Y21593   0.614   3.888   7.466  0.4135 -0.9306  3.0954
  187SLPC   C3721594   0.793   3.960   7.544  0.5167 -0.1848  0.5039
  187SLPC   H7X21595   0.903   3.967   7.531  0.2450  1.1663 -1.4770
  187SLPC   H7Y21596   0.762   4.066   7.537  0.9893 -0.1432 -2.4358
  187SLPC   C3821597   0.760   3.902   7.689 -0.0881  0.1542  0.0220
  187SLPC   H8X21598   0.823   3.814   7.717  0.4493  0.6886  0.5249
  187SLPC   H8Y21599   0.655   3.866   7.681  0.3469 -1.8196  1.9685
  187SLPC   C3921600   0.755   4.009   7.807  0.1133  0.6504  0.2425
  187SLPC   H9X21601   0.724   3.956   7.900  0.4592 -1.1829 -0.6280
  187SLPC   H9Y21602   0.669   4.072   7.777  0.5676  1.8448  1.3653
  187SLPC  C31021603   0.878   4.082   7.837 -0.7462 -0.3393  0.0208
  187SLPC  H10X21604   0.898   4.156   7.757  1.1656  0.9036  1.5416
  187SLPC  H10Y21605   0.966   4.013   7.830  1.1739  2.1217 -4.1277
  187SLPC  C31121606   0.880   4.141   7.986  0.1528 -0.5000  0.1242
  187SLPC  H11X21607   0.886   4.065   8.067  0.7137 -0.0368  0.5168
  187SLPC  H11Y21608   0.783   4.194   7.999 -0.4100 -1.1886 -1.0406
  187SLPC  C31221609   0.989   4.242   7.994  0.3535  0.2639  0.1143
  187SLPC  H12X21610   0.962   4.317   7.916 -2.4651 -2.0963 -1.4016
  187SLPC  H12Y21611   1.091   4.204   7.972  0.3209 -0.3522  0.9897
  187SLPC  C31321612   1.001   4.314   8.134 -0.7532  0.2895  0.0077
  187SLPC  H13X21613   0.897   4.329   8.168 -0.8380  0.0863 -0.1595
  187SLPC  H13Y21614   1.043   4.416   8.121  1.0554 -0.4454 -0.1859
  187SLPC  C31421615   1.076   4.239   8.238 -0.3528 -0.4242  0.8717
  187SLPC  H14X21616   1.030   4.139   8.226 -2.4976  0.6462 -0.3865
  187SLPC  H14Y21617   1.058   4.276   8.341 -2.4749  1.4435 -0.1036
  187SLPC  C31521618   1.224   4.215   8.211 -0.4601 -0.3924  0.7732
  187SLPC  H15X21619   1.275   4.313   8.218  0.0405 -0.5199 -0.7407
  187SLPC  H15Y21620   1.246   4.188   8.105  0.9743 -0.4339  1.0706
  187SLPC  C31621621   1.293   4.110   8.303 -0.4996 -0.4505  0.5226
  187SLPC  H16X21622   1.396   4.097   8.262 -0.7797  1.4667 -0.9353
  187SLPC  H16Y21623   1.240   4.014   8.284 -0.5262 -0.0194 -1.9630
  187SLPC  C31721624   1.287   4.147   8.454  0.0343  0.1173  0.0308
  187SLPC  H17X21625   1.184   4.117   8.483 -0.5366  0.8823 -1.1375
  187SLPC  H17Y21626   1.299   4.258   8.454  0.9449  0.0398  1.0892
  187SLPC  C31821627   1.393   4.095   8.547 -0.0666 -0.0861  0.7263
  187SLPC  H18X21628   1.486   4.153   8.529 -0.2420 -0.5655 -2.1707
  187SLPC  H18Y21629   1.412   3.991   8.511 -1.9586 -0.3732  0.4685
  187SLPC  H18Z21630   1.373   4.094   8.656 -0.5878  0.2523  0.6370
  188SLPC     N21631   0.370   5.801   6.215 -0.2041  0.2383 -0.5842
  188SLPC   C1321632   0.229   5.783   6.273 -0.4956  0.1622  0.2360
  188SLPC  H13A21633   0.209   5.873   6.329 -0.7495 -0.4544  1.1614
  188SLPC  H13B21634   0.156   5.783   6.194  0.4779  0.1309 -0.6822
  188SLPC  H13C21635   0.208   5.702   6.341 -1.7391 -1.0450 -1.5113
  188SLPC   C1421636   0.378   5.919   6.126  0.2211  0.4279  0.3587
  188SLPC  H14A21637   0.304   5.913   6.047 -0.7524 -0.1632  1.2838
  188SLPC  H14B21638   0.378   6.015   6.174 -1.5347  0.9230 -0.5171
  188SLPC  H14C21639   0.477   5.913   6.084  0.4520  0.9085  0.8394
  188SLPC   C1521640   0.396   5.677   6.151  0.0957 -0.0836 -0.9840
  188SLPC  H15A21641   0.497   5.667   6.112 -0.6771 -3.4935 -2.4785
  188SLPC  H15B21642   0.388   5.592   6.217 -0.9561  0.4853 -0.3585
  188SLPC  H15C21643   0.336   5.667   6.062  1.8026 -1.3059 -2.0602
  188SLPC   C1221644   0.475   5.821   6.326  0.2669 -0.1619 -0.7593
  188SLPC  H12A21645   0.573   5.827   6.281  0.1309 -2.8062 -1.6019
  188SLPC  H12B21646   0.469   5.734   6.389  0.5477  1.5984  1.8385
  188SLPC   C1121647   0.456   5.946   6.414 -0.0369 -0.6312 -0.4954
  188SLPC  H11A21648   0.516   5.947   6.508 -3.6872  1.7678  2.0701
  188SLPC  H11B21649   0.350   5.938   6.446  0.2686  0.4393  0.8825
  188SLPC     P21650   0.409   6.196   6.377 -0.2307  0.1860  0.2096
  188SLPC   O1321651   0.487   6.311   6.327 -0.5585 -0.3088 -0.4732
  188SLPC   O1421652   0.277   6.174   6.314 -0.0449  0.1113 -0.2801
  188SLPC   O1221653   0.489   6.065   6.345  0.0583 -0.1304 -0.2621
  188SLPC   O1121654   0.394   6.202   6.535  0.3321 -0.4910 -0.9526
  188SLPC    C121655   0.512   6.234   6.615 -0.0585 -0.5521 -0.1442
  188SLPC    HA21656   0.588   6.155   6.600 -2.1952 -2.7352 -0.1031
  188SLPC    HB21657   0.559   6.328   6.580 -0.8470 -0.6963 -1.6769
  188SLPC    C221658   0.487   6.255   6.773  0.0965  0.1756  0.0304
  188SLPC    HS21659   0.585   6.255   6.825  0.2680 -0.7496 -0.2838
  188SLPC   O2121660   0.404   6.148   6.813  0.0564  0.4014 -0.1271
  188SLPC   C2121661   0.468   6.029   6.831  0.7074  0.1182 -0.8238
  188SLPC   O2221662   0.581   6.003   6.795  0.0722 -0.0063  0.5591
  188SLPC   C2221663   0.367   5.939   6.902 -0.2290  0.4276 -0.1876
  188SLPC   H2R21664   0.269   5.988   6.919 -0.1069  1.2786 -1.8247
  188SLPC   H2S21665   0.355   5.844   6.845 -3.1468  1.2462 -1.1006
  188SLPC    C321666   0.417   6.387   6.796  0.3091 -0.4976 -0.0846
  188SLPC    HX21667   0.389   6.384   6.903 -0.1733  1.3624 -0.1214
  188SLPC    HY21668   0.325   6.373   6.735  0.0613 -1.5709  0.5139
  188SLPC   O3121669   0.509   6.489   6.766 -0.0164  0.0059 -0.1209
  188SLPC   C3121670   0.458   6.581   6.683 -0.2572 -0.4045  0.2427
  188SLPC   O3221671   0.343   6.578   6.646 -0.1867 -0.0641  0.8177
  188SLPC   C3221672   0.563   6.675   6.632 -0.1343 -0.6497  0.3876
  188SLPC   H2X21673   0.511   6.772   6.617  0.3674 -0.7564 -2.8908
  188SLPC   H2Y21674   0.602   6.643   6.533  0.9684 -2.7639  1.4421
  188SLPC   C2321675   0.438   5.903   7.038 -0.5525  0.4578  0.6931
  188SLPC   H3R21676   0.539   5.859   7.028  0.1132  2.0551 -0.0179
  188SLPC   H3S21677   0.383   5.816   7.080 -0.7646  0.0187 -0.4545
  188SLPC   C2421678   0.456   6.011   7.144  0.6329 -0.2151 -0.0818
  188SLPC   H4R21679   0.546   6.067   7.109  0.6329  0.4324  0.9074
  188SLPC   H4S21680   0.485   5.956   7.237 -0.6560  2.2534  1.9244
  188SLPC   C2521681   0.333   6.111   7.168 -0.0525  0.1237  0.5158
  188SLPC   H5R21682   0.242   6.055   7.198 -0.8994 -0.3959 -2.6965
  188SLPC   H5S21683   0.311   6.157   7.070 -0.0242  1.4575  1.1141
  188SLPC   C2621684   0.350   6.238   7.254  0.2427 -0.2481 -0.6265
  188SLPC   H6R21685   0.248   6.280   7.266  0.7597  0.9922 -0.4397
  188SLPC   H6S21686   0.422   6.311   7.211 -0.6384  1.5871  0.8963
  188SLPC   C2721687   0.419   6.191   7.388 -1.4137  0.0942 -0.0969
  188SLPC   H7R21688   0.521   6.154   7.365 -1.7843 -0.8139 -0.3055
  188SLPC   H7S21689   0.364   6.104   7.430  0.7323  0.1842  3.2713
  188SLPC   C2821690   0.431   6.297   7.500  0.1870 -0.4974  0.2631
  188SLPC   H8R21691   0.328   6.338   7.504 -0.0063 -0.8141 -0.9461
  188SLPC   H8S21692   0.493   6.380   7.462 -0.9131 -0.1127 -0.7400
  188SLPC   C2921693   0.472   6.238   7.633 -0.0698 -0.0909  0.5330
  188SLPC   H9R21694   0.580   6.241   7.653  0.3271  0.6403 -1.4784
  188SLPC  C21021695   0.390   6.166   7.717 -0.3541  0.0563 -0.4004
  188SLPC  H10R21696   0.438   6.123   7.806  1.2310 -1.0638 -1.7271
  188SLPC  C21121697   0.244   6.130   7.705  1.0647 -0.1776 -0.3778
  188SLPC  H11R21698   0.237   6.028   7.661  2.6874 -0.4723 -0.0245
  188SLPC  H11S21699   0.198   6.196   7.629 -0.6125 -1.8983 -0.9263
  188SLPC  C21221700   0.167   6.154   7.834 -0.7112  0.5420  0.1495
  188SLPC  H12R21701   0.155   6.258   7.868  3.8520  0.8061  1.6677
  188SLPC  C21321702   0.091   6.059   7.888 -0.1184  0.4311  0.5251
  188SLPC  H13R21703   0.042   6.076   7.986 -3.2223  0.0736 -0.8376
  188SLPC  C21421704   0.076   5.911   7.840 -0.1612 -0.1167  0.6156
  188SLPC  H14R21705   0.049   5.843   7.923 -3.0840 -0.0233 -0.1510
  188SLPC  H14S21706   0.178   5.874   7.812  0.8926  2.4106  0.8749
  188SLPC  C21521707  -0.020   5.885   7.720  0.4131 -0.2474  0.1398
  188SLPC  H15R21708   0.018   5.790   7.677 -0.6184 -0.5413 -0.1341
  188SLPC  H15S21709  -0.012   5.960   7.639 -0.7009 -1.7096 -1.3825
  188SLPC  C21621710  -0.170   5.894   7.754 -0.1121 -0.4629  0.3120
  188SLPC  H16R21711  -0.237   5.884   7.665  0.5048  1.2155 -0.3841
  188SLPC  H16S21712  -0.190   5.994   7.799 -1.6290 -0.1973 -0.8468
  188SLPC  C21721713  -0.208   5.781   7.851 -0.2755  0.0639 -0.3586
  188SLPC  H17R21714  -0.169   5.796   7.954 -2.8838 -1.5744  0.9788
  188SLPC  H17S21715  -0.168   5.686   7.810 -0.6968 -1.0979  1.7306
  188SLPC  C21821716  -0.359   5.783   7.870 -0.0068  0.3196 -0.6590
  188SLPC  H18R21717  -0.411   5.705   7.810 -0.8201  0.8367 -0.6391
  188SLPC  H18S21718  -0.403   5.882   7.842  3.2790  2.4590  1.1094
  188SLPC  H18T21719  -0.385   5.761   7.976 -1.5571  1.1366 -0.8342
  188SLPC   C3321720   0.689   6.716   6.721  0.5753  0.6845  0.8124
  188SLPC   H3X21721   0.752   6.628   6.746  1.3003  1.8984  3.5989
  188SLPC   H3Y21722   0.670   6.750   6.825  3.2236  0.2979  1.4888
  188SLPC   C3421723   0.770   6.831   6.660  0.2793 -0.4631 -0.0307
  188SLPC   H4X21724   0.702   6.919   6.651  0.2665 -0.6249 -1.8630
  188SLPC   H4Y21725   0.797   6.801   6.557 -0.0902  1.4028 -0.7145
  188SLPC   C3521726   0.893   6.871   6.741  0.6252  0.1367 -0.6706
  188SLPC   H5X21727   0.949   6.948   6.684 -1.5526  1.7682 -0.7351
  188SLPC   H5Y21728   0.953   6.782   6.771  1.9486  0.5099 -2.0676
  188SLPC   C3621729   0.860   6.935   6.879 -0.3484 -0.5586 -0.3231
  188SLPC   H6X21730   0.802   6.866   6.944  2.2941 -2.9629 -0.3347
  188SLPC   H6Y21731   0.807   7.031   6.860  3.7151  2.0414  0.3279
  188SLPC   C3721732   0.986   6.963   6.961 -0.1677 -0.0950 -0.8652
  188SLPC   H7X21733   1.032   7.054   6.916 -1.4480  1.3173  0.5507
  188SLPC   H7Y21734   1.053   6.875   6.966  1.0443  0.8287 -0.2705
  188SLPC   C3821735   0.957   7.005   7.113  0.3897 -0.2687  0.0461
  188SLPC   H8X21736   0.865   6.955   7.150  0.5371 -1.7948 -1.5136
  188SLPC   H8Y21737   0.941   7.115   7.107  2.2328  0.1595  1.8921
  188SLPC   C3921738   1.066   6.960   7.209 -0.0176 -0.4634  0.6625
  188SLPC   H9X21739   1.164   7.001   7.176 -0.2070 -1.1243 -0.8102
  188SLPC   H9Y21740   1.068   6.850   7.201 -1.4927 -0.3692 -3.5005
  188SLPC  C31021741   1.034   7.009   7.356  0.1849 -0.8162 -0.3088
  188SLPC  H10X21742   0.942   6.957   7.390  0.4379 -0.7600  0.4992
  188SLPC  H10Y21743   1.020   7.119   7.351  2.9371 -0.3291  0.5452
  188SLPC  C31121744   1.144   6.975   7.453 -0.9409 -0.1743 -0.9038
  188SLPC  H11X21745   1.239   7.021   7.419  0.4447  1.1729  3.9007
  188SLPC  H11Y21746   1.154   6.865   7.464  0.2701 -0.0639 -0.8053
  188SLPC  C31221747   1.121   7.033   7.600  0.9227  0.2263  1.1826
  188SLPC  H12X21748   1.018   7.007   7.632  1.5044 -4.8740 -0.2326
  188SLPC  H12Y21749   1.137   7.143   7.611  0.4919  0.3968  0.1706
  188SLPC  C31321750   1.214   6.966   7.706  0.0038 -0.0454  0.6048
  188SLPC  H13X21751   1.323   6.974   7.686 -0.0202  0.8563  0.7721
  188SLPC  H13Y21752   1.180   6.864   7.732  0.4832 -0.3724 -0.0186
  188SLPC  C31421753   1.188   7.048   7.835 -0.4531 -1.0365  0.1974
  188SLPC  H14X21754   1.086   7.025   7.873 -1.4124  0.7663 -1.1222
  188SLPC  H14Y21755   1.192   7.155   7.808  0.0369 -0.7508  1.3370
  188SLPC  C31521756   1.294   7.001   7.944  0.3605 -0.2186  0.2771
  188SLPC  H15X21757   1.313   7.091   8.007 -0.1673  0.7128 -0.8488
  188SLPC  H15Y21758   1.386   6.975   7.887  0.0459  1.8533 -1.3380
  188SLPC  C31621759   1.243   6.883   8.021 -0.7402  0.3261 -0.0100
  188SLPC  H16X21760   1.223   6.799   7.950  1.5152 -0.0789 -0.2187
  188SLPC  H16Y21761   1.153   6.891   8.087 -2.4238 -3.6237 -1.4588
  188SLPC  C31721762   1.350   6.806   8.095  0.3299  0.1083 -0.7128
  188SLPC  H17X21763   1.393   6.873   8.173  0.1079 -1.2017  0.5700
  188SLPC  H17Y21764   1.431   6.774   8.026  1.7684  2.5989 -0.2956
  188SLPC  C31821765   1.306   6.678   8.160  0.3582 -0.2530  0.2100
  188SLPC  H18X21766   1.228   6.699   8.237  1.8170  1.0699  1.3849
  188SLPC  H18Y21767   1.391   6.624   8.207  0.6627  1.6170  1.9523
  188SLPC  H18Z21768   1.273   6.613   8.076  1.5206 -0.6593  0.0521
  189SLPC     N21769   2.626   0.885   6.112  0.1260 -0.2072  0.1702
  189SLPC   C1321770   2.595   0.875   5.967  0.1093  0.5707 -0.0888
  189SLPC  H13A21771   2.569   0.775   5.936 -1.5641  0.8070  0.4271
  189SLPC  H13B21772   2.517   0.941   5.933  0.8444  1.2950 -0.4127
  189SLPC  H13C21773   2.687   0.905   5.919  1.7201  1.8699  3.4472
  189SLPC   C1421774   2.496   0.849   6.180  0.1607 -0.4478  0.5215
  189SLPC  H14A21775   2.499   0.883   6.282  1.0251  0.4936  0.2095
  189SLPC  H14B21776   2.421   0.905   6.126  1.5610  1.3901  0.3849
  189SLPC  H14C21777   2.480   0.743   6.186  0.8194 -0.4759  2.5989
  189SLPC   C1521778   2.651   1.033   6.147 -0.7675  0.4662  0.2650
  189SLPC  H15A21779   2.682   1.040   6.250 -0.5908  2.0586  0.1233
  189SLPC  H15B21780   2.728   1.077   6.086 -2.1605  2.1023 -0.4070
  189SLPC  H15C21781   2.572   1.105   6.133 -1.5057 -0.9015 -3.8362
  189SLPC   C1221782   2.736   0.788   6.145  0.6627 -0.2625  0.6160
  189SLPC  H12A21783   2.823   0.816   6.087  0.4365 -0.6101  0.1059
  189SLPC  H12B21784   2.711   0.695   6.096 -1.3773 -0.3636  1.7037
  189SLPC   C1121785   2.789   0.773   6.289 -0.0208 -1.1908 -0.3478
  189SLPC  H11A21786   2.858   0.685   6.288  0.5393 -0.7661  0.1671
  189SLPC  H11B21787   2.708   0.748   6.360  0.3252  1.2607  1.0236
  189SLPC     P21788   3.001   0.929   6.288  0.0850 -0.5127 -0.0503
  189SLPC   O1321789   3.033   0.872   6.152  0.2096  0.2662 -0.7257
  189SLPC   O1421790   3.024   1.078   6.304 -0.3406  0.7368 -0.3863
  189SLPC   O1221791   2.859   0.889   6.346 -0.2722 -0.4781 -0.0540
  189SLPC   O1121792   3.089   0.852   6.395 -0.3216 -0.7707  0.7586
  189SLPC    C121793   3.049   0.767   6.494  0.0274  0.4453 -0.6362
  189SLPC    HA21794   2.965   0.811   6.551  0.2570 -0.4301  0.3912
  189SLPC    HB21795   3.031   0.667   6.449  0.2797 -0.3521  0.9700
  189SLPC    C221796   3.160   0.733   6.604 -0.9370  0.6284 -0.1069
  189SLPC    HS21797   3.249   0.691   6.553 -1.6317 -0.0326 -0.7957
  189SLPC   O2121798   3.099   0.637   6.691 -0.5272 -0.2579 -0.1171
  189SLPC   C2121799   3.173   0.601   6.798  0.0984  0.0953  0.3828
  189SLPC   O2221800   3.287   0.633   6.813 -0.7202  0.1061 -0.9657
  189SLPC   C2221801   3.086   0.520   6.892 -0.3883 -0.2930  0.1480
  189SLPC   H2R21802   3.084   0.412   6.866 -1.0444 -0.7539  1.9351
  189SLPC   H2S21803   3.136   0.522   6.992  0.1457  0.9511 -0.1280
  189SLPC    C321804   3.204   0.865   6.668 -0.8946 -0.1210  0.1570
  189SLPC    HX21805   3.206   0.947   6.594 -1.2908  2.9516  3.3028
  189SLPC    HY21806   3.308   0.847   6.703  0.0175  1.8243 -1.4079
  189SLPC   O3121807   3.118   0.902   6.775 -0.2545 -0.3249 -0.6971
  189SLPC   C3121808   3.012   0.977   6.748  0.4231 -0.0000 -0.4245
  189SLPC   O3221809   2.982   1.034   6.647 -0.5916 -0.5945  0.0244
  189SLPC   C3221810   2.930   0.991   6.873 -0.0568  0.1143  0.2658
  189SLPC   H2X21811   2.973   0.929   6.955 -2.8623  0.2732  1.9661
  189SLPC   H2Y21812   2.829   0.951   6.848 -0.0944  0.0385  0.5441
  189SLPC   C2321813   2.940   0.582   6.922 -0.3543  0.3381  0.2993
  189SLPC   H3R21814   2.871   0.552   6.841  0.5661 -0.6518 -0.1356
  189SLPC   H3S21815   2.944   0.693   6.923 -0.7233  0.3905 -1.3371
  189SLPC   C2421816   2.889   0.542   7.058  0.5723 -0.4433  0.2221
  189SLPC   H4R21817   2.936   0.444   7.079 -0.3858 -0.8901  0.3626
  189SLPC   H4S21818   2.778   0.537   7.045  0.6804  0.5731 -1.4446
  189SLPC   C2521819   2.922   0.634   7.170 -0.5748 -0.2117  0.3121
  189SLPC   H5R21820   2.904   0.741   7.146 -1.1396 -0.9935 -3.2167
  189SLPC   H5S21821   3.029   0.622   7.195 -0.3598 -1.8987 -1.2358
  189SLPC   C2621822   2.844   0.594   7.295 -1.0730  0.6220  0.0488
  189SLPC   H6R21823   2.879   0.492   7.323 -2.4487  0.0334 -0.2564
  189SLPC   H6S21824   2.734   0.591   7.281 -1.4533 -1.1929  2.5477
  189SLPC   C2721825   2.889   0.683   7.416 -0.4293 -0.0366  0.7279
  189SLPC   H7R21826   2.847   0.786   7.421  0.7338  0.5093 -0.2952
  189SLPC   H7S21827   3.000   0.691   7.413 -0.5554  2.4765 -0.2871
  189SLPC   C2821828   2.846   0.619   7.552 -0.2622  0.3216 -0.4936
  189SLPC   H8R21829   2.915   0.661   7.628  0.6705 -1.4298 -0.3269
  189SLPC   H8S21830   2.858   0.509   7.555  1.3165  0.4961  1.2139
  189SLPC   C2921831   2.700   0.642   7.576  0.1166  0.4813 -0.1046
  189SLPC   H9R21832   2.631   0.636   7.490  0.7025 -0.3839 -0.5245
  189SLPC  C21021833   2.649   0.657   7.701 -0.2351  0.2212  0.4610
  189SLPC  H10R21834   2.540   0.673   7.709 -0.5821 -1.8225  0.3283
  189SLPC  C21121835   2.724   0.654   7.832 -0.0741 -0.7645  0.2120
  189SLPC  H11R21836   2.718   0.759   7.869 -0.3033 -0.8640  0.4576
  189SLPC  H11S21837   2.832   0.636   7.817  1.2841  3.8790  2.6743
  189SLPC  C21221838   2.665   0.549   7.920  0.0782  0.6948 -0.0910
  189SLPC  H12R21839   2.645   0.454   7.867  2.4840  0.7052 -1.1531
  189SLPC  C21321840   2.637   0.569   8.054  0.6283 -0.3523  0.2511
  189SLPC  H13R21841   2.562   0.502   8.097  0.1748 -1.0779 -1.5680
  189SLPC  C21421842   2.670   0.691   8.136  0.0962 -0.1889  0.3228
  189SLPC  H14R21843   2.637   0.778   8.076  2.4768  0.4305 -0.2023
  189SLPC  H14S21844   2.779   0.697   8.160 -0.0651 -1.3829  1.4535
  189SLPC  C21521845   2.612   0.680   8.279 -0.0957  0.0401  0.3413
  189SLPC  H15R21846   2.501   0.688   8.284  0.1078  3.6692  2.8455
  189SLPC  H15S21847   2.649   0.763   8.343 -0.7613  0.0029  0.7848
  189SLPC  C21621848   2.651   0.550   8.352 -0.0012 -0.5035 -0.1570
  189SLPC  H16R21849   2.762   0.540   8.342 -0.1071 -3.2261  0.6473
  189SLPC  H16S21850   2.610   0.465   8.295  0.0698 -0.0545 -0.8956
  189SLPC  C21721851   2.624   0.545   8.499  0.1972  0.5901 -0.2595
  189SLPC  H17R21852   2.684   0.613   8.563 -1.6278  0.5464  1.6208
  189SLPC  H17S21853   2.649   0.445   8.540  1.4412  1.3446  0.8765
  189SLPC  C21821854   2.477   0.575   8.531  0.0199 -0.1230  0.0808
  189SLPC  H18R21855   2.422   0.517   8.454  3.1857  1.8705 -4.0836
  189SLPC  H18S21856   2.457   0.684   8.525  0.0631  0.1107  2.9040
  189SLPC  H18T21857   2.466   0.549   8.639  2.2874 -1.0970  0.1449
  189SLPC   C3321858   2.921   1.134   6.918 -1.0824 -0.1165  0.0829
  189SLPC   H3X21859   2.892   1.195   6.830 -1.6391 -2.0192 -1.1065
  189SLPC   H3Y21860   3.026   1.162   6.938 -0.0114 -3.1516 -0.7671
  189SLPC   C3421861   2.826   1.155   7.044 -0.3270  0.2523 -0.2221
  189SLPC   H4X21862   2.728   1.103   7.036  0.4260 -1.2092 -0.3447
  189SLPC   H4Y21863   2.798   1.260   7.066 -2.1911 -0.8183  3.2827
  189SLPC   C3521864   2.897   1.110   7.177 -0.2861  0.3917 -0.4261
  189SLPC   H5X21865   2.979   1.183   7.193  0.6465 -0.5091 -0.9478
  189SLPC   H5Y21866   2.947   1.011   7.170  1.2728  1.1750 -1.0357
  189SLPC   C3621867   2.811   1.103   7.303  0.0202 -0.4478 -0.3988
  189SLPC   H6X21868   2.730   1.027   7.291  0.1050 -0.1701 -3.4655
  189SLPC   H6Y21869   2.762   1.202   7.310 -0.1345 -0.5409 -0.1372
  189SLPC   C3721870   2.885   1.092   7.437 -0.1593  0.3514  0.0073
  189SLPC   H7X21871   2.932   1.193   7.445  0.8035 -0.0361 -0.6129
  189SLPC   H7Y21872   2.969   1.020   7.451 -0.3804  0.5854  3.2446
  189SLPC   C3821873   2.792   1.071   7.551  0.1590 -0.0427 -0.0855
  189SLPC   H8X21874   2.757   0.966   7.564  0.6714 -0.2470 -0.3134
  189SLPC   H8Y21875   2.708   1.143   7.540  1.3958  1.4655  0.1137
  189SLPC   C3921876   2.859   1.103   7.686  0.1793  0.7570  0.4227
  189SLPC   H9X21877   2.921   1.195   7.677  0.6200  0.3878 -0.5418
  189SLPC   H9Y21878   2.927   1.015   7.695  0.9385  1.1749 -0.9221
  189SLPC  C31021879   2.760   1.093   7.803 -0.0825 -0.4865 -0.2865
  189SLPC  H10X21880   2.701   0.999   7.795 -1.0907 -0.0317  1.3768
  189SLPC  H10Y21881   2.687   1.175   7.787 -0.5099 -0.7692  0.1668
  189SLPC  C31121882   2.816   1.113   7.947  0.2835  0.4313 -0.2347
  189SLPC  H11X21883   2.891   1.195   7.942  0.8133 -0.0977 -1.1460
  189SLPC  H11Y21884   2.868   1.019   7.975 -1.2642 -0.8744 -1.5070
  189SLPC  C31221885   2.715   1.145   8.056 -0.0816 -0.2916  0.2383
  189SLPC  H12X21886   2.632   1.071   8.063 -0.9868  0.7607  1.0296
  189SLPC  H12Y21887   2.675   1.248   8.037 -0.0285 -0.5672 -1.6176
  189SLPC  C31321888   2.782   1.163   8.195  0.2616 -0.2147  0.5002
  189SLPC  H13X21889   2.834   1.262   8.193 -0.6679  0.3025  1.2485
  189SLPC  H13Y21890   2.861   1.086   8.207  0.0823  0.0263  4.3452
  189SLPC  C31421891   2.689   1.160   8.320  0.2694  0.9423 -0.1742
  189SLPC  H14X21892   2.629   1.067   8.319  0.0911  1.0308 -2.5471
  189SLPC  H14Y21893   2.623   1.250   8.321 -2.0047 -0.5284 -2.9819
  189SLPC  C31521894   2.766   1.170   8.455 -0.2988 -0.7052  0.3895
  189SLPC  H15X21895   2.830   1.260   8.446  0.1853 -1.1827 -1.3599
  189SLPC  H15Y21896   2.838   1.085   8.465 -0.5418 -1.0589 -0.7563
  189SLPC  C31621897   2.680   1.176   8.587 -0.0625  0.5153 -0.2086
  189SLPC  H16X21898   2.609   1.262   8.586  1.0947  1.5042  0.4381
  189SLPC  H16Y21899   2.748   1.180   8.674  0.9350  0.5245 -0.9796
  189SLPC  C31721900   2.585   1.060   8.613 -0.6396  0.1896  0.0741
  189SLPC  H17X21901   2.509   1.058   8.531  0.8507 -0.4145 -1.3524
  189SLPC  H17Y21902   2.533   1.085   8.708  0.0879  0.6063  0.3723
  189SLPC  C31821903   2.642   0.923   8.627 -0.4904 -0.1883  0.3299
  189SLPC  H18X21904   2.667   0.868   8.534  1.0428  0.0455  0.5891
  189SLPC  H18Y21905   2.573   0.861   8.689 -1.2252  0.7440  0.4609
  189SLPC  H18Z21906   2.738   0.912   8.682  0.1594 -1.3012 -0.9801
  190SLPC     N21907   2.626   5.125   6.418 -0.1598  0.7501 -0.2108
  190SLPC   C1321908   2.706   5.136   6.542  0.0101 -0.3643  0.2704
  190SLPC  H13A21909   2.675   5.205   6.619  1.0011  0.4108 -0.0039
  190SLPC  H13B21910   2.720   5.042   6.593 -1.1691  0.6120  2.5409
  190SLPC  H13C21911   2.805   5.169   6.513  0.6704 -1.3017  1.3805
  190SLPC   C1421912   2.474   5.139   6.448 -0.3157  0.3067 -0.2654
  190SLPC  H14A21913   2.451   5.234   6.494  2.2671  1.2278 -0.6920
  190SLPC  H14B21914   2.414   5.133   6.359 -0.2931 -0.2558 -0.2438
  190SLPC  H14C21915   2.442   5.051   6.502  2.4776 -1.4375 -1.1980
  190SLPC   C1521916   2.654   4.991   6.353 -0.1546 -0.1832 -0.0317
  190SLPC  H15A21917   2.574   4.980   6.282 -1.3661  0.0868  1.2623
  190SLPC  H15B21918   2.747   4.997   6.298 -0.0024 -1.0768  0.1119
  190SLPC  H15C21919   2.654   4.910   6.424  1.7044  1.1442  1.6089
  190SLPC   C1221920   2.653   5.241   6.330 -0.1046  0.4471  0.2715
  190SLPC  H12A21921   2.622   5.339   6.363  1.1156  0.7299  0.6606
  190SLPC  H12B21922   2.591   5.217   6.245  0.0317 -0.3437  0.3841
  190SLPC   C1121923   2.801   5.271   6.292 -0.2288  0.0078  0.6310
  190SLPC  H11A21924   2.792   5.363   6.230  0.3361 -0.2543  0.1435
  190SLPC  H11B21925   2.841   5.186   6.233  1.3786  0.0081  1.6499
  190SLPC     P21926   3.036   5.303   6.375  0.1797  0.5292  0.2944
  190SLPC   O1321927   3.069   5.161   6.365 -0.3418 -0.0642 -0.6779
  190SLPC   O1421928   3.067   5.401   6.267 -0.0072 -0.0252 -0.5098
  190SLPC   O1221929   2.882   5.303   6.410 -0.0475 -0.2602  0.2674
  190SLPC   O1121930   3.091   5.350   6.515  0.1670  0.0059 -0.1242
  190SLPC    C121931   3.047   5.474   6.568  0.3361 -0.3595 -0.1815
  190SLPC    HA21932   3.136   5.540   6.559  2.0002 -2.6972 -1.9208
  190SLPC    HB21933   2.967   5.522   6.507  1.4641 -0.2482 -1.6145
  190SLPC    C221934   2.989   5.471   6.711  0.0945 -0.2495  0.1331
  190SLPC    HS21935   2.980   5.576   6.747 -0.3647 -0.7899  1.7035
  190SLPC   O2121936   3.072   5.408   6.804 -0.6366  0.7554 -0.1275
  190SLPC   C2121937   3.189   5.459   6.829 -0.3660  0.6580 -0.6352
  190SLPC   O2221938   3.227   5.573   6.805 -0.2758 -0.2772 -0.4531
  190SLPC   C2221939   3.260   5.352   6.909 -0.2086  0.4778 -0.1560
  190SLPC   H2R21940   3.187   5.270   6.923  0.5491 -0.4236 -1.2729
  190SLPC   H2S21941   3.350   5.320   6.852  1.8358  1.7620  2.1439
  190SLPC    C321942   2.848   5.411   6.712 -0.3583 -0.0403  0.5596
  190SLPC    HX21943   2.855   5.300   6.703  2.0987  0.2489 -3.5157
  190SLPC    HY21944   2.790   5.441   6.622  2.6309 -0.8399 -1.7976
  190SLPC   O3121945   2.783   5.450   6.832  0.7812 -0.3340 -0.6059
  190SLPC   C3121946   2.689   5.360   6.875  0.4108  0.3931 -1.2477
  190SLPC   O3221947   2.666   5.241   6.837 -0.0007 -0.0786  0.4472
  190SLPC   C3221948   2.624   5.412   7.003  0.3071  0.4138 -0.4142
  190SLPC   H2X21949   2.516   5.388   7.000  0.4108 -0.1857  0.3204
  190SLPC   H2Y21950   2.637   5.522   7.008 -2.5526  0.7887  2.2897
  190SLPC   C2321951   3.297   5.395   7.052 -0.5849 -0.5027  0.0200
  190SLPC   H3R21952   3.377   5.472   7.047  1.5725 -2.6698 -3.4319
  190SLPC   H3S21953   3.324   5.297   7.097 -2.1746  0.0853  2.4088
  190SLPC   C2421954   3.175   5.446   7.133 -1.2458 -0.0027  0.1404
  190SLPC   H4R21955   3.101   5.363   7.139 -2.3199  0.9992  1.3968
  190SLPC   H4S21956   3.141   5.545   7.097  2.6138  1.3034 -0.3805
  190SLPC   C2521957   3.214   5.473   7.284  0.1259  0.4723 -0.3058
  190SLPC   H5R21958   3.249   5.577   7.299 -1.2171  0.9125 -0.1221
  190SLPC   H5S21959   3.300   5.409   7.315 -1.6609 -1.1666  1.5852
  190SLPC   C2621960   3.095   5.459   7.389 -0.1305  1.1472 -0.2936
  190SLPC   H6R21961   3.048   5.358   7.384 -1.1429  1.5094  1.1216
  190SLPC   H6S21962   3.014   5.529   7.359 -0.9490  0.8497  1.1222
  190SLPC   C2721963   3.146   5.494   7.527  0.1703  0.1527  0.2095
  190SLPC   H7R21964   3.148   5.605   7.524 -0.6101  0.1771  0.3440
  190SLPC   H7S21965   3.248   5.461   7.555 -0.1032  1.1157  2.5930
  190SLPC   C2821966   3.049   5.440   7.644 -0.7818  0.0137  0.6666
  190SLPC   H8R21967   3.049   5.329   7.641 -1.9211  0.0053  0.2509
  190SLPC   H8S21968   2.948   5.475   7.614 -0.7219 -0.3333  0.0329
  190SLPC   C2921969   3.078   5.497   7.778 -0.0560  0.5076 -0.1681
  190SLPC   H9R21970   3.164   5.565   7.785  0.6338 -0.4191  0.8745
  190SLPC  C21021971   3.026   5.454   7.896 -0.0589  0.2727 -0.9221
  190SLPC  H10R21972   3.054   5.504   7.990  0.4413 -0.2330 -0.8000
  190SLPC  C21121973   2.914   5.352   7.917  0.6023 -0.8009  0.8116
  190SLPC  H11R21974   2.865   5.320   7.823  1.2029  0.0670  0.1776
  190SLPC  H11S21975   2.839   5.402   7.982  1.0132 -0.6272  1.1558
  190SLPC  C21221976   2.961   5.237   7.997 -0.1592 -0.0903  0.4825
  190SLPC  H12R21977   3.045   5.182   7.952 -0.6563  0.9702 -1.9119
  190SLPC  C21321978   2.936   5.200   8.124  0.3073  0.2370  0.3365
  190SLPC  H13R21979   2.984   5.110   8.166 -0.9829 -0.5733  0.1451
  190SLPC  C21421980   2.838   5.270   8.212  0.1626 -0.3261  0.4765
  190SLPC  H14R21981   2.768   5.338   8.160  1.8926  1.4138  0.3279
  190SLPC  H14S21982   2.892   5.343   8.275 -0.4103  1.4215 -0.9919
  190SLPC  C21521983   2.767   5.173   8.302  0.2211  0.2029  0.7241
  190SLPC  H15R21984   2.846   5.131   8.368  1.1361 -1.3700 -1.2509
  190SLPC  H15S21985   2.727   5.088   8.242 -0.3325  0.5602  0.5860
  190SLPC  C21621986   2.655   5.234   8.385  0.2121 -0.3688 -0.8828
  190SLPC  H16R21987   2.597   5.301   8.318  1.5818  1.4041 -0.3649
  190SLPC  H16S21988   2.687   5.282   8.479 -1.5921  0.5531 -0.6892
  190SLPC  C21721989   2.561   5.127   8.432  0.2837 -0.1249 -0.3387
  190SLPC  H17R21990   2.622   5.058   8.493 -2.4683 -1.8369  0.6584
  190SLPC  H17S21991   2.531   5.073   8.339  1.7813 -0.6158 -0.5668
  190SLPC  C21821992   2.440   5.181   8.510 -0.0034  0.5244 -0.7852
  190SLPC  H18R21993   2.387   5.246   8.437 -0.5988  0.9181 -0.0149
  190SLPC  H18S21994   2.458   5.231   8.607 -2.9462 -0.7265  0.5078
  190SLPC  H18T21995   2.369   5.100   8.537  1.0865 -0.7990 -1.7309
  190SLPC   C3321996   2.679   5.339   7.137  0.4266 -0.1688  0.2851
  190SLPC   H3X21997   2.783   5.377   7.144  1.3058 -2.0105 -1.7552
  190SLPC   H3Y21998   2.675   5.228   7.134 -2.5965 -0.2421  2.4021
  190SLPC   C3421999   2.605   5.384   7.262 -0.4041  0.3045  0.1946
  190SLPC   H4X22000   2.498   5.355   7.246 -0.6606  1.6939 -0.7413
  190SLPC   H4Y22001   2.609   5.495   7.268  1.3642  0.2669  0.2221
  190SLPC   C3522002   2.651   5.315   7.395 -0.3746  0.3990 -0.0604
  190SLPC   H5X22003   2.757   5.346   7.408 -1.1091  2.8069  0.7684
  190SLPC   H5Y22004   2.646   5.205   7.395  1.6558  0.1772  3.1533
  190SLPC   C3622005   2.578   5.363   7.513  0.2624  0.0017  0.4685
  190SLPC   H6X22006   2.470   5.338   7.517  0.4506 -0.6383  2.6217
  190SLPC   H6Y22007   2.592   5.473   7.516 -0.7997  0.1273  2.4948
  190SLPC   C3722008   2.650   5.313   7.634  0.9037 -0.7175  0.3663
  190SLPC   H7X22009   2.758   5.339   7.630  0.5198  0.8948 -0.1867
  190SLPC   H7Y22010   2.649   5.202   7.637 -1.5389 -0.7341  0.9174
  190SLPC   C3822011   2.584   5.358   7.772 -0.1980 -0.2527  0.0336
  190SLPC   H8X22012   2.586   5.466   7.799  4.2081  0.0173 -0.6145
  190SLPC   H8Y22013   2.639   5.322   7.861  1.7491  0.3719 -0.8485
  190SLPC   C3922014   2.438   5.299   7.783 -0.1648  0.3036 -0.3235
  190SLPC   H9X22015   2.446   5.191   7.758 -0.6251  0.2593 -0.2889
  190SLPC   H9Y22016   2.371   5.345   7.707  0.8961 -0.7468 -1.9394
  190SLPC  C31022017   2.395   5.308   7.933 -0.0953  0.3060  0.3199
  190SLPC  H10X22018   2.383   5.409   7.977 -2.5314 -0.3864  1.4672
  190SLPC  H10Y22019   2.459   5.248   8.002 -2.7563 -3.4859 -0.1675
  190SLPC  C31122020   2.255   5.241   7.949  0.2359  0.0245 -0.3509
  190SLPC  H11X22021   2.240   5.146   7.893 -0.6430 -0.1014  0.0725
  190SLPC  H11Y22022   2.182   5.301   7.890  0.7419  1.2711  0.2589
  190SLPC  C31222023   2.213   5.238   8.097  0.1750  0.5613  0.2157
  190SLPC  H12X22024   2.213   5.342   8.135  0.0629  0.2463  1.0941
  190SLPC  H12Y22025   2.280   5.172   8.156 -0.3203  1.3286  1.6856
  190SLPC  C31322026   2.061   5.191   8.117  0.5014  0.5918  0.5473
  190SLPC  H13X22027   2.061   5.168   8.225 -0.4190 -2.3543  0.0076
  190SLPC  H13Y22028   2.055   5.099   8.055  1.8560  1.1971 -0.5520
  190SLPC  C31422029   1.961   5.299   8.078  0.0996  0.1363  0.2794
  190SLPC  H14X22030   1.865   5.247   8.058  0.8142 -0.6406 -1.3736
  190SLPC  H14Y22031   1.984   5.344   7.979  1.1748 -2.4019 -0.7132
  190SLPC  C31522032   1.950   5.419   8.174 -0.1486  0.1628 -0.3116
  190SLPC  H15X22033   1.858   5.475   8.147 -0.6344 -0.6648 -0.4290
  190SLPC  H15Y22034   2.019   5.500   8.143 -1.8673  1.2651 -1.4095
  190SLPC  C31622035   1.935   5.389   8.329  0.6619 -0.2310  0.9680
  190SLPC  H16X22036   2.037   5.359   8.362  0.7907 -1.9276 -0.8086
  190SLPC  H16Y22037   1.862   5.306   8.331  0.7998 -0.3759  0.1785
  190SLPC  C31722038   1.895   5.516   8.416 -0.7754  0.3202 -0.2038
  190SLPC  H17X22039   1.976   5.590   8.396 -1.4808  1.9343  2.3149
  190SLPC  H17Y22040   1.912   5.489   8.522  3.2273  1.2869 -0.4597
  190SLPC  C31822041   1.754   5.557   8.390 -0.3029 -0.3508  0.4846
  190SLPC  H18X22042   1.765   5.586   8.284  2.0785 -2.5112  0.0569
  190SLPC  H18Y22043   1.723   5.645   8.451 -1.4885 -1.3140  1.3280
  190SLPC  H18Z22044   1.683   5.472   8.398  0.2477 -0.6792  2.6860
  191SLPC     N22045   1.582   1.834   5.609 -0.2585 -0.7284 -0.7372
  191SLPC   C1322046   1.667   1.905   5.505  0.5092  0.3264  0.0746
  191SLPC  H13A22047   1.761   1.852   5.500 -0.8715 -2.4333  1.0584
  191SLPC  H13B22048   1.616   1.902   5.410 -2.0436 -0.9063  1.3718
  191SLPC  H13C22049   1.689   2.007   5.531  0.0595  0.2567  0.7626
  191SLPC   C1422050   1.528   1.710   5.540 -0.1768 -0.0343  0.5318
  191SLPC  H14A22051   1.458   1.658   5.603 -0.2028 -1.5310 -0.6794
  191SLPC  H14B22052   1.487   1.732   5.442  1.9631  0.4709 -0.3081
  191SLPC  H14C22053   1.606   1.640   5.515 -3.4475 -3.1266 -2.1134
  191SLPC   C1522054   1.467   1.919   5.641  0.0307  0.3198  0.9208
  191SLPC  H15A22055   1.404   1.934   5.554 -0.4992 -2.1697  0.8015
  191SLPC  H15B22056   1.399   1.869   5.707  0.3756 -1.4578  0.0094
  191SLPC  H15C22057   1.498   2.017   5.674  1.5299 -0.1112  0.8956
  191SLPC   C1222058   1.677   1.802   5.730  0.0032 -0.7772 -0.1284
  191SLPC  H12A22059   1.711   1.899   5.762 -0.8980 -0.0268 -1.3598
  191SLPC  H12B22060   1.758   1.736   5.704  0.0520 -0.4572 -0.7981
  191SLPC   C1122061   1.611   1.750   5.862 -0.5490 -0.3294 -0.1091
  191SLPC  H11A22062   1.700   1.735   5.927 -0.5964  0.9091  0.2665
  191SLPC  H11B22063   1.558   1.657   5.833  1.3172 -1.3179 -0.5589
  191SLPC     P22064   1.395   1.806   6.000  0.2194 -0.5195  1.0149
  191SLPC   O1322065   1.285   1.886   5.941  0.2986 -0.3250 -0.0280
  191SLPC   O1422066   1.376   1.658   6.012  0.9413 -0.3443  1.0041
  191SLPC   O1222067   1.528   1.851   5.920  0.0379  0.1336  0.2099
  191SLPC   O1122068   1.424   1.872   6.137  0.1492  0.0192 -0.1764
  191SLPC    C122069   1.538   1.838   6.219 -0.2476 -0.5596 -0.0303
  191SLPC    HA22070   1.617   1.810   6.147 -0.7518 -1.6255 -0.1797
  191SLPC    HB22071   1.567   1.926   6.281  0.3943 -0.1783 -0.8555
  191SLPC    C222072   1.516   1.718   6.312 -0.1915  0.1033  0.7317
  191SLPC    HS22073   1.481   1.640   6.240 -0.6168  0.6006  0.3903
  191SLPC   O2122074   1.423   1.748   6.414  0.3326 -0.5857  0.4757
  191SLPC   C2122075   1.368   1.639   6.468 -0.4123 -0.1818  0.4834
  191SLPC   O2222076   1.385   1.528   6.423 -0.3203  0.6167  0.0576
  191SLPC   C2222077   1.283   1.685   6.584 -0.1801  0.2694  0.2583
  191SLPC   H2R22078   1.310   1.779   6.637 -0.6307 -0.3064  1.5470
  191SLPC   H2S22079   1.178   1.695   6.550 -0.8580 -3.7723  0.6466
  191SLPC    C322080   1.649   1.683   6.379  0.3733  0.0595 -0.5935
  191SLPC    HX22081   1.720   1.668   6.295 -2.4408 -0.0026 -3.1879
  191SLPC    HY22082   1.636   1.587   6.434 -1.5335  0.7946  0.3432
  191SLPC   O3122083   1.698   1.788   6.458 -0.1343 -0.0821  0.3366
  191SLPC   C3122084   1.741   1.763   6.582  0.7446 -0.4932  0.3206
  191SLPC   O3222085   1.726   1.657   6.640 -0.8013  0.0091  0.3501
  191SLPC   C3222086   1.809   1.890   6.628 -0.5193 -1.0141 -0.2411
  191SLPC   H2X22087   1.728   1.966   6.643  1.6647  1.0728  1.9679
  191SLPC   H2Y22088   1.883   1.912   6.548 -1.4526 -0.2964 -0.9298
  191SLPC   C2322089   1.277   1.575   6.694  0.4862  0.1690  0.0662
  191SLPC   H3R22090   1.255   1.473   6.655  1.3046  0.2148 -0.5401
  191SLPC   H3S22091   1.196   1.605   6.763 -1.4482 -0.2986 -1.8836
  191SLPC   C2422092   1.404   1.566   6.779  0.0686  0.5181  0.2265
  191SLPC   H4R22093   1.427   1.671   6.805  1.9217  0.3737 -0.6823
  191SLPC   H4S22094   1.482   1.522   6.713 -0.5294  0.2688 -0.3212
  191SLPC   C2522095   1.374   1.470   6.899 -0.1378  0.0646 -0.2383
  191SLPC   H5R22096   1.361   1.362   6.874  1.8396 -0.7564  1.8269
  191SLPC   H5S22097   1.289   1.513   6.956  0.0789  1.0987 -0.6847
  191SLPC   C2622098   1.504   1.460   6.981 -0.1423 -0.2698  0.3750
  191SLPC   H6R22099   1.528   1.564   7.010  1.4651 -0.1552 -1.1836
  191SLPC   H6S22100   1.592   1.433   6.919  0.6046  1.5590  0.5611
  191SLPC   C2722101   1.485   1.372   7.107 -0.2772 -0.7746  0.7069
  191SLPC   H7R22102   1.481   1.264   7.081 -0.6211 -1.3362  2.8667
  191SLPC   H7S22103   1.381   1.399   7.136 -0.8892 -0.3207 -1.7376
  191SLPC   C2822104   1.588   1.400   7.219 -0.5650  0.6973  0.0873
  191SLPC   H8R22105   1.691   1.381   7.180 -0.3977 -1.3567  1.3712
  191SLPC   H8S22106   1.561   1.336   7.306  0.1781 -1.0478 -0.9296
  191SLPC   C2922107   1.584   1.545   7.261 -0.3191  0.6928 -0.1286
  191SLPC   H9R22108   1.663   1.608   7.218  1.0044 -1.5079 -1.0387
  191SLPC  C21022109   1.508   1.590   7.366  0.4466  0.0591 -0.0621
  191SLPC  H10R22110   1.523   1.691   7.407 -0.3641 -1.1650  3.6490
  191SLPC  C21122111   1.399   1.515   7.443  0.2666 -0.7220  0.8130
  191SLPC  H11R22112   1.448   1.441   7.510  1.4470 -1.1927 -0.5211
  191SLPC  H11S22113   1.341   1.451   7.374  2.1486 -0.4519 -1.1011
  191SLPC  C21222114   1.314   1.610   7.532 -0.0992  0.9119 -0.0090
  191SLPC  H12R22115   1.206   1.617   7.513 -0.5452 -3.3517 -0.0028
  191SLPC  C21322116   1.363   1.685   7.641  0.0755  0.5753  0.1820
  191SLPC  H13R22117   1.294   1.752   7.694  0.8492  1.1938  0.4417
  191SLPC  C21422118   1.506   1.680   7.696 -0.3755  0.0610 -0.1783
  191SLPC  H14R22119   1.562   1.774   7.679 -1.2585  0.4199 -1.2299
  191SLPC  H14S22120   1.566   1.605   7.640 -0.1528 -0.7821  1.1470
  191SLPC  C21522121   1.508   1.650   7.852  0.4006 -0.2031  0.5984
  191SLPC  H15R22122   1.615   1.655   7.878 -0.1451  1.7492  2.7794
  191SLPC  H15S22123   1.449   1.556   7.867 -1.8682  0.4709 -2.7820
  191SLPC  C21622124   1.446   1.763   7.940  0.3666 -0.2384 -0.8030
  191SLPC  H16R22125   1.476   1.729   8.041 -0.8023  2.0886  0.4232
  191SLPC  H16S22126   1.337   1.776   7.925  0.4211  0.1031 -0.9110
  191SLPC  C21722127   1.513   1.897   7.914  0.3710  0.9406  0.1735
  191SLPC  H17R22128   1.494   1.932   7.810 -0.1319 -0.9748 -0.4206
  191SLPC  H17S22129   1.623   1.888   7.914  0.3814  0.7600 -1.6742
  191SLPC  C21822130   1.461   2.009   8.002 -0.3148 -0.4347 -0.2332
  191SLPC  H18R22131   1.358   2.026   7.966 -0.3509  0.7945  0.4095
  191SLPC  H18S22132   1.532   2.093   7.985 -1.6893  0.9490  0.6230
  191SLPC  H18T22133   1.464   1.977   8.108  1.5768  0.4437  0.0247
  191SLPC   C3322134   1.875   1.861   6.759  0.7200  0.0580  0.3227
  191SLPC   H3X22135   1.954   1.785   6.740 -0.1531 -0.7052 -0.3798
  191SLPC   H3Y22136   1.801   1.815   6.827  2.2133  0.2283  2.1230
  191SLPC   C3422137   1.924   1.983   6.833 -0.0212 -0.0262  0.1806
  191SLPC   H4X22138   1.842   2.052   6.861  0.8186  0.9980  0.1770
  191SLPC   H4Y22139   1.990   2.038   6.762 -0.9494  0.4084 -0.3680
  191SLPC   C3522140   2.009   1.961   6.959 -0.8230 -0.4615  0.1155
  191SLPC   H5X22141   2.101   1.921   6.913  0.0018  3.1435 -1.6748
  191SLPC   H5Y22142   1.956   1.888   7.024 -0.9300 -0.1552  0.3730
  191SLPC   C3622143   2.028   2.093   7.036 -0.3047  0.6857 -0.8679
  191SLPC   H6X22144   1.930   2.102   7.088 -0.7750 -0.6278 -1.4725
  191SLPC   H6Y22145   2.046   2.188   6.982  0.5050  1.6786  1.0351
  191SLPC   C3722146   2.124   2.092   7.161 -0.6665 -0.0714  0.2071
  191SLPC   H7X22147   2.219   2.047   7.127 -0.2845  0.5644  0.4061
  191SLPC   H7Y22148   2.079   2.027   7.239  1.2406 -3.0104 -0.9854
  191SLPC   C3822149   2.151   2.226   7.229  0.5453 -0.6161  0.5778
  191SLPC   H8X22150   2.199   2.294   7.156  0.6870 -0.5821  0.7035
  191SLPC   H8Y22151   2.218   2.210   7.316 -0.0414 -1.5014  0.8804
  191SLPC   C3922152   2.032   2.297   7.292  0.5854  0.0881  0.3628
  191SLPC   H9X22153   1.989   2.221   7.361  0.2855  0.1364  0.2292
  191SLPC   H9Y22154   1.956   2.317   7.214  0.6333  0.7475  0.4780
  191SLPC  C31022155   2.061   2.429   7.374  0.0263  0.1872  0.8153
  191SLPC  H10X22156   1.967   2.480   7.405 -1.7466 -1.4242 -1.5076
  191SLPC  H10Y22157   2.129   2.483   7.305  0.1451 -1.1479 -0.1572
  191SLPC  C31122158   2.141   2.385   7.503 -0.6216 -0.5019 -0.1624
  191SLPC  H11X22159   2.236   2.342   7.464  0.7088  2.1356 -0.0100
  191SLPC  H11Y22160   2.088   2.302   7.554  0.7276 -2.2985 -1.5584
  191SLPC  C31222161   2.168   2.494   7.607 -0.1345 -0.8296  0.8048
  191SLPC  H12X22162   2.162   2.592   7.556 -1.3121 -0.9496  0.6640
  191SLPC  H12Y22163   2.274   2.478   7.633  0.9503 -1.9216 -3.5354
  191SLPC  C31322164   2.078   2.508   7.733  0.5033 -0.2332 -0.2072
  191SLPC  H13X22165   2.095   2.434   7.814 -1.0844 -0.0203  0.3611
  191SLPC  H13Y22166   1.972   2.497   7.700  0.7592 -2.1411 -0.5123
  191SLPC  C31422167   2.106   2.644   7.806  0.2938  0.6370  1.1479
  191SLPC  H14X22168   2.085   2.727   7.734  1.1405  0.0813  0.2434
  191SLPC  H14Y22169   2.213   2.650   7.833  0.8014 -2.6265  0.1730
  191SLPC  C31522170   2.029   2.658   7.938  0.3801 -0.0488 -1.2163
  191SLPC  H15X22171   2.049   2.574   8.007  1.9461  1.5834  0.4415
  191SLPC  H15Y22172   1.927   2.641   7.898  0.3679 -0.6699 -0.9216
  191SLPC  C31622173   2.049   2.791   7.998  0.0033 -0.0836  0.0681
  191SLPC  H16X22174   1.952   2.824   8.042  0.3365 -1.2993  1.8049
  191SLPC  H16Y22175   2.080   2.864   7.920  3.4152 -0.8138  0.5826
  191SLPC  C31722176   2.155   2.809   8.107 -0.4505  0.1517 -0.6080
  191SLPC  H17X22177   2.168   2.917   8.124  0.7541  0.1718 -1.5538
  191SLPC  H17Y22178   2.249   2.760   8.073  0.2715  1.1832 -0.1184
  191SLPC  C31822179   2.111   2.747   8.251  0.2618 -0.1983  0.0945
  191SLPC  H18X22180   2.185   2.769   8.331 -0.8502  0.1054  1.0703
  191SLPC  H18Y22181   2.105   2.636   8.243  1.8230 -0.2012 -1.2884
  191SLPC  H18Z22182   2.009   2.775   8.286  0.1700 -0.5597  0.1244
  192SLPC     N22183   2.508   1.692   6.077 -0.1381 -0.5861 -0.3657
  192SLPC   C1322184   2.449   1.566   6.024 -0.9083  0.1629 -0.9280
  192SLPC  H13A22185   2.498   1.475   6.056 -0.7220  0.7779  0.6403
  192SLPC  H13B22186   2.354   1.553   6.073 -0.7266  1.6581 -0.1202
  192SLPC  H13C22187   2.437   1.566   5.916 -0.3152  2.6620 -1.0652
  192SLPC   C1422188   2.444   1.812   6.009 -0.4950  0.5036  0.2677
  192SLPC  H14A22189   2.346   1.819   6.054 -1.3803 -1.1808 -1.2722
  192SLPC  H14B22190   2.492   1.906   6.030 -2.4393  1.5743  0.1910
  192SLPC  H14C22191   2.427   1.788   5.905 -1.4219 -0.5695  0.6452
  192SLPC   C1522192   2.650   1.694   6.032 -0.0235 -0.1465  0.1653
  192SLPC  H15A22193   2.697   1.789   6.056 -0.2500  0.2251 -0.8164
  192SLPC  H15B22194   2.699   1.613   6.084  1.4966  2.3080  2.9434
  192SLPC  H15C22195   2.673   1.668   5.930  3.0365  0.4247  0.6097
  192SLPC   C1222196   2.496   1.710   6.235  0.4598  0.0952  0.5728
  192SLPC  H12A22197   2.541   1.807   6.255  2.5553 -0.4524 -1.0542
  192SLPC  H12B22198   2.557   1.637   6.285  1.1871  0.1522 -0.1927
  192SLPC   C1122199   2.364   1.703   6.300 -0.3080 -0.0246 -0.2377
  192SLPC  H11A22200   2.324   1.600   6.295 -1.4363  0.2714  1.6548
  192SLPC  H11B22201   2.291   1.771   6.252  1.1388  1.4078 -0.5159
  192SLPC     P22202   2.401   1.891   6.473  0.0355 -0.0450 -0.3214
  192SLPC   O1322203   2.525   1.936   6.415 -0.1747 -0.4802  0.1898
  192SLPC   O1422204   2.281   1.954   6.417 -0.0006 -0.0821  0.0360
  192SLPC   O1222205   2.388   1.739   6.436  0.6660 -0.1933  0.0619
  192SLPC   O1122206   2.410   1.901   6.625  0.8836  0.5350 -0.2442
  192SLPC    C122207   2.511   1.967   6.698 -0.0706 -0.4323  0.5150
  192SLPC    HA22208   2.578   1.889   6.741 -0.0124 -1.2253 -0.9560
  192SLPC    HB22209   2.588   2.009   6.630 -1.1498  0.0813 -0.4180
  192SLPC    C222210   2.465   2.062   6.805  1.0025 -0.4126  0.5582
  192SLPC    HS22211   2.557   2.109   6.845  0.9310 -0.2565  0.5416
  192SLPC   O2122212   2.395   1.989   6.909 -0.3985  0.2330 -0.0931
  192SLPC   C2122213   2.473   1.927   6.992 -0.2527  0.5801 -0.2418
  192SLPC   O2222214   2.593   1.944   7.010  0.1516  0.1884 -0.3881
  192SLPC   C2222215   2.391   1.822   7.072 -0.4077  0.0394 -0.5212
  192SLPC   H2R22216   2.286   1.827   7.036 -0.3835 -0.3187 -0.6442
  192SLPC   H2S22217   2.437   1.727   7.039 -0.8692 -0.8847  1.3325
  192SLPC    C322218   2.372   2.171   6.745 -0.3468  0.2656 -0.3427
  192SLPC    HX22219   2.277   2.118   6.727 -0.0968 -0.2494 -0.1655
  192SLPC    HY22220   2.419   2.196   6.648 -1.7368 -1.7115 -1.5736
  192SLPC   O3122221   2.362   2.287   6.838  0.1642 -0.0331 -0.2257
  192SLPC   C3122222   2.315   2.396   6.792  0.2518  0.3797  0.0751
  192SLPC   O3222223   2.262   2.409   6.682 -0.4133 -0.0036 -0.4093
  192SLPC   C3222224   2.309   2.498   6.897 -0.1434  0.1386  1.2261
  192SLPC   H2X22225   2.365   2.583   6.852 -0.7324 -0.7276 -1.3199
  192SLPC   H2Y22226   2.370   2.471   6.985 -1.1622 -0.4704  1.7611
  192SLPC   C2322227   2.412   1.837   7.226 -0.1688  0.2779 -0.0596
  192SLPC   H3R22228   2.391   1.942   7.252 -0.8311  0.6578 -1.9471
  192SLPC   H3S22229   2.512   1.806   7.263 -0.5701 -0.3903  0.4758
  192SLPC   C2422230   2.308   1.756   7.300 -0.6875 -0.1389  0.0837
  192SLPC   H4R22231   2.305   1.651   7.262  0.5698 -0.6376  1.2542
  192SLPC   H4S22232   2.211   1.806   7.277 -1.4381 -1.4701  0.2467
  192SLPC   C2522233   2.340   1.755   7.449  0.6203 -0.2207 -0.3983
  192SLPC   H5R22234   2.448   1.744   7.470  0.0948 -1.6936  1.8301
  192SLPC   H5S22235   2.271   1.683   7.499  1.7249 -1.8675 -1.1631
  192SLPC   C2622236   2.297   1.893   7.515 -0.5831  0.4543 -1.1745
  192SLPC   H6R22237   2.187   1.900   7.509 -0.9108 -1.9394  0.4968
  192SLPC   H6S22238   2.350   1.976   7.463 -0.6780  0.0774 -1.8966
  192SLPC   C2722239   2.321   1.901   7.675  0.0430  0.5322  0.6498
  192SLPC   H7R22240   2.426   1.887   7.708  0.9323  0.0426 -2.1491
  192SLPC   H7S22241   2.257   1.819   7.715  0.7535 -0.5185 -0.3087
  192SLPC   C2822242   2.258   2.023   7.737 -0.4250 -0.3570  0.0806
  192SLPC   H8R22243   2.240   2.006   7.846  0.0435 -5.2598 -0.3939
  192SLPC   H8S22244   2.161   2.042   7.686 -0.0879 -1.2806 -0.9191
  192SLPC   C2922245   2.346   2.141   7.696  0.3304 -0.0055 -0.1211
  192SLPC   H9R22246   2.371   2.141   7.589  2.2035 -1.7032  0.2422
  192SLPC  C21022247   2.375   2.247   7.770 -0.2596  0.5372  0.5258
  192SLPC  H10R22248   2.446   2.315   7.721  0.8850 -2.2145 -1.9328
  192SLPC  C21122249   2.332   2.272   7.907 -0.6379  0.4360  0.5205
  192SLPC  H11R22250   2.403   2.202   7.958 -1.0911  0.7036  1.5347
  192SLPC  H11S22251   2.230   2.234   7.926 -0.7566  0.6030  0.2224
  192SLPC  C21222252   2.354   2.414   7.952 -0.4290  0.0053 -0.0191
  192SLPC  H12R22253   2.319   2.494   7.886  1.0459  1.6541  1.0995
  192SLPC  C21322254   2.405   2.449   8.070 -0.3203 -0.2054 -0.5988
  192SLPC  H13R22255   2.428   2.555   8.088 -1.1685 -0.4943  2.7391
  192SLPC  C21422256   2.445   2.352   8.177  0.3167 -0.4850 -0.0110
  192SLPC  H14R22257   2.556   2.352   8.182  0.4337  2.5993 -0.2184
  192SLPC  H14S22258   2.400   2.251   8.175 -0.8884  0.0378 -1.0166
  192SLPC  C21522259   2.418   2.410   8.317  0.0324  0.5340  0.1740
  192SLPC  H15R22260   2.442   2.326   8.385 -1.1577  0.1470  0.1314
  192SLPC  H15S22261   2.314   2.441   8.342  0.1589 -0.6409  2.4073
  192SLPC  C21622262   2.515   2.520   8.366  0.0342  0.3463 -0.6970
  192SLPC  H16R22263   2.524   2.608   8.298 -2.4725  2.1724  1.1527
  192SLPC  H16S22264   2.610   2.463   8.373 -0.4927 -0.6131 -1.1760
  192SLPC  C21722265   2.490   2.577   8.511  0.3446 -0.5606  0.5233
  192SLPC  H17R22266   2.564   2.656   8.537  0.7395 -1.3726  1.9432
  192SLPC  H17S22267   2.400   2.643   8.506  0.0874 -0.9624 -0.2575
  192SLPC  C21822268   2.483   2.479   8.627 -0.0405 -0.0291  0.3623
  192SLPC  H18R22269   2.406   2.400   8.617  0.3126 -0.4958  1.2734
  192SLPC  H18S22270   2.461   2.534   8.720 -0.9976  1.3304 -0.6315
  192SLPC  H18T22271   2.580   2.424   8.631  1.4741  2.2201 -1.9888
  192SLPC   C3322272   2.165   2.535   6.931  1.0317 -0.4867  0.3510
  192SLPC   H3X22273   2.115   2.440   6.959  1.5851 -0.5395  1.2152
  192SLPC   H3Y22274   2.113   2.576   6.842  1.6500 -0.6758 -0.1080
  192SLPC   C3422275   2.165   2.636   7.044  1.0134 -0.1327  0.1099
  192SLPC   H4X22276   2.192   2.589   7.142  0.9754 -3.8827 -1.5268
  192SLPC   H4Y22277   2.057   2.658   7.061  1.0918  1.1243 -0.8577
  192SLPC   C3522278   2.249   2.762   7.019  0.6935 -0.3041 -0.7048
  192SLPC   H5X22279   2.228   2.787   6.913 -1.9174  0.4308 -0.0749
  192SLPC   H5Y22280   2.358   2.739   7.021  0.1501 -3.2762 -0.0671
  192SLPC   C3622281   2.222   2.876   7.122  0.2649  0.8074 -0.5317
  192SLPC   H6X22282   2.115   2.905   7.119  0.6380  2.4405  0.6012
  192SLPC   H6Y22283   2.289   2.958   7.087  0.4339  0.6180 -0.6561
  192SLPC   C3722284   2.249   2.833   7.268  0.7371  0.0558 -0.0388
  192SLPC   H7X22285   2.331   2.758   7.269  3.4270  2.7531  1.8497
  192SLPC   H7Y22286   2.158   2.784   7.309  1.8107 -0.1473  2.2994
  192SLPC   C3822287   2.300   2.940   7.358  0.6340 -0.0380  0.3267
  192SLPC   H8X22288   2.246   3.033   7.329 -3.3346 -2.0214  0.6183
  192SLPC   H8Y22289   2.404   2.952   7.321  0.6173 -2.3614 -0.6689
  192SLPC   C3922290   2.295   2.906   7.507  0.4216  0.3977  0.5511
  192SLPC   H9X22291   2.310   2.797   7.518 -0.0457  0.3125  0.3431
  192SLPC   H9Y22292   2.191   2.930   7.537 -1.3198 -2.9894 -2.1664
  192SLPC  C31022293   2.401   2.968   7.599 -0.7423  0.3613 -0.2259
  192SLPC  H10X22294   2.414   3.077   7.581 -0.3629  0.4634  0.6154
  192SLPC  H10Y22295   2.493   2.927   7.552  0.3034  3.3960 -1.0877
  192SLPC  C31122296   2.382   2.930   7.744 -0.1486 -0.4101 -0.6378
  192SLPC  H11X22297   2.383   2.820   7.757 -1.0006 -0.3328  0.1381
  192SLPC  H11Y22298   2.287   2.963   7.791  0.0264  0.2469 -0.7292
  192SLPC  C31222299   2.498   2.978   7.825  0.9398 -0.2430  0.5369
  192SLPC  H12X22300   2.483   3.083   7.859  0.4520 -0.3529  0.6737
  192SLPC  H12Y22301   2.597   2.962   7.777  0.6521 -2.9821  0.6979
  192SLPC  C31322302   2.496   2.900   7.953 -0.0753  0.1261  0.2474
  192SLPC  H13X22303   2.507   2.790   7.941 -2.6618 -0.1108 -0.4947
  192SLPC  H13Y22304   2.400   2.913   8.007 -1.7604 -0.8273 -2.3098
  192SLPC  C31422305   2.615   2.954   8.038  0.1559  0.0107  0.0868
  192SLPC  H14X22306   2.583   3.058   8.064 -0.3660 -0.2676  0.5916
  192SLPC  H14Y22307   2.707   2.939   7.979  0.8185  3.4032  0.0328
  192SLPC  C31522308   2.619   2.886   8.179 -0.5676  0.7735 -0.1278
  192SLPC  H15X22309   2.651   2.782   8.160 -1.2213  0.6215 -0.4324
  192SLPC  H15Y22310   2.520   2.883   8.228 -0.0717  1.1344  0.9342
  192SLPC  C31622311   2.722   2.946   8.271  0.0100 -0.4622 -0.3518
  192SLPC  H16X22312   2.697   3.050   8.298  4.0220  0.8264 -1.0361
  192SLPC  H16Y22313   2.815   2.958   8.212  1.4523  0.9794  2.0644
  192SLPC  C31722314   2.759   2.865   8.393 -0.3503  0.5735 -0.9594
  192SLPC  H17X22315   2.771   2.762   8.354  0.1508  0.7324 -1.2369
  192SLPC  H17Y22316   2.675   2.862   8.466  1.6120 -1.3107  1.3918
  192SLPC  C31822317   2.888   2.921   8.463  0.2206  0.2040 -0.1812
  192SLPC  H18X22318   2.861   3.020   8.506  1.5772  1.4454 -2.0045
  192SLPC  H18Y22319   2.977   2.933   8.397 -1.1115  1.5907 -1.8001
  192SLPC  H18Z22320   2.918   2.847   8.540 -0.4371 -1.2862 -1.3045
  193SOD    SOD22321   4.893   6.324  11.573  0.0426 -0.4377 -0.0394
  194SOD    SOD22322   2.685   4.651  12.588 -0.6720  0.2403  0.1008
  195SOD    SOD22323   5.527   4.661  11.789 -0.4124 -0.1439 -0.0939
  196SOD    SOD22324   4.776   4.025  12.955 -0.6464 -0.0025  0.4215
  197SOD    SOD22325   1.631   1.834  14.649  0.3436  0.2468 -0.1593
  198SOD    SOD22326   3.174   0.945   2.461 -0.1047  0.5313 -0.5193
  199SOD    SOD22327   5.164   3.703  15.986  0.2893 -0.1704  0.1823
  200SOD    SOD22328   0.056   2.731   1.434 -0.6550 -0.3860  0.0635
  201SOD    SOD22329   1.443   2.643   1.717 -0.2205 -0.0336  0.0826
  202SOD    SOD22330   1.224   3.005   0.180  0.2492 -0.0494  0.2101
  203SOD    SOD22331   6.414   4.394  14.415 -0.7058  0.1634 -0.3918
  204SOD    SOD22332   5.520   2.773   5.123  0.0871  0.0213  0.1181
  205SOD    SOD22333   5.113   2.562   2.056  0.1213 -0.5889 -0.0140
  206SOD    SOD22334   0.644   2.546   2.682  0.2901  0.1361 -0.0893
  207SOD    SOD22335   4.598   1.566   1.515  0.0727  0.6309  0.1060
  208SOD    SOD22336   2.282   5.044  11.481 -0.2709 -0.3111 -0.1035
  209SOD    SOD22337   1.170   2.658  13.199 -0.1023  0.4917 -0.3652
  210SOD    SOD22338   5.459   0.612   2.523 -0.3244 -0.1546 -0.1678
  211SOD    SOD22339   1.910   2.200   5.769  0.1441  0.5368 -0.0838
  212SOD    SOD22340   1.864   4.119   6.163  0.2976  0.0488 -0.3567
  213SOD    SOD22341   6.715   0.084   3.028 -0.5754 -0.0437 -0.1351
  214SOD    SOD22342   1.130   4.263  12.854  0.3219  0.8125 -0.4181
  215SOD    SOD22343   2.271   1.739  13.935 -0.0617  0.3201  0.3315
  216SOD    SOD22344   5.169   3.689   1.869 -0.3247  0.3938 -0.2446
  217SOD    SOD22345   2.915   6.634   0.693  0.6074 -0.0347  0.0581
  218SOD    SOD22346   6.685   0.510   5.841 -0.0245  0.7263 -0.3719
  219SOD    SOD22347   3.474   1.874   5.774  0.1227 -0.2195  0.6332
  220SOD    SOD22348   5.034   0.902   0.717 -0.5522 -0.4573  0.0983
  221SOD    SOD22349   6.350   5.675   3.587  0.4483 -0.2637  0.2813
  222SOD    SOD22350   1.849   4.438  11.180  0.0478 -0.4986 -0.1950
  223SOD    SOD22351   4.683   3.711  11.867 -0.0039 -0.2333 -0.0436
  224SOD    SOD22352   5.765   6.407  14.915 -0.2477  0.1619 -0.6929
  225SOD    SOD22353   5.242   0.159  14.420 -0.4171 -0.2231  0.1019
  226SOD    SOD22354   0.446   0.081   2.657  0.5241 -0.0814 -0.4087
  227SOD    SOD22355   2.416   0.776  17.166 -0.6457 -0.3852  0.1804
  228SOD    SOD22356   0.376   2.651   5.632  0.4804  0.1537  0.2679
  229SOD    SOD22357   2.049   1.050  12.527  0.3627  0.3421 -0.4499
  230SOD    SOD22358   5.944   5.749  13.007 -0.4509 -0.1876  0.0149
  231SOD    SOD22359   1.199   5.853   1.047 -0.4557 -0.4075  0.2865
  232SOD    SOD22360   0.041   4.857   5.945  0.1583 -0.3762 -0.4695
  233SOD    SOD22361   0.632   0.549  15.579  0.4291 -0.0189 -0.0434
  234SOD    SOD22362   5.132   6.740  10.473 -0.0321  0.0631  0.0448
  235SOD    SOD22363   4.144   0.115   3.097  0.1021 -0.0763 -0.6415
  236SOD    SOD22364   5.185   5.043   6.253  0.1542 -0.4873  0.0509
  237SOD    SOD22365   0.798   4.418   1.552 -0.2853  0.1941  0.3543
  238SOD    SOD22366   6.281   1.213  14.683  0.2402 -0.6549 -0.5867
  239SOD    SOD22367   5.022   1.448   5.144 -0.1623 -0.6122  0.3044
  240SOD    SOD22368   2.834   4.627   1.591  0.2006 -0.0923  0.0973
  241SOD    SOD22369   3.683   0.564   6.589  0.2252 -0.5771 -0.5213
  242SOD    SOD22370   5.942   6.057   2.591 -0.0069 -0.6350 -0.1846
  243SOD    SOD22371   0.308   4.527  12.126 -0.0926 -0.3774 -0.0626
  244SOD    SOD22372   3.996   5.271   1.855  0.1347  0.5371  0.2220
  245SOD    SOD22373   5.372   6.161   4.768 -0.0146 -0.1177  0.7740
  246SOD    SOD22374   6.615   3.851  11.007 -0.0159 -0.1032 -0.0748
  247SOD    SOD22375   3.325   0.993  11.373 -0.3454 -1.0736  0.4468
  248SOD    SOD22376   5.652   5.187   3.013 -0.0758 -0.5432 -0.5743
  249SOD    SOD22377   6.498   4.185   5.626  0.2992  0.5906 -0.5017
  250SOD    SOD22378   0.841   3.374  14.759  0.1228  0.2341  0.3282
  251SOD    SOD22379   1.025   2.601  14.509 -0.2015  0.1019 -0.2241
  252SOD    SOD22380   2.109   0.832  15.859 -0.5309 -0.3827  0.5871
  253SOD    SOD22381   0.980   6.494  11.859 -0.2371 -0.6197  0.2690
  254SOD    SOD22382   4.489   4.627  15.964 -0.4190 -0.2954 -0.6331
  255SOD    SOD22383   0.295   0.614  16.483  0.1772 -0.0122 -0.3501
  256SOD    SOD22384   4.367   6.230  15.689  0.1656  0.2498 -0.3145
  257SOD    SOD22385   1.685   5.410   4.948 -0.5355  0.5834  0.2171
  258SOD    SOD22386   6.083   6.674  12.244  0.7196 -0.2801  0.0908
  259SOD    SOD22387   4.679   5.586   6.144 -0.2047  0.2521  0.7014
  260SOD    SOD22388   2.487   5.455   2.987  0.3530 -0.2949  0.0094
  261SOD    SOD22389   1.275   3.820  14.952  0.1873 -0.1751 -0.0115
  262SOD    SOD22390   5.669   3.618   3.922 -0.7528  0.0110  0.0637
  263SOD    SOD22391   3.290   0.831  10.917 -0.1066  0.4648 -0.2721
  264SOD    SOD22392   5.520   0.521  15.979  0.1304 -0.3243  0.3962
  265SOD    SOD22393   6.386   2.475   1.277  0.1123  0.0342  0.2848
  266CLA    CLA22394   0.990   6.360   2.975 -0.1555  0.1419 -0.3538
  267CLA    CLA22395   4.819   5.036   3.173  0.4014 -0.1754 -0.1079
  268CLA    CLA22396   6.418   0.507  12.435 -0.0664  0.0507 -0.0792
  269CLA    CLA22397   6.720   3.728  14.113  0.0539  0.2066 -0.1680
  270CLA    CLA22398   3.850   4.371   1.683  0.2080 -0.5452 -0.0566
  271CLA    CLA22399   5.725   1.206   2.558  0.2287  0.0451 -0.1029
  272CLA    CLA22400   4.806   0.117   5.513 -0.0767 -0.3544 -0.3927
  273CLA    CLA22401   5.563   5.827   1.886 -0.0807  0.2850  0.1490
  274CLA    CLA22402   2.211   2.262   3.119  0.0348 -0.4754 -0.1631
  275CLA    CLA22403   6.264   1.609   4.768 -0.0559 -0.1822  0.1352
  276CLA    CLA22404   0.994   4.561   0.767  0.3841  0.1700  0.2136
  277CLA    CLA22405   1.930   0.319  11.922 -0.1297 -0.2195 -0.1757
  278CLA    CLA22406   0.599   4.161  15.091  0.0326 -0.3290 -0.7580
  279CLA    CLA22407   5.405   1.293  13.201  0.0239  0.1214 -0.1765
  280CLA    CLA22408   2.936   2.624  12.458  0.1297  0.3168  0.0743
  281CLA    CLA22409   3.971   3.895  12.632 -0.5252  0.2973 -0.1358
  282CLA    CLA22410   0.422   4.404   5.453  0.0423  0.1607  0.1226
  283CLA    CLA22411   0.998   5.971  15.069 -0.0656 -0.3132 -0.2975
  284CLA    CLA22412   0.783   1.116  14.619 -0.0016  0.3665  0.1826
  285CLA    CLA22413   6.096   6.111  14.994  0.1835  0.4044 -0.0251
  286CLA    CLA22414   6.678   2.926  14.334  0.3460  0.1924  0.5792
  287CLA    CLA22415   1.405   0.343  14.872  0.0734  0.4884 -0.2618
  288CLA    CLA22416   4.939   0.669   3.325 -0.0189 -0.3594 -0.0511
  289CLA    CLA22417   4.119   4.309  13.603  0.3284  0.3742  0.1560
  290CLA    CLA22418   0.105   0.439   1.762  0.1964 -0.0994  0.2008
  291CLA    CLA22419   4.537   1.563   2.876  0.0370 -0.1601 -0.0627
  292CLA    CLA22420   0.843   1.001  16.093  0.0213  0.3679 -0.1993
  293CLA    CLA22421   6.527   6.256  16.330  0.5921 -0.1432  0.1747
  294CLA    CLA22422   4.899   1.238   0.338 -0.1096  0.2884 -0.0705
  295CLA    CLA22423   5.435   1.055  15.290 -0.2329 -0.1596  0.0776
  296CLA    CLA22424   3.640   4.458   0.815 -0.0353 -0.1336 -0.1589
  297CLA    CLA22425   0.549   4.418  12.516 -0.3701 -0.2115 -0.2700
  298CLA    CLA22426   1.709   6.119  16.946  0.0251 -0.0603  0.0298
  299CLA    CLA22427   1.781   2.584   5.170 -0.2122 -0.2448 -0.5356
  300CLA    CLA22428   1.840   2.435  14.340  0.2456 -0.0935 -0.0907
  301CLA    CLA22429   4.245   5.920   1.943 -0.1997 -0.2758  0.2563
  302CLA    CLA22430   5.612   5.667   3.022  0.2104  0.5108 -0.2381
  303CLA    CLA22431   4.004   4.998   2.437  0.0586  0.0943  0.0087
  304CLA    CLA22432   3.657   6.501   2.176  0.6555 -0.4601 -0.4671
  305CLA    CLA22433   3.025   0.406   1.260 -0.1685 -0.2804  0.1915
  306CLA    CLA22434   2.041   1.694  14.853  0.2133  0.0604 -0.2778
  307CLA    CLA22435   3.983   2.063  15.897  0.4501 -0.3364  0.0513
  308CLA    CLA22436   0.711   2.665   1.927  0.3333 -0.1434 -0.3108
  309CLA    CLA22437   1.284   0.846  15.909 -0.1974 -0.3863  0.0380
  310CLA    CLA22438   3.292   2.882   4.391  0.2424 -0.0976 -0.1270
  311CLA    CLA22439   1.832   1.365   0.604 -0.1150 -0.2367  0.0377
  312CLA    CLA22440   5.173   2.683   2.832  0.1137  0.4099 -0.0633
  313CLA    CLA22441   2.768   5.718   1.751 -0.4100 -0.2325  0.3802
  314CLA    CLA22442   0.132   4.859   2.636 -0.4170  0.0843  0.0892
  315CLA    CLA22443   4.635   3.025  16.559 -0.2561 -0.3698 -0.3322
  316CLA    CLA22444   5.843   4.974  12.594  0.1583  0.2944  0.5845
  317CLA    CLA22445   0.591   6.276  12.467  0.0163  0.2307  0.1152
  318CLA    CLA22446   6.708   1.088  17.185 -0.1649 -0.0624 -0.0463
  319TIP3   OH222447   0.130   4.212  13.713  0.0929 -0.8402  0.0772
  319TIP3    H122448   0.148   4.263  13.792  0.0544  1.7298 -1.4473
  319TIP3    H222449   0.168   4.263  13.642 -0.6786 -2.5723 -1.6893
  320TIP3   OH222450   1.859   3.649  14.696 -0.1590 -0.6388 -0.2886
  320TIP3    H122451   1.893   3.697  14.620 -0.3046 -0.8151 -0.4667
  320TIP3    H222452   1.849   3.559  14.665  2.3317 -1.3465  0.7176
  321TIP3   OH222453   0.413   3.757  14.752 -0.0202  0.8978 -0.4176
  321TIP3    H122454   0.344   3.778  14.814 -0.3917 -2.0358  0.3406
  321TIP3    H222455   0.367   3.731  14.672 -0.0872 -2.5175  0.5461
  322TIP3   OH222456   5.290   3.534  10.779 -0.2351  0.6040 -0.1415
  322TIP3    H122457   5.226   3.464  10.793  0.1861  0.6809  2.7137
  322TIP3    H222458   5.251   3.589  10.710 -2.9840  0.3160  1.0607
  323TIP3   OH222459   6.005   2.718   1.021  0.8116  0.1620  0.0856
  323TIP3    H122460   5.995   2.752   0.933  0.6913  0.2904  0.1484
  323TIP3    H222461   6.099   2.718   1.037  0.7949  0.7132  0.1824
  324TIP3   OH222462   3.546   2.681   4.435 -0.2928 -0.1573  0.4627
  324TIP3    H122463   3.460   2.717   4.416  0.2055  1.5725  1.2512
  324TIP3    H222464   3.576   2.729   4.512  2.4171  1.1703 -1.2271
  325TIP3   OH222465   6.518   3.979  14.635  0.4221  0.7823 -0.4534
  325TIP3    H122466   6.600   3.961  14.681  0.4792  1.7042 -0.1678
  325TIP3    H222467   6.475   3.893  14.628  1.3786  0.2988 -0.5720
  326TIP3   OH222468   3.228   5.176  16.258 -0.3531 -0.6198 -0.0455
  326TIP3    H122469   3.182   5.224  16.327  0.2905  0.2108 -0.1780
  326TIP3    H222470   3.320   5.198  16.271 -0.2506 -0.2227 -1.3410
  327TIP3   OH222471   2.158   3.099  15.543  0.9162  0.4793 -0.5423
  327TIP3    H122472   2.160   3.185  15.501 -0.1912  0.1589 -1.2937
  327TIP3    H222473   2.071   3.065  15.523  1.5216 -1.0380 -0.7070
  328TIP3   OH222474   6.283   5.202  12.118  0.1175 -0.4477 -0.2440
  328TIP3    H122475   6.318   5.217  12.030  1.0882 -1.1378  0.0056
  328TIP3    H222476   6.317   5.275  12.169 -2.5303  1.4157 -0.9367
  329TIP3   OH222477   3.685   1.764  14.764 -0.8399 -0.0343 -0.6771
  329TIP3    H122478   3.663   1.671  14.773 -0.4661 -0.0811 -0.2289
  329TIP3    H222479   3.748   1.781  14.835 -2.0673  0.9341  0.2077
  330TIP3   OH222480   1.046   0.676  11.832 -0.3276  0.3692 -0.0979
  330TIP3    H122481   1.013   0.678  11.742 -1.8029 -0.7877  0.3970
  330TIP3    H222482   1.103   0.599  11.835  0.7883  1.1456 -0.3548
  331TIP3   OH222483   5.825   0.042   5.618  0.5603  0.3063 -0.2572
  331TIP3    H122484   5.827   0.055   5.523  1.0297  3.1669  0.0519
  331TIP3    H222485   5.917   0.043   5.644  0.3956  0.6627  0.3288
  332TIP3   OH222486   4.348   5.542  13.252 -0.4513 -0.0249  0.3218
  332TIP3    H122487   4.308   5.492  13.180 -0.7701  2.4895 -1.4005
  332TIP3    H222488   4.432   5.500  13.267 -0.8991 -1.3601 -0.6867
  333TIP3   OH222489   3.327   1.132   0.027  0.5160 -0.4840  0.2511
  333TIP3    H122490   3.281   1.061   0.072  1.1694  0.0924  1.8638
  333TIP3    H222491   3.262   1.166  -0.036 -1.0029 -0.2576  1.8676
  334TIP3   OH222492   5.386   0.120   0.899  0.3429 -0.3442 -0.3783
  334TIP3    H122493   5.350   0.058   0.835  1.2091  0.2051 -1.4535
  334TIP3    H222494   5.471   0.145   0.861  0.0266  1.4702  0.0318
  335TIP3   OH222495   2.351   2.695   5.631 -0.0874 -0.1740  0.1760
  335TIP3    H122496   2.321   2.687   5.540 -0.4923  0.2403  0.2732
  335TIP3    H222497   2.420   2.629   5.639  0.4624  0.2830 -0.6506
  336TIP3   OH222498   3.665   4.890  15.378  0.1696  0.1566 -0.1326
  336TIP3    H122499   3.758   4.869  15.386  0.3695 -0.0539 -2.3895
  336TIP3    H222500   3.663   4.986  15.369 -0.1111  0.4746  2.4471
  337TIP3   OH222501   3.992   2.614  14.253  0.5056  0.3342 -0.2621
  337TIP3    H122502   4.007   2.703  14.220  3.2050  0.0320 -0.1047
  337TIP3    H222503   3.997   2.558  14.174 -1.2681  0.2810 -0.3742
  338TIP3   OH222504   4.248   5.183  12.498 -0.4379  0.0360  0.3572
  338TIP3    H122505   4.264   5.247  12.429  0.7217 -0.9179 -0.2899
  338TIP3    H222506   4.279   5.100  12.462 -0.4231 -0.6037  1.7688
  339TIP3   OH222507   0.526   2.643   3.912 -0.2017 -0.0236 -0.1048
  339TIP3    H122508   0.582   2.669   3.839 -1.8832  1.6146 -0.9103
  339TIP3    H222509   0.514   2.723   3.963 -2.2800 -0.1180 -0.3431
  340TIP3   OH222510   3.434   0.223   4.877 -0.4354 -0.5414 -0.3960
  340TIP3    H122511   3.395   0.310   4.882  0.6636 -0.0323 -0.3860
  340TIP3    H222512   3.381   0.169   4.936  0.2449  0.6600  1.3990
  341TIP3   OH222513   3.284   4.977   5.485 -0.4419  0.0578 -0.1630
  341TIP3    H122514   3.351   4.999   5.549 -0.2764  2.8462 -1.1663
  341TIP3    H222515   3.332   4.963   5.404 -0.9842  1.6130 -0.7830
  342TIP3   OH222516   0.036   1.794  11.242 -0.4602  0.1875  0.3395
  342TIP3    H122517   0.122   1.754  11.255 -0.4422  0.4040  0.9458
  342TIP3    H222518  -0.026   1.725  11.267 -0.5499 -0.6947 -2.0686
  343TIP3   OH222519   1.700   6.776  15.873  0.6261 -0.5321  0.2904
  343TIP3    H122520   1.760   6.707  15.843  0.4349 -0.4996 -0.1647
  343TIP3    H222521   1.758   6.850  15.891  0.9560 -1.1166  1.7539
  344TIP3   OH222522   4.652   0.842   3.363  0.5644  0.8553  0.3463
  344TIP3    H122523   4.640   0.937   3.366  0.1330  0.7900  1.8242
  344TIP3    H222524   4.745   0.830   3.345  0.9380  1.5942  1.6283
  345TIP3   OH222525   6.658   4.780  15.546  0.1808  0.8505 -0.1296
  345TIP3    H122526   6.570   4.814  15.565 -1.3885 -2.2083 -1.1391
  345TIP3    H222527   6.712   4.811  15.618 -2.3198  0.8087  1.9141
  346TIP3   OH222528   4.882   2.698  13.694  0.1014  0.0752  0.3533
  346TIP3    H122529   4.977   2.699  13.682  0.0400 -0.0085 -0.1767
  346TIP3    H222530   4.864   2.770  13.754  0.1870  2.1954 -2.0138
  347TIP3   OH222531   1.166   2.610   6.457  0.2467 -0.2683  0.1869
  347TIP3    H122532   1.184   2.516   6.462  1.9519  0.0867  3.9860
  347TIP3    H222533   1.075   2.618   6.486  0.3713 -0.6745  0.7057
  348TIP3   OH222534   0.054   1.990  13.537 -0.3988 -0.3062  0.4731
  348TIP3    H122535   0.013   2.021  13.457  1.1808  1.0685  0.1440
  348TIP3    H222536   0.099   1.909  13.511  0.4220  0.3323 -0.1538
  349TIP3   OH222537   3.367   5.951  15.820  0.0349  0.6641  0.0030
  349TIP3    H122538   3.271   5.953  15.816  0.0925  0.8416 -1.6177
  349TIP3    H222539   3.396   5.963  15.730  1.5168 -4.3001 -0.4791
  350TIP3   OH222540   2.913   2.276   0.488 -0.0352 -0.2761  0.0664
  350TIP3    H122541   2.821   2.280   0.512  0.4669  1.1553  1.9753
  350TIP3    H222542   2.938   2.185   0.504 -0.9014 -0.4616  0.4053
  351TIP3   OH222543   3.348   3.327  11.817  0.5386 -0.2526  0.4886
  351TIP3    H122544   3.255   3.306  11.826  0.4034  0.1961  0.2033
  351TIP3    H222545   3.376   3.349  11.906  0.4795 -0.7993  0.6462
  352TIP3   OH222546   5.547   1.256   0.152  0.2360  0.2230  0.1595
  352TIP3    H122547   5.640   1.253   0.173  0.1963  0.5441  0.3798
  352TIP3    H222548   5.536   1.336   0.100  0.5734 -1.2138 -2.3012
  353TIP3   OH222549   0.565   3.533   6.109 -0.2974 -0.4819  0.4219
  353TIP3    H122550   0.535   3.502   6.195  1.2152 -0.7940  0.8594
  353TIP3    H222551   0.656   3.558   6.123 -0.6764  1.7203 -0.5412
  354TIP3   OH222552   5.985   5.162  13.930 -0.0771 -0.0619 -0.4240
  354TIP3    H122553   6.069   5.183  13.971 -0.0571 -2.0864  0.7467
  354TIP3    H222554   6.003   5.164  13.836  0.8458  1.1334 -0.2371
  355TIP3   OH222555   0.330   3.275  11.385 -0.3199 -0.1666 -0.0783
  355TIP3    H122556   0.295   3.215  11.320  0.3031  1.0284 -1.6060
  355TIP3    H222557   0.255   3.329  11.412 -0.3030  0.3471 -1.0066
  356TIP3   OH222558   2.681   6.492  17.053  0.2026  0.3693 -0.1802
  356TIP3    H122559   2.707   6.436  16.980 -3.0841 -0.3152 -0.9621
  356TIP3    H222560   2.764   6.522  17.091  2.0325 -1.0405 -2.7814
  357TIP3   OH222561   2.271   3.650   5.130 -0.3213  0.1972  0.0998
  357TIP3    H122562   2.238   3.728   5.086 -0.3144  0.4155  0.4766
  357TIP3    H222563   2.232   3.577   5.082 -1.3742  0.4466  0.5605
  358TIP3   OH222564   6.056   0.444   0.988 -0.9779 -0.2186 -0.0891
  358TIP3    H122565   6.063   0.464   0.895  0.2806 -1.2814 -0.2610
  358TIP3    H222566   6.000   0.367   0.992 -0.6730 -0.4404 -0.0203
  359TIP3   OH222567   6.364   0.664  10.490  0.4331 -0.2581 -0.0211
  359TIP3    H122568   6.391   0.599  10.554  1.2820  0.9340  0.8731
  359TIP3    H222569   6.431   0.732  10.495  0.8234 -0.3431 -2.5486
  360TIP3   OH222570   4.803   1.799  12.834  0.0802 -0.2072  0.2080
  360TIP3    H122571   4.712   1.787  12.807  1.0548 -0.4730 -3.5093
  360TIP3    H222572   4.837   1.710  12.843  0.3742 -0.1068  0.0948
  361TIP3   OH222573   4.689   5.304   2.413  0.0525 -0.1896 -0.5198
  361TIP3    H122574   4.706   5.362   2.487 -1.7492 -1.0658  0.6575
  361TIP3    H222575   4.658   5.362   2.344  2.0061  0.6731 -0.7268
  362TIP3   OH222576   2.301   0.015   4.300 -0.5428  0.5687  0.0777
  362TIP3    H122577   2.264   0.097   4.267  0.3650  1.3261  0.9136
  362TIP3    H222578   2.251  -0.004   4.379  0.4080  1.2822  0.8792
  363TIP3   OH222579   0.223   3.768  11.418 -0.6208  0.1420  0.1850
  363TIP3    H122580   0.210   3.778  11.512  0.7710 -0.9569  0.5317
  363TIP3    H222581   0.207   3.855  11.382  0.5032  1.0086  1.6634
  364TIP3   OH222582   5.208   6.604   1.481 -0.3018 -0.1347 -0.3268
  364TIP3    H122583   5.255   6.542   1.536 -0.8335 -1.2728 -1.1052
  364TIP3    H222584   5.215   6.567   1.393 -0.0600  1.2779 -0.9292
  365TIP3   OH222585   3.651   6.728  11.384  0.1376 -0.6328  0.4304
  365TIP3    H122586   3.641   6.815  11.346 -0.4881 -0.2943  1.3353
  365TIP3    H222587   3.694   6.676  11.316 -1.2103 -0.1338 -0.8491
  366TIP3   OH222588   6.020   0.857   0.484  0.5209  0.2165 -0.0547
  366TIP3    H122589   6.005   0.825   0.573  1.1110 -1.8617 -0.6529
  366TIP3    H222590   6.106   0.821   0.460 -0.2447 -0.4469 -1.9512
  367TIP3   OH222591   5.317   1.703  15.562  0.3696  0.0073  0.4341
  367TIP3    H122592   5.266   1.779  15.533  1.4846  0.8458  0.5777
  367TIP3    H222593   5.257   1.655  15.619 -1.1788 -0.5862 -1.5699
  368TIP3   OH222594   0.874   3.192   2.116 -0.2419  0.1932 -0.0571
  368TIP3    H122595   0.876   3.191   2.021 -1.3129 -1.4410 -0.0984
  368TIP3    H222596   0.788   3.228   2.138  0.3674  1.4720  0.3361
  369TIP3   OH222597   5.863   6.324  12.444  0.6727 -0.6666 -0.1029
  369TIP3    H122598   5.851   6.260  12.514 -0.3559 -0.9820 -0.5453
  369TIP3    H222599   5.778   6.368  12.437  1.1264  0.1922 -0.3460
  370TIP3   OH222600   0.157   5.821   4.370 -0.0082 -0.0492 -0.4040
  370TIP3    H122601   0.089   5.823   4.438  0.7862 -0.5841  0.4314
  370TIP3    H222602   0.231   5.775   4.411  1.4692  1.9204 -0.7011
  371TIP3   OH222603   5.587   0.760  15.321  0.3835  0.0972  0.2675
  371TIP3    H122604   5.509   0.705  15.310  0.1252  0.0659  2.0489
  371TIP3    H222605   5.554   0.850  15.315  0.1019  0.0924  1.5076
  372TIP3   OH222606   0.964   4.309   1.218  0.4811  0.2541  0.2413
  372TIP3    H122607   1.034   4.265   1.266 -0.0059  2.6291  3.5058
  372TIP3    H222608   1.007   4.382   1.175  0.1462  2.0171  2.6612
  373TIP3   OH222609   2.175   5.879  12.970 -0.2101 -0.1821  0.2900
  373TIP3    H122610   2.234   5.826  12.917 -1.6980  0.0367 -1.6779
  373TIP3    H222611   2.205   5.969  12.957 -1.7115  0.0759 -1.8278
  374TIP3   OH222612   2.304   3.212  12.303  0.3869  0.7268 -0.8108
  374TIP3    H122613   2.215   3.183  12.282  0.3085  0.0678  0.3535
  374TIP3    H222614   2.309   3.302  12.271 -0.7556  0.8250 -0.7382
  375TIP3   OH222615   5.517   3.622   3.376  0.5800 -0.2539 -0.4735
  375TIP3    H122616   5.598   3.624   3.325  1.2246 -0.0572  0.5206
  375TIP3    H222617   5.526   3.544   3.431  0.6679  0.4416  0.5276
  376TIP3   OH222618   2.384   1.019   3.385 -0.4095  0.1798  0.0944
  376TIP3    H122619   2.323   0.946   3.374  0.3720 -0.4703  0.0171
  376TIP3    H222620   2.379   1.041   3.479 -1.3265  0.6479 -0.0509
  377TIP3   OH222621   6.582   4.764  16.203 -0.4098  0.0986  0.0776
  377TIP3    H122622   6.504   4.814  16.179 -2.4727 -2.4832  0.9343
  377TIP3    H222623   6.593   4.701  16.131 -0.6573 -1.1664  1.1079
  378TIP3   OH222624   0.137   5.454  14.868 -0.6487 -0.4684  0.1157
  378TIP3    H122625   0.133   5.502  14.951  0.5289 -1.3800  0.7338
  378TIP3    H222626   0.110   5.365  14.891  0.4780 -0.9339 -0.2908
  379TIP3   OH222627   3.373   6.587  10.710  0.2152 -0.1155  0.1901
  379TIP3    H122628   3.377   6.666  10.765 -0.2407 -0.4642  0.7326
  379TIP3    H222629   3.428   6.608  10.635 -1.2474  1.4019 -0.5411
  380TIP3   OH222630   0.449   0.319  15.846 -0.7713  0.2521 -0.6246
  380TIP3    H122631   0.436   0.353  15.935  1.8671  0.7164 -0.3269
  380TIP3    H222632   0.404   0.234  15.846 -0.1741 -0.1300  1.4451
  381TIP3   OH222633   4.669   5.107   2.623  0.6975  0.2372 -0.1280
  381TIP3    H122634   4.695   5.181   2.567  1.0242  1.5960  1.7112
  381TIP3    H222635   4.726   5.035   2.594 -0.7883  0.0923 -3.1169
  382TIP3   OH222636   4.613   6.782  11.385 -0.0447  0.2630 -0.5669
  382TIP3    H122637   4.550   6.745  11.447  0.0524  0.0534 -0.5899
  382TIP3    H222638   4.562   6.840  11.330 -0.4891 -0.9042 -1.4354
  383TIP3   OH222639   0.868   1.782   4.515 -0.2199  0.0223 -0.6047
  383TIP3    H122640   0.921   1.861   4.524  0.8639 -0.8330  1.0963
  383TIP3    H222641   0.890   1.749   4.427  1.3050  0.2507 -0.3479
  384TIP3   OH222642   1.766   0.563   6.272  0.2923  0.3601  0.4165
  384TIP3    H122643   1.744   0.549   6.364 -0.1718  2.0295  0.5851
  384TIP3    H222644   1.803   0.650   6.269  2.8144 -0.6709 -0.6066
  385TIP3   OH222645   5.793   6.227   5.576 -0.6032  0.1636  0.3285
  385TIP3    H122646   5.858   6.222   5.646 -0.5710 -0.2643  0.2695
  385TIP3    H222647   5.709   6.214   5.619 -0.4801 -1.8115  0.0907
  386TIP3   OH222648   4.675   5.439   3.600  0.2212 -0.1586 -0.2028
  386TIP3    H122649   4.609   5.473   3.661  0.7485  2.0731 -0.7914
  386TIP3    H222650   4.754   5.429   3.654 -0.1677 -1.4506  0.1760
  387TIP3   OH222651   0.949   0.102   5.438 -0.8559 -0.9417  0.8327
  387TIP3    H122652   1.026   0.045   5.443  0.7412  0.6675 -2.5010
  387TIP3    H222653   0.978   0.184   5.479 -0.8106 -0.3726 -0.3196
  388TIP3   OH222654   3.730   1.030   1.168  0.2077  0.0914  0.2969
  388TIP3    H122655   3.658   1.045   1.107  1.0164  2.1537 -0.2179
  388TIP3    H222656   3.713   1.089   1.241  0.5690 -0.5479  0.9118
  389TIP3   OH222657   5.128   6.484  16.464 -0.4017 -0.2161 -0.2717
  389TIP3    H122658   5.137   6.564  16.514 -1.8045  0.1376 -0.5381
  389TIP3    H222659   5.117   6.513  16.373 -4.2124 -0.4219 -0.0353
  390TIP3   OH222660   0.649   4.230   1.531 -0.7633  0.5834  0.5346
  390TIP3    H122661   0.653   4.143   1.570  1.5260 -0.8699 -2.5399
  390TIP3    H222662   0.574   4.226   1.472 -1.1359  1.0016  0.9730
  391TIP3   OH222663   3.942   5.010   6.108  0.1984 -0.7449 -0.2616
  391TIP3    H122664   4.015   4.955   6.077  0.2574 -0.5586 -0.4526
  391TIP3    H222665   3.887   4.950   6.157  0.8598 -0.7442  0.5088
  392TIP3   OH222666   5.073   4.881  15.277  0.1405 -0.2289  0.5861
  392TIP3    H122667   5.010   4.823  15.235  1.5310 -0.4624 -1.3094
  392TIP3    H222668   5.148   4.826  15.296  0.5331  0.4418  1.0365
  393TIP3   OH222669   2.097   4.236  12.930  0.9971 -0.1787  0.5273
  393TIP3    H122670   2.025   4.183  12.897  1.7157 -0.5484 -0.4875
  393TIP3    H222671   2.074   4.326  12.904 -0.9560  0.3329  3.5257
  394TIP3   OH222672   6.591   5.454   1.263 -0.4095 -0.0993 -0.0218
  394TIP3    H122673   6.581   5.528   1.322  0.7316  0.0733 -0.0301
  394TIP3    H222674   6.635   5.387   1.316 -0.5935 -0.4315 -0.2856
  395TIP3   OH222675   3.274   5.307  14.484 -0.0425  0.5892  0.0071
  395TIP3    H122676   3.296   5.251  14.409 -2.6730 -0.9751  0.2922
  395TIP3    H222677   3.298   5.395  14.456  2.9222 -0.4211 -1.0164
  396TIP3   OH222678   6.013   5.412   0.556  0.0328  0.4313 -0.1408
  396TIP3    H122679   5.967   5.330   0.575  0.5260 -0.1478 -1.2999
  396TIP3    H222680   5.950   5.481   0.576 -1.0389 -0.3050 -0.8517
  397TIP3   OH222681   1.296   1.926   3.667 -0.1382 -0.2540 -0.0050
  397TIP3    H122682   1.228   1.892   3.610 -0.1286 -2.5259  1.2156
  397TIP3    H222683   1.371   1.868   3.654  1.4516  1.8590 -0.9147
  398TIP3   OH222684   4.983   2.861   0.793 -0.1485 -0.2979 -0.1311
  398TIP3    H122685   4.949   2.950   0.784  0.9936  0.1579 -0.1494
  398TIP3    H222686   4.958   2.834   0.881  1.0911  0.7790  0.5895
  399TIP3   OH222687   2.869   6.190   2.032 -0.5165  0.3549 -0.2671
  399TIP3    H122688   2.930   6.124   2.000 -1.3790  0.5486 -2.5682
  399TIP3    H222689   2.784   6.146   2.032 -0.7187  0.7204  0.7317
  400TIP3   OH222690   5.412   2.833   4.914  0.0293  0.7211 -0.5443
  400TIP3    H122691   5.423   2.928   4.918 -2.7344  1.1081  0.6957
  400TIP3    H222692   5.319   2.821   4.894  0.1750 -1.7244 -0.0271
  401TIP3   OH222693   3.352   5.329  11.475 -0.0432  0.1954  0.1661
  401TIP3    H122694   3.306   5.388  11.415  1.6290  0.9520 -0.4228
  401TIP3    H222695   3.345   5.372  11.561  0.3160  0.7389 -0.0780
  402TIP3   OH222696   0.567   2.190  14.060  0.3550 -0.3049 -0.0165
  402TIP3    H122697   0.514   2.255  14.013  2.6269  2.5073  0.9985
  402TIP3    H222698   0.542   2.106  14.021 -1.8012  1.2678 -2.3750
  403TIP3   OH222699   1.645   1.124   1.745 -0.3089  0.5928 -0.1220
  403TIP3    H122700   1.713   1.071   1.702 -0.5288  1.6158 -1.7922
  403TIP3    H222701   1.563   1.087   1.715 -0.4807  0.7014  0.2092
  404TIP3   OH222702   5.346   4.235   3.501 -0.1245 -0.0625 -0.8045
  404TIP3    H122703   5.282   4.279   3.445  1.3530  0.6535 -2.0071
  404TIP3    H222704   5.301   4.222   3.584 -1.9255  0.1040 -1.7117
  405TIP3   OH222705   5.168   4.135  17.231  0.2336  0.2026 -0.3335
  405TIP3    H122706   5.160   4.092  17.317  2.3806 -0.8277 -0.5650
  405TIP3    H222707   5.088   4.112  17.185 -0.4286 -0.2386  0.9824
  406TIP3   OH222708   4.960   4.886  16.550 -0.3013  0.1623  0.1725
  406TIP3    H122709   4.896   4.816  16.564 -2.0794  1.9111  1.2532
  406TIP3    H222710   5.009   4.857  16.472 -1.7490 -1.6984 -0.1405
  407TIP3   OH222711   2.983   5.584  16.869 -0.1805  0.6271  0.5636
  407TIP3    H122712   2.888   5.596  16.877 -0.2498  1.2933 -1.0122
  407TIP3    H222713   2.993   5.512  16.807  0.3541  0.1505  1.1955
  408TIP3   OH222714   2.422   3.808  15.877  0.0887  0.1057 -0.2259
  408TIP3    H122715   2.459   3.839  15.959  1.6652 -1.5555 -0.2433
  408TIP3    H222716   2.333   3.844  15.875  1.3462  3.5895  0.2156
  409TIP3   OH222717   0.199   3.387  16.769 -0.3019  0.3407 -0.1569
  409TIP3    H122718   0.199   3.384  16.673 -0.1194  0.9570 -0.1851
  409TIP3    H222719   0.197   3.296  16.796 -0.3057  0.1590 -0.7518
  410TIP3   OH222720   0.528   5.385  16.430 -0.2926 -0.6469  0.0907
  410TIP3    H122721   0.530   5.460  16.371 -2.5251 -0.3768  0.2746
  410TIP3    H222722   0.614   5.385  16.472  0.3926  0.7155 -1.2080
  411TIP3   OH222723   0.934   1.340   6.286  0.0436 -0.2684 -0.3245
  411TIP3    H122724   0.867   1.406   6.268  0.1040 -0.3670 -0.9300
  411TIP3    H222725   0.888   1.257   6.282  0.2299 -0.3481 -0.9184
  412TIP3   OH222726   3.704   2.904  14.325 -0.0514 -0.1806 -0.1419
  412TIP3    H122727   3.635   2.858  14.372  1.1024 -0.0919  1.7511
  412TIP3    H222728   3.781   2.899  14.383  0.6074  2.5772 -0.6009
  413TIP3   OH222729   3.381   4.306   5.252  0.1412 -0.5949 -0.0643
  413TIP3    H122730   3.343   4.272   5.171 -0.0843  0.9322 -0.6312
  413TIP3    H222731   3.468   4.266   5.257  0.6827  0.2947 -1.7644
  414TIP3   OH222732   5.274   6.442  13.485  0.7031  0.6818  0.3623
  414TIP3    H122733   5.190   6.466  13.524  0.3688  0.0431  0.0453
  414TIP3    H222734   5.309   6.375  13.544  0.6244  0.3775  0.0608
  415TIP3   OH222735   2.256   3.522  12.820  0.3978 -0.1068 -0.0709
  415TIP3    H122736   2.201   3.444  12.809 -0.2602  0.2693  0.4920
  415TIP3    H222737   2.297   3.511  12.905 -1.8002  1.3958  1.3015
  416TIP3   OH222738   1.301   2.324  12.531  0.3864 -0.1242 -0.4819
  416TIP3    H122739   1.226   2.376  12.501  0.6255 -0.4736 -1.7125
  416TIP3    H222740   1.301   2.247  12.474  1.5856 -0.2081 -0.3804
  417TIP3   OH222741   5.571   1.853  16.606  0.2796  0.0287 -0.8625
  417TIP3    H122742   5.478   1.872  16.598  0.5568  1.8240 -0.2486
  417TIP3    H222743   5.613   1.939  16.606  1.7968 -0.6634  0.5851
  418TIP3   OH222744   3.057   6.484   1.761  0.1938  0.1777 -0.5139
  418TIP3    H122745   3.053   6.498   1.856  1.1091  1.1118 -0.5875
  418TIP3    H222746   3.147   6.456   1.745 -0.1227 -0.5399 -1.0435
  419TIP3   OH222747   2.692   4.978  11.230 -0.3541 -0.1289  0.2749
  419TIP3    H122748   2.727   5.061  11.262 -0.8163  0.6352 -1.1454
  419TIP3    H222749   2.765   4.937  11.184 -1.0049  1.0580 -1.9173
  420TIP3   OH222750   4.041   6.399  16.959 -0.3140  0.1122 -0.0893
  420TIP3    H122751   4.117   6.344  16.977  1.3772  2.5027  0.6892
  420TIP3    H222752   4.030   6.450  17.039 -1.6232  1.0523 -0.8436
  421TIP3   OH222753   5.552   1.581   1.811  0.0889 -0.1526 -0.0708
  421TIP3    H122754   5.547   1.559   1.904  0.5055 -0.7439 -0.1813
  421TIP3    H222755   5.464   1.565   1.778 -1.0673  3.3345  0.8838
  422TIP3   OH222756   1.040   0.438  16.189 -0.0641  0.8345 -0.6047
  422TIP3    H122757   1.056   0.376  16.260  0.6198  0.0050 -1.4455
  422TIP3    H222758   1.045   0.524  16.229 -1.1245  0.3591  0.6174
  423TIP3   OH222759   1.034   5.833   0.873 -0.5738 -0.1538 -0.0672
  423TIP3    H122760   1.036   5.743   0.841 -0.5370  0.3631 -1.5812
  423TIP3    H222761   0.948   5.843   0.913 -0.7886 -0.6803 -0.3994
  424TIP3   OH222762   4.890   3.857   5.179 -0.3378  0.1103 -0.0924
  424TIP3    H122763   4.929   3.872   5.265 -0.9164  1.8241 -0.1041
  424TIP3    H222764   4.944   3.788   5.140  1.2289  0.7944  0.8033
  425TIP3   OH222765   5.657   1.389   5.358  0.3293 -0.0127 -0.0089
  425TIP3    H122766   5.625   1.460   5.302 -0.6068 -0.5912 -0.2480
  425TIP3    H222767   5.648   1.310   5.304 -1.1164 -0.6725  1.0959
  426TIP3   OH222768   4.192   3.354  15.325 -0.2181  0.5407  0.7460
  426TIP3    H122769   4.256   3.342  15.255 -1.5647  0.2870 -0.4780
  426TIP3    H222770   4.213   3.285  15.388 -2.0499 -2.6542 -1.7921
  427TIP3   OH222771   3.394   6.621  16.964  0.1422  0.5712  0.2005
  427TIP3    H122772   3.422   6.533  16.990 -2.2421 -0.9068 -1.7201
  427TIP3    H222773   3.421   6.628  16.872 -0.0713  1.6724  0.2139
  428TIP3   OH222774   1.663   6.325   6.362  0.5342 -0.7826  0.0220
  428TIP3    H122775   1.637   6.242   6.323  1.0945 -0.8504 -0.2239
  428TIP3    H222776   1.621   6.392   6.309  2.6464 -0.8057 -1.8301
  429TIP3   OH222777   2.331   5.610   3.359 -0.1891 -0.0974  0.4665
  429TIP3    H122778   2.306   5.518   3.353 -0.2434 -0.0640  0.1522
  429TIP3    H222779   2.426   5.610   3.351 -0.3412  0.0835 -2.5310
  430TIP3   OH222780   1.220   1.196   4.039  0.2071  0.2890 -0.4716
  430TIP3    H122781   1.200   1.110   4.075 -0.7678  0.3192 -0.9071
  430TIP3    H222782   1.273   1.239   4.106 -0.4360 -0.1465  0.3336
  431TIP3   OH222783   0.198   3.067   1.798  0.0414 -0.1694 -0.1702
  431TIP3    H122784   0.114   3.093   1.759 -0.5618 -2.2945 -0.4087
  431TIP3    H222785   0.179   3.055   1.891  0.7058  1.6444  0.2596
  432TIP3   OH222786   2.950   4.245   1.307 -0.1334 -0.4045  0.1143
  432TIP3    H122787   2.960   4.167   1.362  0.6427 -1.3595 -1.2982
  432TIP3    H222788   3.037   4.287   1.309  0.1915 -0.9767 -1.0946
  433TIP3   OH222789   2.692   0.099  11.517  0.8368  0.2275 -0.1825
  433TIP3    H122790   2.750   0.025  11.535  1.6790  0.6050 -1.2508
  433TIP3    H222791   2.708   0.121  11.425  0.5831  1.7068  0.0966
  434TIP3   OH222792   0.363   1.510   2.762 -0.6158 -0.0592 -0.1205
  434TIP3    H122793   0.384   1.474   2.848 -2.6486  2.2881  1.4735
  434TIP3    H222794   0.431   1.575   2.746 -0.5274 -0.1255 -0.0135
  435TIP3   OH222795   5.689   3.368   0.917  0.0952 -0.2905 -0.3225
  435TIP3    H122796   5.688   3.378   1.012  0.7906 -0.1803 -0.3227
  435TIP3    H222797   5.659   3.278   0.902  0.4282 -0.4651  0.0295
  436TIP3   OH222798   4.961   5.351  16.143 -0.1360 -0.5423 -0.0944
  436TIP3    H122799   5.029   5.357  16.210 -1.3725  2.4838  1.0717
  436TIP3    H222800   5.007   5.371  16.061  0.8476 -1.2839  0.2489
  437TIP3   OH222801   2.378   0.416  15.866  0.1565 -0.7722 -0.1729
  437TIP3    H122802   2.375   0.427  15.771  0.2055 -0.7524 -0.1718
  437TIP3    H222803   2.350   0.325  15.880  0.0614 -0.7474 -0.2011
  438TIP3   OH222804   1.547   4.326   0.140 -0.1715 -0.3543 -0.5668
  438TIP3    H122805   1.485   4.261   0.105 -0.3798 -0.1665 -0.5500
  438TIP3    H222806   1.594   4.358   0.063 -0.3751 -0.2072 -0.6315
  439TIP3   OH222807   6.067   2.525  16.092  0.1496  0.4663  0.4911
  439TIP3    H122808   5.995   2.476  16.133  0.2191  1.5020  1.9348
  439TIP3    H222809   6.028   2.568  16.016  0.1270 -1.9216 -0.9563
  440TIP3   OH222810   1.603   6.252  15.637 -0.0532 -0.1497 -0.5476
  440TIP3    H122811   1.581   6.257  15.730  0.0957 -0.2543 -0.5068
  440TIP3    H222812   1.647   6.335  15.618  1.6126 -0.8777 -0.0781
  441TIP3   OH222813   1.905   1.320  17.031  0.1331  0.4638 -0.0057
  441TIP3    H122814   1.923   1.377  17.106 -0.7726  2.0294 -0.9160
  441TIP3    H222815   1.831   1.361  16.987 -2.2133 -2.7522  0.6141
  442TIP3   OH222816   0.589   4.507   1.635  0.1377 -0.3182 -0.2466
  442TIP3    H122817   0.517   4.450   1.605  0.2944 -0.3857 -0.4991
  442TIP3    H222818   0.577   4.513   1.729  0.0989 -0.7480 -0.2207
  443TIP3   OH222819   3.192   1.585   2.492  0.0512 -0.6764  0.1067
  443TIP3    H122820   3.157   1.614   2.408 -0.6110  1.1869  0.9700
  443TIP3    H222821   3.130   1.619   2.557  1.6779 -0.1808  1.4887
  444TIP3   OH222822   0.306   0.468  14.880  0.7915 -1.2196 -0.3003
  444TIP3    H122823   0.393   0.430  14.896  1.6341 -0.1431 -1.9656
  444TIP3    H222824   0.322   0.562  14.875 -0.7593 -0.8700  0.8528
  445TIP3   OH222825   5.164   4.875  13.869  0.0489  0.0222  0.2710
  445TIP3    H122826   5.236   4.936  13.853  0.2357  0.1585  1.5255
  445TIP3    H222827   5.149   4.833  13.784  2.4326 -0.8780  0.2246
  446TIP3   OH222828   2.539   6.772   1.667  0.3510 -0.0568 -0.3641
  446TIP3    H122829   2.549   6.711   1.593 -0.2138  0.3809 -0.8126
  446TIP3    H222830   2.626   6.810   1.678  0.3844  0.0548 -0.9687
  447TIP3   OH222831   1.893   2.065   5.948 -0.3974  0.3641  0.0846
  447TIP3    H122832   1.938   1.982   5.956  1.8889  1.3235 -1.6983
  447TIP3    H222833   1.853   2.079   6.034  1.6487 -1.1905  1.3861
  448TIP3   OH222834   1.748   6.510  15.020  0.3795  0.7590 -0.2840
  448TIP3    H122835   1.776   6.595  14.986  1.6929  0.2928 -0.4051
  448TIP3    H222836   1.818   6.483  15.079  0.7021 -0.9017 -1.3699
  449TIP3   OH222837   5.537   5.336   5.375  0.2541 -0.2444 -0.0631
  449TIP3    H122838   5.556   5.343   5.468 -1.2685 -0.6489  0.3095
  449TIP3    H222839   5.619   5.359   5.331  0.7088  0.9415  1.3490
  450TIP3   OH222840   2.473   4.945   2.159  0.4063  0.7611 -0.4102
  450TIP3    H122841   2.566   4.964   2.169  0.4185  0.3606  0.2961
  450TIP3    H222842   2.470   4.851   2.138  0.2462  1.1050 -2.0999
  451TIP3   OH222843   0.158   5.008   6.111  0.4089  0.2209 -0.2483
  451TIP3    H122844   0.240   5.038   6.071  0.9789  2.1487  2.1218
  451TIP3    H222845   0.186   4.950   6.182 -0.1103  1.8775  1.3904
  452TIP3   OH222846   2.992   6.779   0.517  0.0117 -0.1912  0.0154
  452TIP3    H122847   2.976   6.870   0.541 -0.5044 -0.0624 -0.7524
  452TIP3    H222848   3.005   6.781   0.422  0.1453 -0.8929  0.0091
  453TIP3   OH222849   3.028   2.521   0.583 -0.4241 -0.3329 -0.2915
  453TIP3    H122850   3.018   2.438   0.536  0.6277 -0.3960 -0.4248
  453TIP3    H222851   3.122   2.528   0.601 -0.6743  0.1687  0.9440
  454TIP3   OH222852   4.398   5.659   2.277  0.0741 -0.3335 -0.1728
  454TIP3    H122853   4.438   5.689   2.359 -1.5504  0.0679  0.5214
  454TIP3    H222854   4.347   5.734   2.247 -1.5692 -1.3653 -0.0639
  455TIP3   OH222855   3.313   6.013   1.445 -0.0925  0.2426 -0.1211
  455TIP3    H122856   3.405   6.022   1.471 -0.0280  0.5062 -0.4228
  455TIP3    H222857   3.304   6.074   1.371  0.0913 -1.4614 -1.6129
  456TIP3   OH222858   1.842   5.694   6.158 -0.1683  0.1739 -0.1593
  456TIP3    H122859   1.848   5.606   6.195 -2.8019 -1.2772 -2.7778
  456TIP3    H222860   1.891   5.688   6.076  1.2038  1.7868  0.4782
  457TIP3   OH222861   3.182   5.232  12.669 -0.2085 -0.3590 -0.5228
  457TIP3    H122862   3.248   5.299  12.687 -2.5947  1.7401  1.3039
  457TIP3    H222863   3.197   5.207  12.578  2.6738  0.3863 -0.3584
  458TIP3   OH222864   1.702   5.766  11.216 -0.2100  0.1698 -0.7140
  458TIP3    H122865   1.643   5.827  11.260 -0.1033 -0.1600 -0.1141
  458TIP3    H222866   1.649   5.727  11.147 -1.5099 -2.0573  1.4153
  459TIP3   OH222867   3.169   3.418   5.563  0.1320  0.3986  0.5097
  459TIP3    H122868   3.225   3.351   5.603  3.0005  2.3326  0.0736
  459TIP3    H222869   3.109   3.369   5.507  4.0638 -1.8773 -2.2681
  460TIP3   OH222870   2.149   4.174  16.393  0.1789  0.2453  0.5813
  460TIP3    H122871   2.190   4.143  16.312  0.8885  0.9614  0.6624
  460TIP3    H222872   2.198   4.130  16.463  0.0607  0.2232  0.6518
  461TIP3   OH222873   5.625   5.867   1.384  0.2023 -0.1432 -0.1311
  461TIP3    H122874   5.683   5.793   1.406 -0.3614 -1.4909 -2.7432
  461TIP3    H222875   5.681   5.944   1.392  1.2492 -0.9894  1.1555
  462TIP3   OH222876   2.404   4.120   4.680 -0.0018 -0.8541 -0.6830
  462TIP3    H122877   2.463   4.078   4.618  0.8375  2.0157 -2.0058
  462TIP3    H222878   2.342   4.168   4.625 -0.5634  0.0714  0.6991
  463TIP3   OH222879   1.972   6.684   0.043 -0.4693  0.1524 -0.9118
  463TIP3    H122880   2.064   6.684   0.019 -0.6530  0.0063 -1.6224
  463TIP3    H222881   1.925   6.663  -0.038 -1.1162  0.0535 -0.5222
  464TIP3   OH222882   2.632   4.851  15.564 -0.2195 -0.6031 -0.5910
  464TIP3    H122883   2.623   4.817  15.653 -1.3143  0.3408 -0.3174
  464TIP3    H222884   2.652   4.774  15.511 -2.1752 -1.6276  0.0709
  465TIP3   OH222885   5.257   3.893  12.934 -0.4896 -0.3055  0.4688
  465TIP3    H122886   5.250   3.882  12.839 -1.8992  0.9103  0.3878
  465TIP3    H222887   5.231   3.809  12.970 -1.7902 -0.2100 -0.2028
  466TIP3   OH222888   0.109   4.005  12.070 -0.2466  0.3656 -0.6282
  466TIP3    H122889   0.160   4.083  12.045 -0.3489  0.6684  0.0944
  466TIP3    H222890   0.062   3.981  11.990  0.4577  0.5252 -1.1016
  467TIP3   OH222891   3.499   0.179  14.091 -0.0922 -0.1023  0.1094
  467TIP3    H122892   3.509   0.240  14.164 -0.1171  1.2611 -0.9857
  467TIP3    H222893   3.534   0.226  14.015 -0.5493 -1.2697 -0.8622
  468TIP3   OH222894   3.008   5.375  16.689 -0.2489 -0.6310  0.2159
  468TIP3    H122895   3.015   5.306  16.755  2.7672  0.7956  1.6013
  468TIP3    H222896   3.073   5.351  16.623 -0.7461 -0.2276 -0.4282
  469TIP3   OH222897   3.495   3.930  14.265 -0.4222 -0.5217 -0.3685
  469TIP3    H122898   3.461   4.015  14.238  0.2816  0.1347  0.7515
  469TIP3    H222899   3.495   3.933  14.360  2.7731 -0.4394 -0.2659
  470TIP3   OH222900   2.596   2.046  12.205 -0.4853 -0.2594  0.3865
  470TIP3    H122901   2.669   1.993  12.174  0.2421 -0.1358  1.8003
  470TIP3    H222902   2.636   2.129  12.232 -0.9398 -0.5714  2.1754
  471TIP3   OH222903   1.893   0.319  15.303  0.7267  0.1573 -0.2789
  471TIP3    H122904   1.979   0.277  15.295  0.0631 -0.9485 -2.4886
  471TIP3    H222905   1.832   0.255  15.268 -1.3138  0.2083  2.8166
  472TIP3   OH222906   1.088   0.471  13.641  0.3346  0.1689 -0.0508
  472TIP3    H122907   1.130   0.477  13.555  0.5074 -1.1531 -0.0843
  472TIP3    H222908   1.044   0.386  13.640 -1.0201  0.8319  0.5825
  473TIP3   OH222909   0.444   6.377  16.837 -0.4453  0.0927 -0.1199
  473TIP3    H122910   0.434   6.440  16.909 -1.1755 -0.0830 -0.0555
  473TIP3    H222911   0.507   6.313  16.870  0.7492  1.0791 -0.4041
  474TIP3   OH222912   3.200   3.212  15.653  0.3425 -0.2016  0.3406
  474TIP3    H122913   3.138   3.246  15.718  0.5150 -0.7879  0.8245
  474TIP3    H222914   3.258   3.154  15.703  1.1676  0.1966 -0.1439
  475TIP3   OH222915   5.604   5.839  16.215 -0.2533 -0.1227  0.1872
  475TIP3    H122916   5.607   5.929  16.183 -1.2553  0.3169  1.2567
  475TIP3    H222917   5.688   5.802  16.191 -0.2381  0.7581 -1.2435
  476TIP3   OH222918   6.238   4.485  12.364 -0.4022  0.1465  0.2681
  476TIP3    H122919   6.250   4.403  12.413 -1.0419 -0.1720 -0.0909
  476TIP3    H222920   6.144   4.500  12.366 -0.5506 -0.2806 -1.4828
  477TIP3   OH222921   0.162   5.038  14.431  0.7320 -0.8721 -0.3754
  477TIP3    H122922   0.193   5.128  14.435 -2.3152  0.3157 -1.1051
  477TIP3    H222923   0.123   5.029  14.344 -0.4496 -2.3366  0.2501
  478TIP3   OH222924   3.352   3.068   5.976  0.7262 -0.6692  0.3566
  478TIP3    H122925   3.347   3.065   6.071  2.3508 -0.1273  0.4830
  478TIP3    H222926   3.297   3.142   5.951 -0.5161 -1.4099  0.7587
  479TIP3   OH222927   5.157   0.281   4.632  0.1898  0.1877  0.7637
  479TIP3    H122928   5.141   0.187   4.622  0.9725  0.0005  1.1978
  479TIP3    H222929   5.085   0.312   4.686 -0.1040 -0.1497  0.5732
  480TIP3   OH222930   1.513   2.665  12.439  0.0165  0.0863 -0.0890
  480TIP3    H122931   1.478   2.662  12.528 -1.5608 -0.5437 -0.6860
  480TIP3    H222932   1.435   2.671  12.383  1.0066  1.3797 -1.4046
  481TIP3   OH222933   1.690   0.050  16.572  0.1532 -0.7094  0.3374
  481TIP3    H122934   1.777   0.089  16.564 -0.7766  1.5694  0.4958
  481TIP3    H222935   1.658   0.044  16.482  0.1204 -0.6599  0.3456
  482TIP3   OH222936   0.007   6.202  11.374 -0.2778  0.5563  0.0100
  482TIP3    H122937   0.049   6.237  11.295  0.0225  1.3197  0.4943
  482TIP3    H222938   0.043   6.114  11.383  2.3379  1.6185  1.1432
  483TIP3   OH222939   6.579   2.366  12.624 -0.6316  0.6975  0.3727
  483TIP3    H122940   6.671   2.372  12.597 -0.2444  0.4361  1.5361
  483TIP3    H222941   6.546   2.287  12.582  0.2994 -0.3795  1.5895
  484TIP3   OH222942   4.724   0.583   5.361  0.5303  0.3642 -0.0267
  484TIP3    H122943   4.776   0.657   5.394  1.1887  0.1045 -0.4603
  484TIP3    H222944   4.772   0.553   5.284  0.2835 -0.5460  0.1690
  485TIP3   OH222945   2.347   5.354   1.692 -0.0671 -0.4852 -0.1037
  485TIP3    H122946   2.381   5.284   1.636 -0.3308 -1.7591  1.2823
  485TIP3    H222947   2.425   5.404   1.718  0.1704 -0.5108 -0.7363
  486TIP3   OH222948   6.559   4.283  16.061 -0.1408  0.4620  0.2342
  486TIP3    H122949   6.601   4.309  16.143  0.9214 -1.4295  0.3581
  486TIP3    H222950   6.565   4.361  16.006  3.6032  0.3742  0.2620
  487TIP3   OH222951   1.206   3.610   0.336  0.5051  0.2299 -0.1524
  487TIP3    H122952   1.121   3.594   0.296  0.9120  0.6112 -1.2047
  487TIP3    H222953   1.215   3.705   0.338  0.8199  0.1987  0.1440
  488TIP3   OH222954   2.240   4.074  15.322 -0.5320  0.2644  0.3678
  488TIP3    H122955   2.297   4.015  15.272 -1.2318 -0.8150  0.7962
  488TIP3    H222956   2.300   4.128  15.372  0.1777  1.0067 -1.2106
  489TIP3   OH222957   6.667   2.079   3.214 -0.2113 -0.2108  0.1874
  489TIP3    H122958   6.673   2.114   3.126 -1.6858  0.7189  0.4101
  489TIP3    H222959   6.593   2.126   3.254  0.8560 -0.0896  2.1536
  490TIP3   OH222960   1.718   3.044  12.705 -0.3588 -0.8365  0.1362
  490TIP3    H122961   1.629   3.070  12.681 -0.8487 -1.4606  1.2054
  490TIP3    H222962   1.740   3.099  12.780  1.6008  1.9148 -2.2320
  491TIP3   OH222963   2.995   0.286  12.688 -0.1206 -0.1302 -0.4472
  491TIP3    H122964   2.932   0.213  12.686  0.7340 -0.9196  0.6616
  491TIP3    H222965   3.069   0.256  12.636  0.8711 -0.6841  1.2251
  492TIP3   OH222966   4.336   1.141  14.343 -0.0748  0.0950  0.1668
  492TIP3    H122967   4.365   1.050  14.357  2.3220  0.5288 -1.3775
  492TIP3    H222968   4.336   1.152  14.248 -0.0815  1.7821  0.3316
  493TIP3   OH222969   4.699   1.066  16.340  0.1254  0.3505 -0.1468
  493TIP3    H122970   4.616   1.113  16.345  0.0406  0.1313  0.7115
  493TIP3    H222971   4.695   1.018  16.257 -1.1354 -0.6146  0.4240
  494TIP3   OH222972   6.678   2.496   6.479 -0.6429  0.1622  0.8266
  494TIP3    H122973   6.617   2.568   6.496 -0.6572 -0.0133  1.5315
  494TIP3    H222974   6.764   2.532   6.502 -0.6558 -0.0579  1.2301
  495TIP3   OH222975   3.951   5.706   2.044 -1.0664 -0.6147  0.5403
  495TIP3    H122976   3.962   5.724   2.137 -2.3422  1.0675  0.4125
  495TIP3    H222977   3.988   5.782   2.000  0.3283 -1.7867 -0.4047
  496TIP3   OH222978   2.831   3.543  10.635  0.1631  0.1354  0.1463
  496TIP3    H122979   2.816   3.616  10.695 -0.2997 -0.5040  0.8092
  496TIP3    H222980   2.910   3.500  10.668 -0.4249 -0.5734  0.6691
  497TIP3   OH222981   5.035   5.117   4.815  0.1175  0.2913  0.5995
  497TIP3    H122982   4.959   5.113   4.873  0.8693 -0.4041  1.5677
  497TIP3    H222983   5.104   5.155   4.869  0.1110  2.3240 -0.7007
  498TIP3   OH222984   6.209   4.190  11.189 -0.4819  0.4224 -0.8343
  498TIP3    H122985   6.224   4.245  11.112 -2.6450  0.8045 -1.0330
  498TIP3    H222986   6.261   4.232  11.258  0.5042  0.7853 -1.7703
  499TIP3   OH222987   3.808   2.040   1.173  0.2906 -0.1292 -0.6448
  499TIP3    H122988   3.728   2.067   1.128  0.8635  2.1170 -0.4277
  499TIP3    H222989   3.838   2.119   1.218  3.4345 -0.4983 -1.8807
  500TIP3   OH222990   2.814   6.062   3.966  0.2368  0.5437 -0.8001
  500TIP3    H122991   2.883   5.996   3.957  1.5945  1.5494  1.4447
  500TIP3    H222992   2.829   6.101   4.052 -3.4119  0.5439 -0.0063
  501TIP3   OH222993   4.555   5.358  10.873 -0.3580 -0.1743 -0.4618
  501TIP3    H122994   4.535   5.353  10.967 -2.5376 -0.0342 -0.8561
  501TIP3    H222995   4.565   5.451  10.856 -1.4146 -0.0763 -0.6070
  502TIP3   OH222996   5.757   4.859   6.314  0.2389  0.0092  0.1887
  502TIP3    H122997   5.815   4.794   6.353 -1.1636 -0.2375  1.9852
  502TIP3    H222998   5.729   4.914   6.387  0.2101  1.7121 -1.0570
  503TIP3   OH222999   6.102   0.121   5.664 -0.1495 -0.6753 -0.3431
  503TIP3    H123000   6.074   0.127   5.755 -1.6091 -0.4138 -0.7922
  503TIP3    H223001   6.197   0.106   5.670 -0.3487 -1.5808  1.2189
  504TIP3   OH223002   3.707   6.270  12.621  0.1734  0.1015  0.1730
  504TIP3    H123003   3.710   6.347  12.677  0.9953  1.2613 -1.3970
  504TIP3    H223004   3.798   6.254  12.596  0.0714 -1.6215  0.7432
  505TIP3   OH223005   1.180   3.261  11.492  0.4991  0.6647 -0.5876
  505TIP3    H123006   1.122   3.232  11.562 -0.2419  0.9584 -1.0674
  505TIP3    H223007   1.172   3.193  11.425  1.5238  0.1738 -0.2262
  506TIP3   OH223008   5.931   0.398   6.078  0.5883 -0.0090 -0.3253
  506TIP3    H123009   6.023   0.407   6.102  0.4510 -1.0462  0.7012
  506TIP3    H223010   5.891   0.354   6.153 -1.1028  1.9108 -0.0340
  507TIP3   OH223011   2.234   4.620   0.655 -0.0869 -0.4161  0.1571
  507TIP3    H123012   2.209   4.652   0.568 -1.8425  0.2590  0.8874
  507TIP3    H223013   2.278   4.695   0.696 -0.4309 -0.3142  0.3357
  508TIP3   OH223014   1.584   4.143   1.359 -0.8192  0.5946  0.0527
  508TIP3    H123015   1.619   4.064   1.400 -0.6205 -0.0627 -1.3176
  508TIP3    H223016   1.652   4.172   1.299 -0.6926  2.1198  0.8926
  509TIP3   OH223017   1.356   2.849   0.675  0.1680 -0.9338  0.3579
  509TIP3    H123018   1.373   2.807   0.759  2.3614 -1.6116 -0.3359
  509TIP3    H223019   1.431   2.907   0.661 -1.9616  2.1250  0.5155
  510TIP3   OH223020   0.743   5.439  16.159  0.1782  0.6074 -0.5909
  510TIP3    H123021   0.661   5.450  16.110  0.7742 -0.0450 -1.7616
  510TIP3    H223022   0.737   5.504  16.229 -2.8744 -1.6468  1.4835
  511TIP3   OH223023   1.885   3.948  15.729 -0.3518  0.2139 -0.0266
  511TIP3    H123024   1.885   3.862  15.688  2.5493  0.9122 -1.8132
  511TIP3    H223025   1.883   3.929  15.823 -0.6696 -1.7388 -0.3736
  512TIP3   OH223026   5.279   6.293  10.373 -0.4435 -0.0453 -0.5718
  512TIP3    H123027   5.226   6.222  10.409 -1.6518  0.1090 -1.9287
  512TIP3    H223028   5.354   6.250  10.333 -0.5827 -0.4681 -0.3838
  513TIP3   OH223029   1.298   4.454   3.625  0.5526 -0.5440  0.0151
  513TIP3    H123030   1.306   4.367   3.664 -3.5634  0.0590  2.8117
  513TIP3    H223031   1.286   4.513   3.699  1.9419  2.3076 -1.8588
  514TIP3   OH223032   1.831   5.354  16.422  0.1278  0.7331 -0.2171
  514TIP3    H123033   1.807   5.435  16.377 -1.5958 -0.1941 -1.0515
  514TIP3    H223034   1.750   5.303  16.424  1.2791 -1.1585 -0.1198
  515TIP3   OH223035   1.145   0.960  13.636  0.3714 -0.1931  0.1661
  515TIP3    H123036   1.128   0.894  13.569 -0.0661  0.6542 -0.5782
  515TIP3    H223037   1.201   0.916  13.700 -0.5681 -1.5263  0.1011
  516TIP3   OH223038   6.668   5.851   5.140  0.7343  0.0289  0.0303
  516TIP3    H123039   6.620   5.776   5.105 -0.5606 -0.1725  2.0992
  516TIP3    H223040   6.758   5.820   5.150  1.1440  0.0325 -2.7518
  517TIP3   OH223041   3.974   2.909   0.517  0.4483 -0.3679  0.5050
  517TIP3    H123042   4.062   2.877   0.496  0.0135 -0.2941 -1.6227
  517TIP3    H223043   3.989   2.999   0.547  1.0355  0.1719 -1.2513
  518TIP3   OH223044   6.793   1.037   4.232  0.2253 -0.1623  0.1450
  518TIP3    H123045   6.889   1.039   4.234  0.2191  0.8469 -0.2233
  518TIP3    H223046   6.766   1.125   4.258 -0.6796 -1.1314  2.8451
  519TIP3   OH223047   3.310   2.059   3.779 -0.2550 -0.1585  0.2939
  519TIP3    H123048   3.336   2.132   3.723 -1.5863 -0.6957 -1.0788
  519TIP3    H223049   3.234   2.091   3.827  0.4349  0.0418  1.3044
  520TIP3   OH223050   5.773   3.954  15.785  0.3816  0.3119  0.1587
  520TIP3    H123051   5.680   3.947  15.804  0.1221 -0.6867 -1.3115
  520TIP3    H223052   5.814   3.968  15.870 -1.0942  0.7692  0.8346
  521TIP3   OH223053   6.297   2.693  16.080  0.0578  0.3517 -0.3955
  521TIP3    H123054   6.212   2.649  16.086 -0.3388  1.2127  0.4916
  521TIP3    H223055   6.306   2.715  15.987 -0.5886  0.0754 -0.5274
  522TIP3   OH223056   1.248   5.878   4.490  0.7229 -0.8795  0.4036
  522TIP3    H123057   1.213   5.967   4.481  1.1926 -0.8135 -1.0969
  522TIP3    H223058   1.339   5.890   4.518  1.4191 -0.7465 -1.7172
  523TIP3   OH223059   1.975   5.692  12.128  0.0070  0.7124  0.1652
  523TIP3    H123060   1.939   5.650  12.206  2.4091  1.8058  1.9958
  523TIP3    H223061   2.053   5.737  12.159 -0.0014  2.8369 -2.5420
  524TIP3   OH223062   5.127   5.126  12.287  0.4171  0.6023 -0.4443
  524TIP3    H123063   5.073   5.052  12.317  2.6088 -0.1631  1.9811
  524TIP3    H223064   5.069   5.176  12.231 -1.5045 -2.3952 -1.3773
  525TIP3   OH223065   3.521   6.761  14.833  0.1660 -0.0659  0.5777
  525TIP3    H123066   3.453   6.699  14.858 -0.3442  0.3382  0.2018
  525TIP3    H223067   3.555   6.795  14.916 -1.2633  1.0042  0.7472
  526TIP3   OH223068   4.437   4.833  13.977  0.0456  0.9782  0.0906
  526TIP3    H123069   4.466   4.790  14.058 -0.2060  0.8246  0.0999
  526TIP3    H223070   4.346   4.856  13.993 -0.4256 -0.2664 -0.6312
  527TIP3   OH223071   5.415   4.013  12.293 -0.2527  0.3417 -0.0314
  527TIP3    H123072   5.352   4.080  12.266 -0.8874 -0.6852 -1.2291
  527TIP3    H223073   5.391   3.936  12.242  1.2656 -0.4253  0.3464
  528TIP3   OH223074   4.332   2.435  14.243 -0.6815 -0.1624  0.5339
  528TIP3    H123075   4.385   2.510  14.270 -0.6057  0.2514 -0.7311
  528TIP3    H223076   4.287   2.464  14.164 -0.7773 -1.4044  0.1150
  529TIP3   OH223077   3.146   0.602   4.415  0.5561 -0.8841 -0.4731
  529TIP3    H123078   3.070   0.546   4.397 -0.4520  0.2869 -0.0031
  529TIP3    H223079   3.211   0.543   4.453 -0.0270 -1.9586 -1.0958
  530TIP3   OH223080   2.485   0.659   0.587  0.7469 -0.1198  0.4280
  530TIP3    H123081   2.522   0.737   0.544  1.4243 -1.1964 -1.0435
  530TIP3    H223082   2.399   0.687   0.618  0.9096  1.1755 -0.2280
  531TIP3   OH223083   0.866   3.816  13.746  0.1750  0.0172  0.1133
  531TIP3    H123084   0.892   3.876  13.816  0.4486  1.0005 -0.8011
  531TIP3    H223085   0.771   3.825  13.742 -0.0004 -1.0642  1.2325
  532TIP3   OH223086   3.942   1.824  15.702 -0.2369  0.2840  0.1506
  532TIP3    H123087   3.977   1.903  15.743  1.8697 -0.2048 -0.6072
  532TIP3    H223088   3.985   1.819  15.617  2.1282 -3.2061  1.3047
  533TIP3   OH223089   3.414   5.648   4.346 -0.3809  0.2398 -0.0682
  533TIP3    H123090   3.342   5.634   4.284  0.7892 -0.6561 -1.2768
  533TIP3    H223091   3.442   5.738   4.331  0.9030 -0.4339 -1.9982
  534TIP3   OH223092   3.572   6.395   3.579 -0.3470 -0.8985 -0.1617
  534TIP3    H123093   3.531   6.322   3.532 -1.4856 -0.4125  0.0349
  534TIP3    H223094   3.513   6.469   3.563  0.7198 -0.0437 -0.2491
  535TIP3   OH223095   5.135   6.550   1.789  0.4135 -0.0882  0.0707
  535TIP3    H123096   5.185   6.469   1.797 -0.0167 -0.3923 -0.2690
  535TIP3    H223097   5.048   6.528   1.822  0.3827  0.3245  0.2706
  536TIP3   OH223098   2.994   1.900  13.931  0.3291 -0.3934 -0.4757
  536TIP3    H123099   3.057   1.920  14.000 -0.8836  1.2711  0.2337
  536TIP3    H223100   2.953   1.818  13.958 -0.5356  0.5210  1.1571
  537TIP3   OH223101   2.238   2.769  15.342  0.2616  0.0589 -0.5902
  537TIP3    H123102   2.182   2.711  15.291 -0.0885  0.4165 -0.6236
  537TIP3    H223103   2.208   2.759  15.432  1.2969 -1.0453 -0.3475
  538TIP3   OH223104   2.631   4.617  14.541 -0.4262 -0.3525  0.5877
  538TIP3    H123105   2.675   4.584  14.619  0.6351  0.2970  0.2789
  538TIP3    H223106   2.538   4.598  14.556 -0.1497 -0.9226  1.6554
  539TIP3   OH223107   1.380   4.284  14.859  0.0590  0.3577  0.0249
  539TIP3    H123108   1.376   4.377  14.834  0.5288  1.0859  2.3987
  539TIP3    H223109   1.295   4.249  14.833 -1.6815  2.4352  2.4265
  540TIP3   OH223110   1.417   3.136   0.186  0.1667  0.0053  0.1403
  540TIP3    H123111   1.405   3.216   0.236  1.6427  0.5742 -0.3499
  540TIP3    H223112   1.508   3.139   0.158  0.1572 -1.6746 -0.2010
  541TIP3   OH223113   5.223   2.498   3.304 -0.5048 -0.0697 -0.0223
  541TIP3    H123114   5.251   2.545   3.383 -0.0782 -1.2716  0.5676
  541TIP3    H223115   5.198   2.412   3.335 -2.3208  0.0877 -0.9370
  542TIP3   OH223116   0.369   1.870   0.272  0.3154 -0.5783  0.3630
  542TIP3    H123117   0.352   1.790   0.322 -0.5819  1.0231  2.8341
  542TIP3    H223118   0.285   1.891   0.230  0.3110 -0.4864  0.4174
  543TIP3   OH223119   0.811   1.030   1.042  0.3623  0.2504 -0.3675
  543TIP3    H123120   0.822   0.993   1.130 -1.0697 -2.2949 -1.1522
  543TIP3    H223121   0.868   0.977   0.987 -1.1214 -0.3047 -1.4291
  544TIP3   OH223122   1.432   4.188   2.114  0.1989  0.9340 -0.0499
  544TIP3    H123123   1.481   4.162   2.036  1.1390  1.2349  0.4165
  544TIP3    H223124   1.424   4.108   2.165 -1.4785  0.4621 -0.9767
  545TIP3   OH223125   1.910   4.867  11.292  0.4269  0.1510  0.2106
  545TIP3    H123126   1.924   4.948  11.244  1.3645 -0.3946 -0.4616
  545TIP3    H223127   1.868   4.808  11.229 -0.9586  0.3338  0.9152
  546TIP3   OH223128   3.773   5.666   4.615  0.1507  0.3137 -0.0117
  546TIP3    H123129   3.691   5.643   4.572  0.5112  0.4105 -0.7686
  546TIP3    H223130   3.747   5.720   4.689 -0.5437 -0.6363  0.4489
  547TIP3   OH223131   1.796   6.309   1.799 -0.2098 -0.1602  0.1099
  547TIP3    H123132   1.873   6.332   1.851 -1.6328 -1.0887  2.8308
  547TIP3    H223133   1.817   6.223   1.762  0.4785  0.1169 -0.1713
  548TIP3   OH223134   1.298   3.268  13.699  0.0628  0.6747  0.3196
  548TIP3    H123135   1.375   3.212  13.703  0.5379  1.3252  0.5512
  548TIP3    H223136   1.260   3.251  13.612  0.8958  0.8945 -0.0926
  549TIP3   OH223137   2.620   0.256  15.840  0.8443 -0.1192  0.7503
  549TIP3    H123138   2.647   0.338  15.798  0.3087  0.6004  1.7605
  549TIP3    H223139   2.622   0.276  15.934  2.3265 -1.7754  1.1302
  550TIP3   OH223140   2.093   0.299  16.786  0.1459  0.1822 -0.0889
  550TIP3    H123141   2.040   0.265  16.858  0.0140  0.1111 -0.2178
  550TIP3    H223142   2.147   0.225  16.757 -0.0051  0.1319 -0.2468
  551TIP3   OH223143   5.315   0.732  13.098  0.4979 -1.1909 -0.1182
  551TIP3    H123144   5.330   0.770  13.012  2.1177 -1.4355  0.0158
  551TIP3    H223145   5.247   0.786  13.137  1.3313  0.3403 -0.6969
  552TIP3   OH223146   5.616   2.073  17.037 -1.0009 -0.1759  0.4559
  552TIP3    H123147   5.674   2.002  17.066 -0.5097  0.1997  0.4163
  552TIP3    H223148   5.632   2.144  17.099 -1.6142 -0.1588  0.5942
  553TIP3   OH223149   1.837   1.583   0.926 -0.1695  0.0142 -0.4792
  553TIP3    H123150   1.836   1.496   0.887 -0.3408  0.3136 -1.1514
  553TIP3    H223151   1.891   1.635   0.866  1.2719  0.0010  0.7345
  554TIP3   OH223152   5.344   4.420   0.718 -0.1649 -0.0209 -0.1911
  554TIP3    H123153   5.288   4.391   0.645 -1.0624 -0.5767  0.6981
  554TIP3    H223154   5.283   4.439   0.789  0.6909  0.6748  0.3791
  555TIP3   OH223155   3.563   0.436   6.188 -0.0137 -0.2899  0.1227
  555TIP3    H123156   3.539   0.348   6.217  0.3583 -0.6263 -0.5464
  555TIP3    H223157   3.487   0.466   6.139  0.1028 -0.5007 -0.1922
  556TIP3   OH223158   3.875   4.183  17.081  0.5655 -0.2287  0.0523
  556TIP3    H123159   3.802   4.129  17.050  1.4291 -1.1942 -0.3824
  556TIP3    H223160   3.897   4.239  17.006  2.2545 -2.1335 -0.9817
  557TIP3   OH223161   2.344   3.339   1.824 -0.4044 -0.2530  0.2653
  557TIP3    H123162   2.344   3.285   1.903  0.0174 -0.2194  0.2890
  557TIP3    H223163   2.309   3.281   1.756  0.8221 -0.8446  0.1054
  558TIP3   OH223164   0.335   2.196  15.037  0.2175  0.2608  0.5078
  558TIP3    H123165   0.290   2.116  15.065  2.3421 -0.5590  1.8048
  558TIP3    H223166   0.368   2.176  14.950 -0.0438  0.0871  0.4470
  559TIP3   OH223167   4.609   0.898  16.133  0.4721  0.5407  0.0833
  559TIP3    H123168   4.516   0.875  16.141 -0.1589  2.4409 -0.9790
  559TIP3    H223169   4.636   0.862  16.049 -0.0801  2.1489 -0.8367
  560TIP3   OH223170   1.965   4.961  12.868  0.4771 -0.1278  0.1765
  560TIP3    H123171   1.879   5.003  12.874  1.4754  1.9027  1.2414
  560TIP3    H223172   1.990   4.970  12.776  2.1163  4.9751  0.8553
  561TIP3   OH223173   4.443   4.069   4.453 -0.0716  0.3917  0.0059
  561TIP3    H123174   4.464   4.008   4.383 -0.3155  0.8541 -0.4864
  561TIP3    H223175   4.461   4.022   4.534  0.6781  0.0184 -0.3774
  562TIP3   OH223176   5.090   2.225  14.608 -0.4039  0.3463 -0.0748
  562TIP3    H123177   5.069   2.208  14.700 -0.8458 -0.9408 -0.3795
  562TIP3    H223178   5.032   2.165  14.560  0.4387  0.3699 -1.1426
  563TIP3   OH223179   0.979   3.026  13.677 -0.0835  0.0743 -0.3184
  563TIP3    H123180   0.948   3.001  13.764 -0.0944 -1.7833 -0.8258
  563TIP3    H223181   0.900   3.030  13.623  0.1498 -1.0940 -0.7692
  564TIP3   OH223182   3.205   6.532  12.864 -0.1556 -0.0869  0.2643
  564TIP3    H123183   3.189   6.522  12.958 -0.6484 -0.4185  0.1520
  564TIP3    H223184   3.146   6.468  12.823 -1.2003  1.2167 -0.3632
  565TIP3   OH223185   4.155   1.424   2.497  0.1263  0.2933 -0.7895
  565TIP3    H123186   4.065   1.453   2.487  0.5783  2.0285 -0.1221
  565TIP3    H223187   4.203   1.502   2.522  1.7375 -0.7080 -0.5984
  566TIP3   OH223188   2.008   3.691  13.385  0.0708 -0.0518  0.0006
  566TIP3    H123189   2.027   3.687  13.479 -1.7956  1.3429  0.5151
  566TIP3    H223190   2.025   3.602  13.353 -1.2672 -1.1787  2.1292
  567TIP3   OH223191   0.232   5.516  15.422  0.4672 -0.2807 -0.3024
  567TIP3    H123192   0.322   5.534  15.395  0.9191 -0.3482  1.0524
  567TIP3    H223193   0.235   5.427  15.457  0.0895  0.0190  0.5429
  568TIP3   OH223194   4.440   2.150  11.982 -0.8766  0.2108  0.4862
  568TIP3    H123195   4.357   2.106  11.993 -0.5916 -0.8387 -1.1917
  568TIP3    H223196   4.488   2.134  12.064 -2.0583  0.3138  1.2122
  569TIP3   OH223197   6.693   5.600  14.295 -0.1197  0.6009 -0.2879
  569TIP3    H123198   6.704   5.554  14.378  0.7934 -1.7059 -1.5861
  569TIP3    H223199   6.608   5.645  14.303 -1.2052 -1.5290  1.0310
  570TIP3   OH223200   2.970   6.235  11.520  0.3376  0.3873  0.0870
  570TIP3    H123201   3.045   6.208  11.467  0.3284 -0.7939  0.6480
  570TIP3    H223202   2.958   6.164  11.583 -0.1442  1.3800  1.1673
  571TIP3   OH223203   0.817   6.371   2.307  0.6077  0.3823  0.1694
  571TIP3    H123204   0.861   6.456   2.321  3.5679 -0.5798 -2.2294
  571TIP3    H223205   0.760   6.385   2.232  0.4416  0.4588  0.3097
  572TIP3   OH223206   4.650   3.389  14.752  0.3938  0.0170  0.9512
  572TIP3    H123207   4.558   3.362  14.757  0.1163  0.9769  1.3182
  572TIP3    H223208   4.698   3.307  14.744 -0.5887 -0.4467 -0.7845
  573TIP3   OH223209   6.320   3.489  16.247 -0.5739 -0.5144 -0.1487
  573TIP3    H123210   6.402   3.538  16.240 -0.2144 -1.1566 -0.6350
  573TIP3    H223211   6.344   3.400  16.220 -0.9110 -1.2765  1.9456
  574TIP3   OH223212   3.808   4.121   0.508 -0.4098  0.2452  0.5331
  574TIP3    H123213   3.896   4.085   0.493 -1.7384 -2.5715 -1.2765
  574TIP3    H223214   3.799   4.191   0.443  0.2894  0.1661  0.3453
  575TIP3   OH223215   2.879   2.006   0.869  0.2230  0.2069  0.1176
  575TIP3    H123216   2.889   1.935   0.932  0.8755  1.2566  1.2537
  575TIP3    H223217   2.785   2.010   0.851  0.0063 -0.0527  1.1255
  576TIP3   OH223218   1.604   0.546  15.601 -0.2437  0.1284  0.2506
  576TIP3    H123219   1.508   0.551  15.598 -0.3493  1.9385  3.3418
  576TIP3    H223220   1.631   0.568  15.512 -2.6697 -0.9094 -0.8412
  577TIP3   OH223221   0.281   4.192  11.222 -0.5435 -0.6232  0.1380
  577TIP3    H123222   0.345   4.262  11.206  0.1565 -1.3072 -0.1540
  577TIP3    H223223   0.291   4.134  11.147 -0.5040 -1.4736  0.7880
  578TIP3   OH223224   2.787   0.376  13.707  0.3545 -0.1817  0.5428
  578TIP3    H123225   2.708   0.382  13.761  0.8764  0.0329  1.2962
  578TIP3    H223226   2.849   0.436  13.748  0.4027  0.8628 -0.9567
  579TIP3   OH223227   5.043   0.759  14.052  0.3804  0.3106 -0.4031
  579TIP3    H123228   5.116   0.732  14.108 -0.4258 -0.7657  0.1797
  579TIP3    H223229   5.017   0.845  14.086  2.3422  1.4508 -1.6248
  580TIP3   OH223230   3.258   1.365  13.698  0.0204 -0.1604 -0.6053
  580TIP3    H123231   3.220   1.302  13.638 -0.2547 -2.6090  1.9567
  580TIP3    H223232   3.185   1.396  13.751  0.7139 -0.6538  0.6852
  581TIP3   OH223233   3.812   1.218   3.543  0.1756 -0.4481  0.2127
  581TIP3    H123234   3.893   1.194   3.588  0.2048 -0.0138  0.3937
  581TIP3    H223235   3.823   1.311   3.522  1.3451 -1.1782 -3.1205
  582TIP3   OH223236   6.669   2.742  12.637  0.6026 -0.0480  0.8571
  582TIP3    H123237   6.719   2.731  12.718 -0.0536 -2.4335  1.0030
  582TIP3    H223238   6.617   2.821  12.652  0.1733 -0.6632  2.9730
  583TIP3   OH223239   2.313   2.566   3.074  0.1889 -0.1418 -0.2819
  583TIP3    H123240   2.308   2.644   3.019 -1.3251 -0.7582 -1.0574
  583TIP3    H223241   2.260   2.501   3.029  0.9754 -1.4721  0.6295
  584TIP3   OH223242   0.211   4.169  14.132 -0.6501 -0.3109  0.6178
  584TIP3    H123243   0.240   4.253  14.095 -0.5313 -0.7539 -0.3121
  584TIP3    H223244   0.115   4.176  14.131 -0.7014 -0.7344 -0.8415
  585TIP3   OH223245   6.560   4.272   5.261 -0.4983 -0.2277 -0.6976
  585TIP3    H123246   6.483   4.329   5.264 -0.8540 -0.6914 -0.9197
  585TIP3    H223247   6.562   4.231   5.347 -0.3729 -0.0541 -0.6168
  586TIP3   OH223248   0.755   3.821  15.709  0.8465  0.4618 -0.5496
  586TIP3    H123249   0.800   3.738  15.698  1.8187  0.8318  0.4969
  586TIP3    H223250   0.665   3.803  15.682  1.1034 -0.8619 -0.5797
  587TIP3   OH223251   4.241   2.483  15.092 -0.4106  0.3781 -0.3654
  587TIP3    H123252   4.200   2.526  15.167 -0.3556 -1.1965  0.5955
  587TIP3    H223253   4.334   2.477  15.115 -0.7081 -2.0446  0.4663
  588TIP3   OH223254   5.783   6.363  12.874 -0.0998 -0.2512 -0.2681
  588TIP3    H123255   5.690   6.342  12.872 -0.5084  0.8659  2.5355
  588TIP3    H223256   5.827   6.278  12.883 -0.9923 -0.6711  0.2494
  589TIP3   OH223257   0.040   2.175  15.732 -0.7006  0.6744 -0.7827
  589TIP3    H123258  -0.013   2.130  15.797 -0.5768  1.6051 -0.0294
  589TIP3    H223259   0.092   2.105  15.691 -1.0367  0.0413 -0.1390
  590TIP3   OH223260   1.573   6.054   1.731 -0.2909 -0.3545  0.0668
  590TIP3    H123261   1.621   6.079   1.809  0.4042 -1.1528 -0.0833
  590TIP3    H223262   1.640   6.023   1.670 -0.8726 -0.2757 -0.6365
  591TIP3   OH223263   1.033   5.170  12.516 -0.5373  0.2805  0.3196
  591TIP3    H123264   1.063   5.237  12.454 -0.8492  0.8861  0.8162
  591TIP3    H223265   1.100   5.102  12.510 -0.7265  0.1683 -0.9309
  592TIP3   OH223266   0.434   4.392   4.714  0.0620  0.0368  0.2812
  592TIP3    H123267   0.397   4.413   4.628  0.2457  0.2916  0.2629
  592TIP3    H223268   0.524   4.423   4.710  0.1923 -0.3212  0.4260
  593TIP3   OH223269   1.917   1.428  12.564  0.1383  0.1762  0.0302
  593TIP3    H123270   1.964   1.505  12.531  1.9894 -0.5321  0.8865
  593TIP3    H223271   1.826   1.458  12.573  0.6045  1.9419 -0.6567
  594TIP3   OH223272   0.028   4.660   3.334  0.4704  0.0087 -0.2575
  594TIP3    H123273  -0.013   4.600   3.396  3.3937 -2.1492 -0.2036
  594TIP3    H223274   0.122   4.653   3.352  1.0850  3.5634 -1.2729
  595TIP3   OH223275   6.645   0.664  16.271 -0.1342 -0.3696 -0.0651
  595TIP3    H123276   6.556   0.663  16.237 -0.2335 -1.6796  0.1836
  595TIP3    H223277   6.684   0.583  16.238  0.6825 -0.2428  0.5502
  596TIP3   OH223278   0.056   4.624  13.209 -0.0134 -0.5209  0.1749
  596TIP3    H123279   0.050   4.690  13.278  2.3195  0.7594 -0.7492
  596TIP3    H223280  -0.009   4.558  13.234  0.1715  0.2621  3.1534
  597TIP3   OH223281   6.683   5.716  14.862  0.3881 -0.7085 -0.6098
  597TIP3    H123282   6.719   5.781  14.923 -2.5660  0.1427  0.4303
  597TIP3    H223283   6.686   5.634  14.911  0.2228 -0.4823 -0.2096
  598TIP3   OH223284   1.727   1.364  15.879  0.4683 -0.2945 -0.1869
  598TIP3    H123285   1.799   1.371  15.816 -0.5443 -0.1952 -1.3863
  598TIP3    H223286   1.650   1.341  15.825 -0.2239 -1.3183  1.1604
  599TIP3   OH223287   4.731   0.710   3.793 -0.1564  0.2087 -0.0829
  599TIP3    H123288   4.714   0.801   3.770 -0.4336 -0.1981 -1.5795
  599TIP3    H223289   4.672   0.692   3.866 -0.6039  1.0173 -0.2359
  600TIP3   OH223290   3.968   5.777  13.044 -0.0060  0.1109  0.3713
  600TIP3    H123291   3.943   5.846  12.982  1.4080  0.5173  0.2342
  600TIP3    H223292   3.910   5.790  13.119 -0.2665  0.9732  0.0304
  601TIP3   OH223293   2.826   3.421   5.197 -0.5460  0.7051  0.0249
  601TIP3    H123294   2.869   3.472   5.265 -0.6513  0.7373  0.0677
  601TIP3    H223295   2.888   3.422   5.124 -0.1951  0.2137  0.3104
  602TIP3   OH223296   4.322   4.382  16.430  0.0663  0.5529  0.0920
  602TIP3    H123297   4.305   4.291  16.405 -1.8244  1.2272 -1.2636
  602TIP3    H223298   4.341   4.427  16.347 -2.7651  2.1081  0.1521
  603TIP3   OH223299   6.781   6.471   2.535  0.5391  0.0092  0.4065
  603TIP3    H123300   6.848   6.499   2.473  1.1152  0.5712  1.2609
  603TIP3    H223301   6.759   6.382   2.508  1.2163  0.0237 -0.2284
  604TIP3   OH223302   2.279   0.650  13.166 -0.4664 -0.2320  0.4573
  604TIP3    H123303   2.340   0.722  13.154 -1.2705  0.3602 -0.1570
  604TIP3    H223304   2.309   0.583  13.105 -0.9412  0.4060 -0.4970
  605TIP3   OH223305   6.234   1.638  17.138  0.1021  0.5343 -0.7143
  605TIP3    H123306   6.246   1.558  17.190 -0.4491 -0.6773 -2.3583
  605TIP3    H223307   6.289   1.624  17.061  1.0559  2.3741 -0.4161
  606TIP3   OH223308   3.986   6.117   0.751 -0.5064  0.1173 -0.0689
  606TIP3    H123309   3.932   6.184   0.795 -0.0565 -0.2560  1.0895
  606TIP3    H223310   3.923   6.060   0.709 -0.8813  1.9312 -2.1451
  607TIP3   OH223311   2.951   5.640  14.971  0.0780 -0.4836 -0.3060
  607TIP3    H123312   2.942   5.667  14.879 -0.2103  0.3194 -0.0485
  607TIP3    H223313   2.951   5.544  14.968  0.2975 -0.4636 -1.1658
  608TIP3   OH223314   5.223   4.804  11.093 -0.1320 -0.0028  0.9799
  608TIP3    H123315   5.213   4.843  11.180  0.9574  0.7640  0.7730
  608TIP3    H223316   5.292   4.855  11.051 -0.2702 -0.7087 -0.1435
  609TIP3   OH223317   3.511   2.040  16.858 -0.1698 -0.3518 -0.6762
  609TIP3    H123318   3.501   2.024  16.764  1.4083  1.7232 -1.2533
  609TIP3    H223319   3.605   2.033  16.874 -0.4126 -0.6594  0.7752
  610TIP3   OH223320   1.396   6.790   5.384  0.3018  0.3685  0.3934
  610TIP3    H123321   1.321   6.755   5.335  0.6392  0.7886 -0.4485
  610TIP3    H223322   1.383   6.884   5.383 -0.8077  0.3143  2.9812
  611TIP3   OH223323   4.557   0.504   5.022 -0.2819 -0.3002 -0.3678
  611TIP3    H123324   4.467   0.536   5.021 -0.0561  0.4136  0.7916
  611TIP3    H223325   4.562   0.448   5.099  0.3707 -0.0322 -0.2107
  612TIP3   OH223326   2.916   0.715  11.274  0.2591  0.5000  0.6009
  612TIP3    H123327   2.888   0.647  11.212 -0.2855  1.8415 -0.7046
  612TIP3    H223328   2.992   0.678  11.318 -0.0682 -0.9732 -0.0175
  613TIP3   OH223329   4.352   6.284   2.363 -0.2532  0.6590  0.1980
  613TIP3    H123330   4.300   6.212   2.399 -1.3765  0.8693 -0.9215
  613TIP3    H223331   4.428   6.241   2.324 -1.3431 -0.0663 -1.2367
  614TIP3   OH223332   5.879   3.243  15.856  0.1108 -0.0151  0.2201
  614TIP3    H123333   5.897   3.277  15.944  0.3985  0.3850  0.0129
  614TIP3    H223334   5.912   3.311  15.797 -1.6516  0.5271 -0.1986
  615TIP3   OH223335   0.422   0.911  17.160 -0.1729 -0.4234  0.1565
  615TIP3    H123336   0.329   0.924  17.179 -0.1184 -0.6947  0.6174
  615TIP3    H223337   0.439   0.969  17.085 -1.3358 -2.3591 -1.7354
  616TIP3   OH223338   3.109   2.993   6.207 -0.2402  0.4868  0.1723
  616TIP3    H123339   3.113   2.942   6.289  0.4381 -1.1160 -0.7989
  616TIP3    H223340   3.181   3.055   6.214  2.6260 -2.4183 -0.8458
  617TIP3   OH223341   2.894   1.421   0.227 -0.1497 -0.2402  0.0515
  617TIP3    H123342   2.947   1.472   0.288  0.5815 -0.1060 -0.6855
  617TIP3    H223343   2.924   1.330   0.239  2.4284  0.1465 -2.4323
  618TIP3   OH223344   0.799   1.602   2.527 -0.0084 -0.7052  0.0899
  618TIP3    H123345   0.743   1.596   2.451 -1.0309 -1.1148  0.8490
  618TIP3    H223346   0.853   1.523   2.524  0.7160 -0.1884 -0.7727
  619TIP3   OH223347   1.042   4.053   0.048 -0.0710  0.1110  0.2739
  619TIP3    H123348   0.975   4.120   0.034 -0.5060 -0.1577  1.0402
  619TIP3    H223349   1.091   4.083   0.124  1.7152  1.1020 -1.1756
  620TIP3   OH223350   4.951   0.310   4.839  0.3072 -0.0569  0.0281
  620TIP3    H123351   4.865   0.344   4.814  0.1542 -0.5641 -0.1607
  620TIP3    H223352   4.948   0.218   4.813  0.9959 -0.0204 -0.1991
  621TIP3   OH223353   6.222   4.292  13.973 -0.4586  0.2883 -0.0215
  621TIP3    H123354   6.227   4.386  13.957 -1.0293  0.0568 -1.8276
  621TIP3    H223355   6.139   4.279  14.017 -1.2965  0.4680 -1.4758
  622TIP3   OH223356   1.958   1.414   5.281  0.1601  0.3606  0.0632
  622TIP3    H123357   1.921   1.428   5.194 -0.9444 -1.0045  0.2670
  622TIP3    H223358   1.969   1.319   5.286 -0.6669  0.3248  1.7438
  623TIP3   OH223359   3.512   5.194   0.913 -0.3493  0.4088 -0.7206
  623TIP3    H123360   3.493   5.268   0.970  1.9683 -0.5093  1.3966
  623TIP3    H223361   3.511   5.231   0.825  0.8749  3.0244  0.2774
  624TIP3   OH223362   2.881   5.311  16.321  0.2527 -0.3257  0.2530
  624TIP3    H123363   2.854   5.398  16.291  1.0230  0.1372  0.8443
  624TIP3    H223364   2.837   5.300  16.405 -0.9508 -1.1105 -0.4620
  625TIP3   OH223365   6.587   0.329   0.856  0.3611 -0.4376 -0.1135
  625TIP3    H123366   6.583   0.418   0.821  0.1995 -0.8019 -1.0404
  625TIP3    H223367   6.533   0.332   0.935 -0.9603 -0.0892 -0.9967
  626TIP3   OH223368   5.433   6.669  16.903 -0.4469  0.1847 -0.3178
  626TIP3    H123369   5.393   6.734  16.845  0.4047  0.7802 -0.2534
  626TIP3    H223370   5.405   6.585  16.867 -1.9920  0.5737 -0.0960
  627TIP3   OH223371   3.424   3.154   2.784 -0.2952 -0.3448 -0.0536
  627TIP3    H123372   3.333   3.172   2.760  0.1137  0.9335 -0.6983
  627TIP3    H223373   3.425   3.162   2.879 -0.7816  0.0005 -0.0734
  628TIP3   OH223374   2.996   0.969  14.714 -0.5908 -0.1732 -0.2117
  628TIP3    H123375   2.910   0.926  14.710 -0.5642 -0.5899  2.1970
  628TIP3    H223376   3.038   0.930  14.791  1.7962  0.0047 -1.3457
  629TIP3   OH223377   3.574   5.074   5.740 -0.0382 -0.3784 -0.0552
  629TIP3    H123378   3.627   5.097   5.817  1.6945  0.2218 -1.3628
  629TIP3    H223379   3.634   5.024   5.684 -1.4381 -1.3222 -0.7643
  630TIP3   OH223380   6.392   4.397  13.661 -0.0946 -0.0199  0.2230
  630TIP3    H123381   6.414   4.304  13.651 -1.1427 -0.3717  0.9753
  630TIP3    H223382   6.321   4.412  13.599 -1.4340 -0.3126  1.6096
  631TIP3   OH223383   3.158   1.009  16.699  0.1959 -0.1419  0.5669
  631TIP3    H123384   3.225   1.047  16.642  1.1090  2.4246  3.0732
  631TIP3    H223385   3.076   1.049  16.669  0.4971  0.3325  0.3543
  632TIP3   OH223386   5.548   3.435  16.138  0.3616  0.5272 -0.0067
  632TIP3    H123387   5.590   3.363  16.091  0.9690  0.2820  0.9023
  632TIP3    H223388   5.561   3.511  16.081  2.8237  0.6577  0.6246
  633TIP3   OH223389   3.726   2.972  11.870 -0.5585  0.1441  0.5164
  633TIP3    H123390   3.689   2.889  11.903 -0.1612 -0.4375 -0.4588
  633TIP3    H223391   3.806   2.946  11.824 -1.3120  0.8527 -1.2754
  634TIP3   OH223392   4.302   0.768  12.713  0.0155 -0.0008 -0.6667
  634TIP3    H123393   4.361   0.838  12.686 -1.4824  1.2388 -0.8559
  634TIP3    H223394   4.358   0.691  12.720  1.8080  1.2949 -0.0228
  635TIP3   OH223395   4.168   1.328  15.837  0.7919 -0.3489 -0.0368
  635TIP3    H123396   4.199   1.388  15.905  1.0905 -0.7685  0.1988
  635TIP3    H223397   4.095   1.374  15.796 -1.2050 -1.1413  2.3445
  636TIP3   OH223398   4.856   1.022   1.834 -0.3583  0.1384  0.4811
  636TIP3    H123399   4.760   1.024   1.838 -0.3375 -0.4312  2.8053
  636TIP3    H223400   4.877   0.929   1.824  0.0008  0.4644 -3.1923
  637TIP3   OH223401   0.485   4.767   1.107 -0.4333 -0.3687  0.1324
  637TIP3    H123402   0.483   4.717   1.188  1.3177  0.2500  0.6242
  637TIP3    H223403   0.438   4.848   1.128 -0.0276 -0.2309  0.5293
  638TIP3   OH223404   3.065   0.296  13.105  0.2339 -0.8073 -0.1939
  638TIP3    H123405   3.095   0.210  13.075  0.4545 -1.3287  1.4349
  638TIP3    H223406   3.141   0.335  13.147 -0.5853 -1.0107  1.5769
  639TIP3   OH223407   3.187   3.076  15.096  0.1160  0.0598  0.1925
  639TIP3    H123408   3.131   3.077  15.174 -1.2270  1.8584 -0.7160
  639TIP3    H223409   3.158   2.999  15.048  0.8628 -0.9942  1.3522
  640TIP3   OH223410   6.402   0.685  15.556  0.9974 -0.1837 -0.5440
  640TIP3    H123411   6.429   0.776  15.568  0.5344 -0.1523  0.3407
  640TIP3    H223412   6.362   0.661  15.640 -0.4464 -0.6567 -1.3360
  641TIP3   OH223413   6.392   3.955   6.265 -0.4602  0.1376 -0.0001
  641TIP3    H123414   6.404   3.912   6.349 -3.2043 -1.9471 -0.5513
  641TIP3    H223415   6.367   4.045   6.287 -2.5373 -0.7443  1.5462
  642TIP3   OH223416   4.022   1.280  15.348 -0.0518  0.9702  0.1518
  642TIP3    H123417   4.102   1.321  15.316 -0.0744  1.0135  0.1515
  642TIP3    H223418   4.043   1.254  15.438  0.2640  0.1566 -0.1492
  643TIP3   OH223419   4.624   1.258  15.385 -0.0148  0.0766 -0.0642
  643TIP3    H123420   4.599   1.351  15.380  0.1873  0.0880 -1.4492
  643TIP3    H223421   4.717   1.259  15.409 -0.7246  0.1007  2.9942
  644TIP3   OH223422   3.836   1.367   5.929 -0.0452  0.5580 -0.2293
  644TIP3    H123423   3.803   1.455   5.914  0.6373  0.6501 -1.3209
  644TIP3    H223424   3.909   1.378   5.989  0.1827  0.7632 -0.5442
  645TIP3   OH223425   1.244   5.567   2.677  0.1026  0.2423 -0.0283
  645TIP3    H123426   1.232   5.508   2.603  1.4708  0.0771 -0.1393
  645TIP3    H223427   1.222   5.654   2.643  2.6058  0.4966 -1.2810
  646TIP3   OH223428   1.084   1.128  15.624 -0.3583  0.0359 -0.4546
  646TIP3    H123429   1.006   1.179  15.645 -0.1566  0.7678 -1.4436
  646TIP3    H223430   1.051   1.039  15.610 -0.5007 -0.6629  3.1525
  647TIP3   OH223431   4.250   3.339  11.376 -0.8531  0.0178  0.3227
  647TIP3    H123432   4.300   3.324  11.297 -0.9195  1.3531  0.0044
  647TIP3    H223433   4.277   3.269  11.436 -1.1065 -1.2422 -1.0060
  648TIP3   OH223434   4.653   1.593   6.372 -0.6695  0.1543  0.0521
  648TIP3    H123435   4.730   1.541   6.351 -1.1039  0.0277 -1.3529
  648TIP3    H223436   4.583   1.554   6.319 -1.3108  1.3109  0.0149
  649TIP3   OH223437   6.508   0.782  11.324 -0.3897  0.4979 -0.1598
  649TIP3    H123438   6.521   0.727  11.401 -0.1111  0.7796 -0.0073
  649TIP3    H223439   6.547   0.732  11.252 -1.2684 -0.0871 -0.2509
  650TIP3   OH223440   2.445   6.730  17.061  0.0103  0.1953 -0.5689
  650TIP3    H123441   2.384   6.802  17.041  1.2501  0.8470 -2.2838
  650TIP3    H223442   2.389   6.658  17.089 -1.3500  1.5051  0.2701
  651TIP3   OH223443   1.293   5.396  11.151 -0.3147  0.3113 -0.6951
  651TIP3    H123444   1.269   5.403  11.059  0.1475  1.9553 -0.7380
  651TIP3    H223445   1.211   5.376  11.196 -0.3317 -1.7014 -1.5547
  652TIP3   OH223446   3.335   1.394   2.251 -0.1172 -0.4397 -0.0219
  652TIP3    H123447   3.322   1.483   2.283 -2.0114 -1.2657  1.7129
  652TIP3    H223448   3.272   1.384   2.179 -0.4926 -0.6218  0.3283
  653TIP3   OH223449   6.558   6.127  15.823 -0.5915 -0.0418 -0.2554
  653TIP3    H123450   6.572   6.041  15.783 -0.2523  0.5450 -1.4525
  653TIP3    H223451   6.632   6.179  15.793 -1.4368  1.0099 -0.5598
  654TIP3   OH223452   3.008   1.725  16.634  0.7498  0.0060 -0.9705
  654TIP3    H123453   3.007   1.649  16.693  1.8228  0.4824 -0.2953
  654TIP3    H223454   2.933   1.778  16.663  1.0349  0.0445 -0.2713
  655TIP3   OH223455   1.600   6.276  15.205  0.2929  0.1627 -0.1815
  655TIP3    H123456   1.519   6.284  15.254  0.4846 -2.2065  0.6348
  655TIP3    H223457   1.592   6.341  15.134 -1.2070  1.6752  1.2851
  656TIP3   OH223458   1.584   1.146   2.047 -0.2040 -0.2831 -0.1142
  656TIP3    H123459   1.489   1.140   2.057 -0.4769  1.5837 -1.0800
  656TIP3    H223460   1.598   1.142   1.952  0.8092 -1.6135  0.0593
  657TIP3   OH223461   3.211   6.006  12.815 -0.1615 -0.6542  0.3271
  657TIP3    H123462   3.134   5.970  12.860  0.3935  0.2659  2.1054
  657TIP3    H223463   3.276   5.935  12.820  0.6386  0.1608  3.0514
  658TIP3   OH223464   5.271   6.577  11.685  0.3967  0.5258  0.2793
  658TIP3    H123465   5.182   6.556  11.656 -0.1589  2.3331  0.5242
  658TIP3    H223466   5.269   6.562  11.779  1.0886 -1.7254 -0.0248
  659TIP3   OH223467   5.294   3.763   1.032  0.3007  0.1580 -0.3651
  659TIP3    H123468   5.364   3.699   1.040  0.5271  0.3524 -0.7925
  659TIP3    H223469   5.222   3.725   1.083  1.1335  0.5670  1.1676
  660TIP3   OH223470   6.372   4.284  12.059  0.4335 -0.9762  0.3102
  660TIP3    H123471   6.440   4.219  12.043 -0.8437 -2.2870 -0.0321
  660TIP3    H223472   6.392   4.319  12.146  1.3410 -1.5761  0.3484
  661TIP3   OH223473   0.966   4.396   4.505  0.1144 -0.5997  0.2119
  661TIP3    H123474   1.046   4.343   4.498  0.8429  0.2439  1.7617
  661TIP3    H223475   0.896   4.332   4.516  0.8570 -1.2908  1.0593
  662TIP3   OH223476   3.508   3.655  16.374  0.3576 -0.5022 -0.0126
  662TIP3    H123477   3.415   3.655  16.397  0.4299  0.0939  0.3111
  662TIP3    H223478   3.518   3.583  16.312 -0.5367  0.1061 -0.8951
  663TIP3   OH223479   4.368   5.570  14.551 -0.5192  0.2566  0.6823
  663TIP3    H123480   4.407   5.486  14.527  1.8872  1.7268 -1.0697
  663TIP3    H223481   4.319   5.597  14.473 -2.3348 -0.0092  1.6703
  664TIP3   OH223482   3.783   1.777  15.934  0.1706  0.3880 -0.1650
  664TIP3    H123483   3.784   1.863  15.977 -0.3869  0.8112 -0.9612
  664TIP3    H223484   3.829   1.790  15.851  1.6091 -0.5256  0.4447
  665TIP3   OH223485   6.122   6.177  11.738 -0.5322  0.3579  0.1754
  665TIP3    H123486   6.204   6.159  11.692 -0.4421  1.7468 -0.2796
  665TIP3    H223487   6.149   6.218  11.820 -0.7595  0.9340 -0.0320
  666TIP3   OH223488   2.106   4.470  15.229  0.4173 -0.5340 -0.6740
  666TIP3    H123489   2.080   4.379  15.218 -3.3952  0.0350  1.7995
  666TIP3    H223490   2.162   4.471  15.306  0.5115 -0.7794 -0.7402
  667TIP3   OH223491   5.759   5.343   3.999  0.2658 -0.4425  0.1830
  667TIP3    H123492   5.767   5.284   4.074 -0.8292  0.0387  0.7008
  667TIP3    H223493   5.724   5.424   4.037 -0.2148 -0.1638 -0.8452
  668TIP3   OH223494   3.070   3.459  11.364  0.0573  0.4430  0.2663
  668TIP3    H123495   3.066   3.447  11.269  0.6690 -1.6373  0.4608
  668TIP3    H223496   3.162   3.477  11.382 -0.3120  2.5674  0.3520
  669TIP3   OH223497   0.475   5.777   0.236  0.0400 -0.1948  0.0038
  669TIP3    H123498   0.495   5.807   0.148 -2.2781 -3.9779 -2.1014
  669TIP3    H223499   0.386   5.808   0.253 -0.7569 -2.0503 -0.4609
  670TIP3   OH223500   0.229   0.763  11.031 -0.1436 -0.0825 -0.3474
  670TIP3    H123501   0.173   0.840  11.042  1.5420  1.3045 -0.9974
  670TIP3    H223502   0.192   0.716  10.957 -1.6810 -0.3814  0.5726
  671TIP3   OH223503   3.036   6.097   1.436  0.5519  0.3254 -0.2189
  671TIP3    H123504   2.984   6.049   1.502 -0.1221  2.8967  1.2438
  671TIP3    H223505   3.126   6.068   1.451  0.2030 -0.2926  0.8027
  672TIP3   OH223506   3.640   4.142  12.174 -0.0076  0.2348  0.0336
  672TIP3    H123507   3.729   4.119  12.150  0.0826  0.0847  0.4912
  672TIP3    H223508   3.642   4.151  12.269 -0.4023  0.5783  0.0167
  673TIP3   OH223509   2.347   5.377  14.624 -0.2340  0.2560  0.0621
  673TIP3    H123510   2.401   5.300  14.603  0.9705  1.5877 -2.0437
  673TIP3    H223511   2.396   5.423  14.691  0.2697  0.4161 -0.4078
  674TIP3   OH223512   3.976   2.708  10.926  0.4599 -0.1266 -0.4667
  674TIP3    H123513   3.972   2.621  10.965 -1.4172 -0.3173 -0.9958
  674TIP3    H223514   3.894   2.716  10.877  1.2212  1.4115 -1.5627
  675TIP3   OH223515   0.822   3.435   4.423  0.8774  0.3127 -0.3057
  675TIP3    H123516   0.848   3.526   4.406  1.2140  0.5381  1.2524
  675TIP3    H223517   0.865   3.413   4.505 -0.8783 -0.5509  0.4425
  676TIP3   OH223518   5.399   5.603   3.830  0.2188 -1.0032  0.1656
  676TIP3    H123519   5.371   5.636   3.915 -0.8752  1.1639 -0.9781
  676TIP3    H223520   5.352   5.520   3.819 -1.3558 -0.2009  0.7175
  677TIP3   OH223521   4.499   2.807  15.930  0.3766 -0.7904 -0.4353
  677TIP3    H123522   4.478   2.884  15.877  1.1747 -0.2858 -0.0523
  677TIP3    H223523   4.566   2.839  15.992 -0.6424 -1.3010  0.9865
  678TIP3   OH223524   3.798   6.112   3.318 -0.5189 -0.0202 -0.2667
  678TIP3    H123525   3.872   6.077   3.268 -0.8308  0.0944 -0.8089
  678TIP3    H223526   3.837   6.139   3.401 -0.1237 -0.8981 -0.1476
  679TIP3   OH223527   3.369   3.086  15.324 -0.8273 -0.1451 -0.1466
  679TIP3    H123528   3.370   3.181  15.318 -2.6587  0.0158  1.1987
  679TIP3    H223529   3.346   3.056  15.236  2.1122  0.4653 -1.2330
  680TIP3   OH223530   4.848   0.959  13.067 -0.0013 -0.5142 -0.3249
  680TIP3    H123531   4.831   0.934  13.158  0.5962  0.0124 -0.0612
  680TIP3    H223532   4.762   0.983  13.032 -0.1974 -0.4881  0.1759
  681TIP3   OH223533   0.434   4.016  15.605  0.0978 -0.2962 -0.0377
  681TIP3    H123534   0.503   4.065  15.561  0.4050 -1.5353 -0.9637
  681TIP3    H223535   0.465   3.926  15.607 -1.6729 -0.9666 -0.8897
  682TIP3   OH223536   2.393   5.509  11.433 -0.1034  0.7798  0.1335
  682TIP3    H123537   2.409   5.524  11.339  1.4629 -2.2126 -0.1889
  682TIP3    H223538   2.473   5.537  11.476  0.5900 -1.0394  0.1212
  683TIP3   OH223539   0.521   0.096  12.663 -0.4478  0.3012 -0.0783
  683TIP3    H123540   0.494   0.185  12.643 -0.4595  0.2795 -0.1572
  683TIP3    H223541   0.492   0.082  12.754  0.4872  0.7337  0.2933
  684TIP3   OH223542   6.006   1.829   3.952  0.0208  0.2873 -0.1019
  684TIP3    H123543   5.944   1.757   3.968 -0.8990  0.9760 -0.4976
  684TIP3    H223544   5.952   1.908   3.953  1.0025  0.9765  0.2191
  685TIP3   OH223545   5.829   2.116   5.714 -0.3473  0.3013  0.4174
  685TIP3    H123546   5.826   2.182   5.646  0.0891  0.6096  0.6951
  685TIP3    H223547   5.786   2.040   5.675 -0.7256  0.6993  0.0490
  686TIP3   OH223548   0.869   3.549  15.771 -0.1117  0.2935 -0.5714
  686TIP3    H123549   0.821   3.497  15.707 -0.1698 -0.3772  0.0042
  686TIP3    H223550   0.815   3.547  15.850  0.9210 -0.6342  0.1492
  687TIP3   OH223551   1.227   6.301   2.627  0.1608 -0.3040  0.4132
  687TIP3    H123552   1.147   6.354   2.625 -0.0631 -0.6398  0.3983
  687TIP3    H223553   1.208   6.231   2.689 -0.0035 -1.0939 -0.5071
  688TIP3   OH223554   3.454   4.465   1.328  0.2704  0.2652  0.5337
  688TIP3    H123555   3.489   4.422   1.250 -1.8219 -0.8971  0.1676
  688TIP3    H223556   3.437   4.555   1.300  0.2090  0.0476 -0.1592
  689TIP3   OH223557   0.716   5.340   6.182 -0.3295  0.0094  0.0770
  689TIP3    H123558   0.768   5.330   6.262 -0.6737 -0.4203  0.2536
  689TIP3    H223559   0.705   5.434   6.172  0.3028  0.0958  0.1504
  690TIP3   OH223560   0.952   1.933   0.115  0.3301  0.6427 -0.3844
  690TIP3    H123561   0.922   1.879   0.041  0.7888 -0.2697  0.0876
  690TIP3    H223562   1.033   1.974   0.083  0.8327 -0.1920 -0.2042
  691TIP3   OH223563   0.342   3.672   2.254  0.2532  0.3994  0.0429
  691TIP3    H123564   0.343   3.766   2.235 -0.1885  0.5798  0.8994
  691TIP3    H223565   0.344   3.630   2.167 -0.6541  1.1993 -0.3757
  692TIP3   OH223566   6.722   4.021  13.699 -0.2377  0.0943 -0.0706
  692TIP3    H123567   6.799   4.066  13.663 -1.0785  1.3192 -0.3765
  692TIP3    H223568   6.711   4.059  13.787 -0.0696 -0.6098  0.2615
  693TIP3   OH223569   0.067   6.289  11.981 -0.1172 -0.1625  0.1011
  693TIP3    H123570   0.015   6.366  12.002 -1.1756 -1.0344  0.7826
  693TIP3    H223571   0.051   6.228  12.054  2.1571 -0.3332  0.5311
  694TIP3   OH223572   6.018   2.559   0.716  0.2052  0.1999 -0.0555
  694TIP3    H123573   5.997   2.653   0.708 -1.1305  0.0065  0.7998
  694TIP3    H223574   6.106   2.557   0.753 -0.0300  1.1393  0.6031
  695TIP3   OH223575   5.834   0.443   4.093 -0.3692 -0.0699 -0.3204
  695TIP3    H123576   5.796   0.379   4.154  0.0654  0.4077  0.4550
  695TIP3    H223577   5.855   0.519   4.147  1.3102 -0.1551 -0.7961
  696TIP3   OH223578   3.935   1.617   2.460  0.3828 -0.3248  0.4777
  696TIP3    H123579   3.931   1.655   2.547 -2.3942  0.1841  0.1955
  696TIP3    H223580   3.877   1.541   2.463  0.0461 -0.1677 -0.9905
  697TIP3   OH223581   3.659   4.643   2.069 -0.9286  0.3612  0.0117
  697TIP3    H123582   3.738   4.608   2.029 -1.4470 -0.6820 -0.1440
  697TIP3    H223583   3.676   4.736   2.079  0.2344  0.1845 -0.2064
  698TIP3   OH223584   1.740   0.392   6.068 -0.1877  0.5458  0.4060
  698TIP3    H123585   1.645   0.392   6.068 -0.3261  3.3736 -1.8016
  698TIP3    H223586   1.763   0.458   6.134  0.2882 -0.3427  1.1506
  699TIP3   OH223587   2.928   5.229   5.879  0.5832  0.5991 -0.4390
  699TIP3    H123588   2.841   5.260   5.903  0.8573  0.9490  0.1304
  699TIP3    H223589   2.980   5.240   5.958  0.1268 -3.6810  0.6688
  700TIP3   OH223590   4.071   5.395   1.320  0.1872  0.9784  0.3368
  700TIP3    H123591   4.111   5.480   1.338  0.8320  0.9430 -0.8380
  700TIP3    H223592   4.116   5.363   1.242 -2.5557  1.2389 -1.4814
  701TIP3   OH223593   1.845   1.576   3.241 -0.3822 -0.0617 -0.6636
  701TIP3    H123594   1.864   1.668   3.259  0.3779 -0.3258 -0.0832
  701TIP3    H223595   1.824   1.539   3.326 -1.5874 -0.2304 -1.0178
  702TIP3   OH223596   6.259   5.046   2.777 -0.3511  0.2365  0.2222
  702TIP3    H123597   6.269   5.131   2.820  1.5937 -0.5027  1.3651
  702TIP3    H223598   6.346   5.007   2.782 -0.6650 -0.9326 -2.2456
  703TIP3   OH223599   2.939   3.672   5.391  0.1511 -0.1145  0.2094
  703TIP3    H123600   2.884   3.712   5.458  0.5580  2.5502 -0.9427
  703TIP3    H223601   2.935   3.732   5.316 -0.3518 -2.9768 -2.2734
  704TIP3   OH223602   4.028   2.071  16.585  0.6832  0.4416  0.9103
  704TIP3    H123603   3.980   2.145  16.546  0.5071  0.2494  0.7625
  704TIP3    H223604   4.037   2.095  16.677  0.2815  0.4691  0.9452
  705TIP3   OH223605   5.949   3.890   5.868 -0.0253 -0.1526  0.2469
  705TIP3    H123606   5.888   3.962   5.889 -0.4380 -0.2592 -0.5359
  705TIP3    H223607   6.004   3.882   5.946 -2.0100 -1.0793  1.6400
  706TIP3   OH223608   5.871   0.866  15.382  0.5582 -0.2115  0.0333
  706TIP3    H123609   5.899   0.956  15.401  0.6886 -0.4094  0.7990
  706TIP3    H223610   5.790   0.876  15.333  2.2968  0.4289 -3.0154
  707TIP3   OH223611   3.880   3.831  11.833  0.4533  0.1999 -0.0970
  707TIP3    H123612   3.864   3.833  11.927 -1.2696  0.1081 -0.3515
  707TIP3    H223613   3.869   3.739  11.809 -0.4231  0.4096 -0.5613
  708TIP3   OH223614   5.891   5.238  16.580 -0.1422 -0.2493  0.2003
  708TIP3    H123615   5.905   5.212  16.671  1.3298 -0.3832 -0.0410
  708TIP3    H223616   5.856   5.327  16.586 -1.4611 -0.7827  0.9158
  709TIP3   OH223617   5.305   3.594  14.030  0.1841  0.2216  0.2601
  709TIP3    H123618   5.300   3.499  14.041  1.5284  0.1999  0.8861
  709TIP3    H223619   5.266   3.610  13.944 -0.5922 -0.8257  0.3889
  710TIP3   OH223620   4.388   4.639  14.562  0.2927 -0.3027  0.1110
  710TIP3    H123621   4.397   4.548  14.534 -0.2710 -0.0144 -1.0284
  710TIP3    H223622   4.374   4.633  14.657  2.9121 -1.2615  0.5362
  711TIP3   OH223623   4.554   0.227  16.345 -0.0854  0.2394 -0.7401
  711TIP3    H123624   4.560   0.314  16.385  0.5263 -0.6780  1.2806
  711TIP3    H223625   4.461   0.215  16.327 -0.4763  0.4742  0.9941
  712TIP3   OH223626   6.027   4.129   3.485  0.4468 -0.1598 -0.0846
  712TIP3    H123627   6.116   4.098   3.467 -0.0231 -1.7762  0.1958
  712TIP3    H223628   5.985   4.056   3.532 -0.9983  0.5970 -0.1372
  713TIP3   OH223629   4.961   5.635  13.646  0.1196 -0.1504  0.1499
  713TIP3    H123630   5.015   5.635  13.568  2.5188 -2.2373  1.6476
  713TIP3    H223631   4.993   5.708  13.698 -0.4477  0.3209 -0.1547
  714TIP3   OH223632   2.331   3.784   0.818  0.1428  0.0601 -0.3179
  714TIP3    H123633   2.325   3.878   0.837  2.1199 -0.0299  1.1676
  714TIP3    H223634   2.404   3.777   0.756 -0.1049 -0.4882 -0.5514
  715TIP3   OH223635   0.903   2.918   2.011 -0.1280 -0.4060 -0.2541
  715TIP3    H123636   0.816   2.879   2.023 -2.1315  3.6282 -0.0378
  715TIP3    H223637   0.904   2.993   2.069  2.8397  0.7553 -1.5984
  716TIP3   OH223638   3.237   3.416  15.487  0.1408 -0.1157  0.5005
  716TIP3    H123639   3.222   3.328  15.521  0.8761 -0.1218  0.8146
  716TIP3    H223640   3.312   3.408  15.429 -1.8970 -0.3788 -2.3204
  717TIP3   OH223641   3.451   3.600   1.897 -0.0759  0.4892  0.2357
  717TIP3    H123642   3.418   3.524   1.945  0.5580 -0.2767 -0.4989
  717TIP3    H223643   3.383   3.619   1.832  0.5585 -0.6629 -0.8280
  718TIP3   OH223644   0.959   5.937   5.376  0.4574  0.5908 -0.7105
  718TIP3    H123645   0.890   5.878   5.346 -1.3593  0.9988  2.2900
  718TIP3    H223646   0.999   5.891   5.450 -0.2731  2.5899  1.0137
  719TIP3   OH223647   2.504   1.289  12.233 -0.0846 -0.3374  0.6165
  719TIP3    H123648   2.481   1.273  12.141 -0.2618 -0.2791  0.6484
  719TIP3    H223649   2.480   1.381  12.247  0.4042 -0.2032  0.5852
  720TIP3   OH223650   2.748   4.896   3.351  0.4356 -0.5029 -0.0198
  720TIP3    H123651   2.790   4.856   3.275  1.3045  0.5142 -0.0906
  720TIP3    H223652   2.754   4.990   3.336  0.9326 -0.2693  1.4643
  721TIP3   OH223653   1.830   6.423  10.687  0.3445 -0.1692  0.1062
  721TIP3    H123654   1.851   6.421  10.593  1.7016  1.1977  0.3525
  721TIP3    H223655   1.840   6.332  10.715 -2.0074 -1.0037 -1.4291
  722TIP3   OH223656   2.372   0.173   4.836  0.0918 -0.1726  0.0252
  722TIP3    H123657   2.399   0.084   4.812  0.7753  0.8027 -3.2793
  722TIP3    H223658   2.454   0.223   4.840 -0.1663  0.2083  2.9101
  723TIP3   OH223659   6.027   6.559   2.318  0.0256  0.2807  0.1232
  723TIP3    H123660   5.987   6.638   2.354  1.6593  0.7260  1.0043
  723TIP3    H223661   5.984   6.548   2.232 -2.6831  0.1558  1.3808
  724TIP3   OH223662   6.051   6.813   3.460 -0.4416  0.4354 -1.0022
  724TIP3    H123663   6.018   6.891   3.416  0.0667  0.6773 -0.9594
  724TIP3    H223664   6.131   6.842   3.503 -1.5997  0.5439  1.1928
  725TIP3   OH223665   4.577   2.271  15.339  0.2767 -0.4033  0.2571
  725TIP3    H123666   4.535   2.351  15.372  0.1830  0.1187 -1.0529
  725TIP3    H223667   4.504   2.213  15.319  0.3149 -0.5492  0.5311
  726TIP3   OH223668   5.204   6.424  12.669 -0.1071 -0.1398  0.0708
  726TIP3    H123669   5.146   6.419  12.593 -1.1782  0.8288  0.7810
  726TIP3    H223670   5.154   6.476  12.733  1.2779  0.1305  0.9638
  727TIP3   OH223671   3.594   0.573   2.386 -0.1412 -0.0982  0.4010
  727TIP3    H123672   3.641   0.534   2.460 -0.3960 -0.6061  0.2954
  727TIP3    H223673   3.502   0.560   2.407 -0.2109 -0.5049 -0.1479
  728TIP3   OH223674   3.553   3.896   3.535  0.3440  0.3222  0.2604
  728TIP3    H123675   3.527   3.894   3.443  2.5031  1.0779 -0.4197
  728TIP3    H223676   3.590   3.809   3.551 -0.2625  0.1029  0.5105
  729TIP3   OH223677   0.330   1.703   4.041  0.1244  0.0855 -0.0292
  729TIP3    H123678   0.330   1.611   4.014  2.6326 -0.0915  0.3351
  729TIP3    H223679   0.240   1.732   4.027 -0.3027 -1.8847 -1.9618
  730TIP3   OH223680   1.894   3.753  11.504 -0.0894  0.6513 -0.1363
  730TIP3    H123681   1.837   3.827  11.483 -3.6303 -0.2123  4.7948
  730TIP3    H223682   1.851   3.678  11.463  0.1322  0.5760 -0.2313
  731TIP3   OH223683   2.244   4.415   1.101 -0.0630  0.1448  0.1926
  731TIP3    H123684   2.284   4.413   1.014  1.2038 -1.1463  0.7866
  731TIP3    H223685   2.316   4.429   1.161 -1.0047  1.6766  1.0416
  732TIP3   OH223686   0.638   3.204   0.397  0.1115  0.1651 -0.5238
  732TIP3    H123687   0.650   3.296   0.377  0.8519  1.2835  3.9975
  732TIP3    H223688   0.544   3.195   0.414 -0.0906 -0.1881 -1.6898
  733TIP3   OH223689   6.574   4.175   1.884  0.1732 -0.1298 -0.2114
  733TIP3    H123690   6.546   4.085   1.868 -2.7910  0.5536  0.4685
  733TIP3    H223691   6.570   4.217   1.798 -2.4420  0.2515  0.0059
  734TIP3   OH223692   1.964   5.845  11.266 -0.3680  0.4290  0.0470
  734TIP3    H123693   1.939   5.827  11.357 -1.4680 -0.2742 -0.3811
  734TIP3    H223694   1.891   5.813  11.214  0.5916  0.0985 -1.1400
  735TIP3   OH223695   6.639   3.783   5.191 -0.3601 -0.0187  0.5932
  735TIP3    H123696   6.638   3.785   5.286 -0.4080 -1.3013  0.6380
  735TIP3    H223697   6.636   3.875   5.165 -1.2579  0.3292  1.8107
  736TIP3   OH223698   1.231   3.205  16.135  0.1330  0.8436 -0.1559
  736TIP3    H123699   1.254   3.113  16.146 -0.2357  0.7470 -0.1590
  736TIP3    H223700   1.313   3.253  16.148  0.3191  0.5176 -0.1252
  737TIP3   OH223701   2.040   0.357   0.752 -0.0479 -0.1625  0.1930
  737TIP3    H123702   2.001   0.439   0.723  1.1616 -0.0844 -1.4057
  737TIP3    H223703   1.966   0.303   0.780 -0.8606  1.4514  1.3126
  738TIP3   OH223704   1.029   3.603   4.955 -0.1326 -0.1364 -0.4364
  738TIP3    H123705   1.090   3.589   5.027  1.1238  0.2490 -1.3836
  738TIP3    H223706   1.035   3.522   4.903 -0.5760 -0.1771 -0.4234
  739TIP3   OH223707   1.029   0.014  16.761  0.1155  0.4676  0.2158
  739TIP3    H123708   1.040   0.018  16.856 -2.7639  0.1152  0.6574
  739TIP3    H223709   1.115   0.034  16.726  1.3854  0.1526  2.9004
  740TIP3   OH223710   4.212   1.594  11.561 -0.3860  0.3166  0.4296
  740TIP3    H123711   4.283   1.625  11.618 -0.4944 -0.7874  1.2096
  740TIP3    H223712   4.239   1.506  11.535 -1.1708  0.1316  0.2111
  741TIP3   OH223713   0.137   6.612  14.712 -0.2975 -0.3792 -0.3112
  741TIP3    H123714   0.116   6.610  14.618 -0.8310  2.4912 -0.3502
  741TIP3    H223715   0.199   6.685  14.721  1.8725 -2.2875  1.2488
  742TIP3   OH223716   5.005   4.065  15.678 -0.4224 -0.0764  0.2839
  742TIP3    H123717   5.010   4.041  15.586  0.9899 -1.6305  0.7065
  742TIP3    H223718   5.092   4.045  15.713 -0.7927  0.8959  1.8552
  743TIP3   OH223719   0.537   4.831   5.263 -0.5711  0.3835  0.1380
  743TIP3    H123720   0.593   4.829   5.185 -1.6469  0.8093 -0.6629
  743TIP3    H223721   0.532   4.924   5.285 -1.5726  0.4327 -0.2570
  744TIP3   OH223722   3.703   3.053  17.092  0.3438 -0.4108  0.1215
  744TIP3    H123723   3.697   3.058  16.997  0.9439 -1.5930  0.0087
  744TIP3    H223724   3.724   2.962  17.111 -1.6102 -0.6447  1.4963
  745TIP3   OH223725   2.678   0.471   5.611  0.1129  0.0253  0.0415
  745TIP3    H123726   2.756   0.466   5.555  0.0342  1.4266 -0.2210
  745TIP3    H223727   2.672   0.384   5.650  4.6390  0.9693  3.8245
  746TIP3   OH223728   4.892   0.898   3.116  0.1414 -0.1371 -0.0502
  746TIP3    H123729   4.900   0.838   3.190 -0.4079 -0.0478  0.0858
  746TIP3    H223730   4.865   0.842   3.043 -0.7991 -0.0046  0.1779
  747TIP3   OH223731   2.003   6.729  13.451  0.6159  0.2029  0.2109
  747TIP3    H123732   2.022   6.813  13.491  1.1173 -0.5925  1.7368
  747TIP3    H223733   2.085   6.681  13.455 -0.0962 -1.0094  1.0717
  748TIP3   OH223734   3.429   3.964   0.220  0.2120 -0.0406 -0.2873
  748TIP3    H123735   3.387   3.878   0.231 -0.5719  0.5163  1.3881
  748TIP3    H223736   3.475   3.979   0.302  2.7378 -0.0611 -1.6200
  749TIP3   OH223737   0.941   4.943   0.386 -0.6940 -0.1619 -0.2206
  749TIP3    H123738   0.905   4.855   0.373  0.2340 -0.7855  1.2101
  749TIP3    H223739   1.016   4.948   0.327 -1.2123 -0.0240 -0.8799
  750TIP3   OH223740   4.839   1.208  15.794 -0.6040  0.1020  0.1918
  750TIP3    H123741   4.829   1.245  15.882 -1.1991 -2.7924  1.4696
  750TIP3    H223742   4.927   1.235  15.767 -1.1496  2.7038  0.7587
  751TIP3   OH223743   1.419   0.972  16.552  0.4825 -0.5640  0.4026
  751TIP3    H123744   1.376   1.014  16.478  0.6179  0.1798  0.7370
  751TIP3    H223745   1.499   0.934  16.515  0.0505 -1.0811 -0.0211
  752TIP3   OH223746   3.104   3.857  14.831  0.0681 -0.5308  0.8056
  752TIP3    H123747   3.103   3.952  14.840  0.0777 -0.4736  0.2670
  752TIP3    H223748   3.038   3.826  14.893 -0.2724 -0.1416  0.6421
  753TIP3   OH223749   3.742   4.220   5.048 -0.2757 -0.1270 -0.1067
  753TIP3    H123750   3.767   4.163   5.121 -2.0851  0.9474  1.4503
  753TIP3    H223751   3.755   4.309   5.082 -1.1392  0.3955 -1.1016
  754TIP3   OH223752   2.489   2.157   2.141  0.1172  0.3133  0.0429
  754TIP3    H123753   2.554   2.158   2.071 -0.4770 -0.0029 -0.5216
  754TIP3    H223754   2.409   2.192   2.101 -0.6398 -1.2274  0.1384
  755TIP3   OH223755   5.144   4.839   6.385 -0.1383  0.5041 -0.0558
  755TIP3    H123756   5.156   4.801   6.472 -1.6715  1.2981  0.5575
  755TIP3    H223757   5.084   4.778   6.342 -0.8008  1.0260  0.1116
  756TIP3   OH223758   0.127   0.985  15.120 -0.1048 -0.2283 -0.8420
  756TIP3    H123759   0.058   1.050  15.136 -0.5511 -0.8114 -0.3566
  756TIP3    H223760   0.081   0.901  15.117  0.6928 -0.7565  0.6413
  757TIP3   OH223761   3.431   1.653  17.265 -0.2908 -0.2587  0.1457
  757TIP3    H123762   3.419   1.565  17.302 -0.3026 -0.5460 -0.5059
  757TIP3    H223763   3.505   1.643  17.205 -2.2235 -0.6546 -2.3723
  758TIP3   OH223764   0.137   6.463  14.972  0.1638  0.3456 -0.4073
  758TIP3    H123765   0.222   6.426  14.948  0.9384  1.9412 -0.2548
  758TIP3    H223766   0.108   6.511  14.894 -0.6836 -0.3097 -0.5104
  759TIP3   OH223767   6.107   1.365   0.301  0.0596  0.2812  0.6044
  759TIP3    H123768   6.106   1.380   0.206 -0.4456 -0.3198  0.5088
  759TIP3    H223769   6.043   1.295   0.315  0.8984 -0.3698  1.2607
  760TIP3   OH223770   0.561   5.027  11.024 -0.5811 -0.7812 -0.3004
  760TIP3    H123771   0.615   5.049  10.948 -0.9099 -2.8155 -1.1907
  760TIP3    H223772   0.485   4.981  10.988 -0.6857 -1.9264  1.2586
  761TIP3   OH223773   3.304   3.141  12.819  0.0364  0.0861  0.3013
  761TIP3    H123774   3.262   3.069  12.772  1.5264  0.8791 -2.4366
  761TIP3    H223775   3.232   3.186  12.864 -1.3546 -1.1922 -0.5779
  762TIP3   OH223776   4.778   0.435   3.444  0.1390  0.0733 -0.2037
  762TIP3    H123777   4.838   0.375   3.400  0.9053  0.5679  0.1451
  762TIP3    H223778   4.807   0.523   3.417 -0.7109  0.3131 -0.3844
  763TIP3   OH223779   2.378   6.502   4.677  0.3935 -0.0683  0.0994
  763TIP3    H123780   2.312   6.448   4.635  0.8611 -0.5212 -0.0605
  763TIP3    H223781   2.331   6.580   4.705  0.1759  0.5557 -1.8336
  764TIP3   OH223782   0.758   2.662  15.762 -0.1144  0.0743  0.5073
  764TIP3    H123783   0.688   2.597  15.754  2.0350 -2.2927 -0.6583
  764TIP3    H223784   0.786   2.655  15.854 -2.4153  2.3267  1.4986
  765TIP3   OH223785   5.267   6.076  17.132  0.0356  0.2882 -0.9219
  765TIP3    H123786   5.336   6.031  17.084 -0.0071 -1.0378  0.1969
  765TIP3    H223787   5.201   6.009  17.148 -0.0667  0.7548  0.7554
  766TIP3   OH223788   0.591   4.805   4.660  0.3254  0.0089  0.5170
  766TIP3    H123789   0.529   4.757   4.603 -0.9540  2.4202 -0.2867
  766TIP3    H223790   0.675   4.764   4.644 -0.6031 -1.5976 -0.5238
  767TIP3   OH223791   4.048   3.354   1.307  0.2672 -0.0545  0.1022
  767TIP3    H123792   4.118   3.293   1.331 -0.2392 -0.7177 -0.0563
  767TIP3    H223793   3.967   3.304   1.322 -0.1123 -0.5328 -2.9024
  768TIP3   OH223794   5.379   4.560   3.310  0.0480  0.0916 -0.3272
  768TIP3    H123795   5.318   4.486   3.305 -0.2912  0.3470 -0.0714
  768TIP3    H223796   5.443   4.543   3.241  0.2217 -0.6579  0.0006
  769TIP3   OH223797   4.574   5.506   5.343  0.4622 -0.1200 -0.4023
  769TIP3    H123798   4.501   5.566   5.360  0.8833 -0.0387  1.3921
  769TIP3    H223799   4.538   5.419   5.361  0.6439 -0.1294 -0.0763
  770TIP3   OH223800   2.990   2.019   0.508  0.4662 -0.0061 -0.5367
  770TIP3    H123801   3.030   1.947   0.556 -0.9298 -1.0592 -0.8555
  770TIP3    H223802   2.957   1.978   0.428 -1.0463  0.8184 -0.3687
  771TIP3   OH223803   5.293   0.951  12.468 -0.1663  0.3562 -0.0135
  771TIP3    H123804   5.291   1.040  12.431  1.7774  0.3657 -0.1790
  771TIP3    H223805   5.263   0.962  12.558 -1.7963  0.8447 -0.5668
  772TIP3   OH223806   2.117   4.897  14.299  0.3802  0.3878 -0.3907
  772TIP3    H123807   2.110   4.946  14.381 -0.9937  0.7576 -0.7074
  772TIP3    H223808   2.107   4.963  14.230  2.9245  0.3088 -0.9379
  773TIP3   OH223809   0.594   4.858  11.583 -0.5791  0.0003 -0.0952
  773TIP3    H123810   0.521   4.856  11.521 -0.2663 -0.4132 -0.4586
  773TIP3    H223811   0.613   4.951  11.594 -0.0800  0.0655 -1.2989
  774TIP3   OH223812   1.494   1.456  16.019 -0.2046  0.0774 -0.3218
  774TIP3    H123813   1.418   1.408  15.986  0.8627 -1.5047 -0.6151
  774TIP3    H223814   1.568   1.417  15.973  0.9503  0.4257  1.1761
  775TIP3   OH223815   4.698   2.512   3.690  0.2415  0.6999  0.2045
  775TIP3    H123816   4.743   2.527   3.773 -1.0138 -0.3755  1.0959
  775TIP3    H223817   4.613   2.554   3.701 -0.5499 -0.8330  0.0764
  776TIP3   OH223818   4.696   1.628  13.091 -0.3656 -0.4361  0.0093
  776TIP3    H123819   4.626   1.622  13.027 -1.1079 -0.3541  0.7919
  776TIP3    H223820   4.771   1.587  13.049 -1.1322 -1.3484 -0.4926
  777TIP3   OH223821   3.223   6.267  14.797  0.0359 -0.4175  0.2821
  777TIP3    H123822   3.315   6.282  14.820 -0.0325  1.3496 -0.4604
  777TIP3    H223823   3.225   6.245  14.704 -0.3089 -0.0840  0.1937
  778TIP3   OH223824   2.711   5.907  13.247 -0.7103  0.3001  0.3280
  778TIP3    H123825   2.761   5.970  13.194 -0.0550 -0.7904 -0.3944
  778TIP3    H223826   2.698   5.951  13.331  0.9323  0.8744  0.3168
  779TIP3   OH223827   0.991   2.409   2.503 -0.6268  0.3430  0.2117
  779TIP3    H123828   0.979   2.500   2.527  0.4097  0.6796 -0.4768
  779TIP3    H223829   1.076   2.385   2.541  1.2840  1.0120 -3.1626
  780TIP3   OH223830   5.742   4.348   3.140  0.1341 -0.3892  0.1945
  780TIP3    H123831   5.676   4.415   3.152  1.8764  1.6557 -0.9190
  780TIP3    H223832   5.783   4.338   3.226  0.7425  1.0085  0.0897
  781TIP3   OH223833   3.088   1.219   4.171  0.5199 -0.2728  0.6362
  781TIP3    H123834   3.045   1.271   4.102 -1.2838 -2.3670  0.0467
  781TIP3    H223835   3.149   1.163   4.123 -0.8554 -1.8491  0.6567
  782TIP3   OH223836   0.292   4.078  15.200  0.1553  0.2997 -0.6447
  782TIP3    H123837   0.370   4.083  15.144  0.4434 -0.1281 -0.2903
  782TIP3    H223838   0.300   4.152  15.259  0.0537  0.5264 -0.9154
  783TIP3   OH223839   2.021   6.586   2.266  0.5970 -0.0598  0.1423
  783TIP3    H123840   2.072   6.616   2.191 -0.6694  0.5747 -0.4951
  783TIP3    H223841   2.075   6.608   2.342  1.1408  0.8696 -0.4928
  784TIP3   OH223842   2.998   1.031  13.030  0.0315 -0.0865 -0.8339
  784TIP3    H123843   2.976   0.939  13.019 -0.0063 -0.5920  2.4998
  784TIP3    H223844   3.093   1.035  13.017  0.3041 -0.9712  0.6924
  785TIP3   OH223845   4.700   1.275  11.498 -0.2156  0.5598 -0.4074
  785TIP3    H123846   4.746   1.355  11.474 -1.2458  1.1111 -0.6294
  785TIP3    H223847   4.768   1.217  11.531  0.5226  1.6017 -0.0356
  786TIP3   OH223848   1.284   0.827   1.350  0.1902 -0.3358 -0.1985
  786TIP3    H123849   1.372   0.860   1.332 -0.3552  0.7382 -1.0654
  786TIP3    H223850   1.298   0.745   1.397  1.6629 -0.7125 -1.2231
  787TIP3   OH223851   1.610   4.035  17.230  0.6803  0.0638 -0.0695
  787TIP3    H123852   1.637   4.065  17.143 -0.5400 -1.1015 -0.8932
  787TIP3    H223853   1.692   4.032  17.281  1.3665  1.0433 -1.0694
  788TIP3   OH223854   0.635   4.685  16.229  0.3993  0.0952 -0.1076
  788TIP3    H123855   0.657   4.595  16.205 -0.9395 -0.1305 -0.5994
  788TIP3    H223856   0.561   4.676  16.290  0.8300  0.8415  0.5531
  789TIP3   OH223857   2.181   6.293  10.717 -0.3489 -0.4050 -0.1720
  789TIP3    H123858   2.231   6.220  10.679  3.4344  1.2025  1.1399
  789TIP3    H223859   2.157   6.347  10.643  1.2411 -0.5420 -0.8435
  790TIP3   OH223860   0.216   6.777   2.313  0.1974  0.2684 -0.0379
  790TIP3    H123861   0.137   6.799   2.362 -0.5128 -0.0457 -1.0208
  790TIP3    H223862   0.237   6.857   2.265  1.5680  0.9690  1.6122
  791TIP3   OH223863   1.326   1.014  15.228  0.0571 -0.2582  0.0360
  791TIP3    H123864   1.306   0.944  15.166  0.6904 -0.4001 -0.0150
  791TIP3    H223865   1.402   1.059  15.191 -0.0678  0.1742  0.2957
  792TIP3   OH223866   6.020   0.216   5.910  0.0720 -0.0965 -0.0130
  792TIP3    H123867   5.959   0.146   5.934  0.5482 -0.6601 -0.4168
  792TIP3    H223868   5.991   0.291   5.961 -0.5205 -0.5545  0.3439
  793TIP3   OH223869   2.321   0.478   4.470 -0.0075 -0.3261  0.2241
  793TIP3    H123870   2.264   0.443   4.402 -0.9120 -1.3645  1.4780
  793TIP3    H223871   2.305   0.573   4.468 -0.1050 -0.3562 -0.9108
  794TIP3   OH223872   5.893   2.135  10.708  1.0099  0.1476 -0.2784
  794TIP3    H123873   5.818   2.076  10.713  1.6914 -0.8938 -1.4372
  794TIP3    H223874   5.967   2.081  10.735  1.7981  0.1174 -2.2872
  795TIP3   OH223875   1.267   2.247  11.038  0.2382 -0.2929  0.1737
  795TIP3    H123876   1.180   2.240  10.998  0.0969  0.6511  0.2900
  795TIP3    H223877   1.299   2.333  11.012  0.0772  0.4311  2.1615
  796TIP3   OH223878   6.603   6.564  11.196  0.2668  0.1150  0.0315
  796TIP3    H123879   6.610   6.626  11.123  0.8478 -0.6926 -0.6198
  796TIP3    H223880   6.602   6.619  11.274 -0.6351  1.0165 -0.5846
  797TIP3   OH223881   0.771   5.652  10.512  0.1270 -0.3367 -0.1816
  797TIP3    H123882   0.845   5.690  10.464 -0.1790  0.4594 -0.0507
  797TIP3    H223883   0.742   5.723  10.569 -1.1489 -0.4036 -0.7115
  798TIP3   OH223884   6.337   1.034  16.427 -0.3871  0.0282 -0.0032
  798TIP3    H123885   6.421   0.989  16.414 -1.6263 -2.1224 -1.3379
  798TIP3    H223886   6.351   1.090  16.503  2.2690 -0.1853 -0.2361
  799TIP3   OH223887   3.196   2.299  13.348 -0.1185  0.4049 -0.7687
  799TIP3    H123888   3.226   2.232  13.286  1.6447 -0.5422  0.9894
  799TIP3    H223889   3.243   2.378  13.322  1.7599 -0.3460  0.1605
  800TIP3   OH223890   5.449   1.209  13.505 -0.3351 -0.3171  0.2052
  800TIP3    H123891   5.412   1.230  13.420 -1.7847 -1.3847  0.5357
  800TIP3    H223892   5.541   1.187  13.487  0.0335  1.7205 -0.7230
  801TIP3   OH223893   1.989   3.859   2.647 -0.6601 -0.1596  0.0355
  801TIP3    H123894   1.946   3.928   2.597 -0.7333 -0.4713 -0.3343
  801TIP3    H223895   1.939   3.854   2.728 -1.0242 -0.1876 -0.1887
  802TIP3   OH223896   1.079   0.944   1.569  0.0080 -0.2070 -0.1841
  802TIP3    H123897   1.137   0.902   1.506  0.5197  0.6407 -0.2861
  802TIP3    H223898   1.137   0.992   1.627 -0.6188  1.4077 -0.8415
  803TIP3   OH223899   2.470   0.214   3.849  0.6385 -0.1216  0.2762
  803TIP3    H123900   2.549   0.175   3.887  0.9484 -1.0162 -1.1836
  803TIP3    H223901   2.399   0.155   3.875  0.6186  0.1086  0.7354
  804TIP3   OH223902   6.247   1.442   2.459  0.0016  0.0214  0.2141
  804TIP3    H123903   6.281   1.375   2.517 -3.1658 -1.0570  1.0366
  804TIP3    H223904   6.286   1.524   2.491  3.2081 -1.2041 -0.2259
  805TIP3   OH223905   6.515   2.328   4.953  0.1194  0.3455  0.0356
  805TIP3    H123906   6.486   2.276   5.028  0.3128  0.3439  0.1108
  805TIP3    H223907   6.464   2.295   4.879 -0.3486  0.6101  0.2418
  806TIP3   OH223908   5.717   3.137   0.024 -0.2453  0.1164  0.4280
  806TIP3    H123909   5.718   3.178   0.110  0.0148  2.2759 -0.5358
  806TIP3    H223910   5.809   3.135  -0.002 -0.4878  1.9480 -0.8226
  807TIP3   OH223911   0.642   1.982   2.659  0.3143 -0.5996 -0.1062
  807TIP3    H123912   0.726   1.998   2.616  0.0313 -1.8215 -1.1629
  807TIP3    H223913   0.649   2.029   2.742  0.3925  2.9311 -1.9115
  808TIP3   OH223914   4.294   6.046   3.111 -0.1367 -0.2474  0.5776
  808TIP3    H123915   4.319   6.085   3.028  0.6363 -1.1253  0.3759
  808TIP3    H223916   4.276   5.954   3.090 -0.7194 -0.2901  1.2392
  809TIP3   OH223917   1.820   1.627  15.127 -0.0456  0.5024 -0.0114
  809TIP3    H123918   1.812   1.665  15.214  0.8500  0.3958  0.1213
  809TIP3    H223919   1.872   1.691  15.078  0.8194 -0.1832 -0.0032
  810TIP3   OH223920   2.619   2.433   5.502 -0.1524 -0.1541  0.3157
  810TIP3    H123921   2.573   2.510   5.469  0.0457 -0.0970  0.1722
  810TIP3    H223922   2.596   2.429   5.595 -0.3295 -0.0415  0.2760
  811TIP3   OH223923   0.225   2.695   4.134 -0.4421 -0.2564  0.0842
  811TIP3    H123924   0.163   2.636   4.091 -0.0875 -0.6498  0.1165
  811TIP3    H223925   0.172   2.771   4.159 -1.0993 -0.9758  0.9181
  812TIP3   OH223926   4.126   4.570  10.386 -0.7392  0.2413  0.5815
  812TIP3    H123927   4.126   4.551  10.480  0.8286  0.2931  0.6217
  812TIP3    H223928   4.169   4.494  10.346  2.6250  2.0540  0.4135
  813TIP3   OH223929   4.027   1.521   1.967 -0.3205  0.1726  1.0415
  813TIP3    H123930   3.997   1.431   1.971  0.1533  0.0190  1.2866
  813TIP3    H223931   4.000   1.559   2.051  0.8060 -0.1857  1.6006
  814TIP3   OH223932   3.963   3.240   3.626  0.3852 -0.2372 -0.1394
  814TIP3    H123933   3.982   3.295   3.702 -0.0620  0.2555 -0.3753
  814TIP3    H223934   4.046   3.199   3.605 -0.0003 -2.5841  2.2971
  815TIP3   OH223935   0.910   1.896   1.537  0.0338  0.1943 -0.3731
  815TIP3    H123936   0.927   1.955   1.463  1.1112 -1.5425 -1.5900
  815TIP3    H223937   0.941   1.811   1.507  1.3760 -0.4228  2.4040
  816TIP3   OH223938   0.191   5.752   3.918 -0.6731 -0.5201  0.3623
  816TIP3    H123939   0.126   5.816   3.889 -1.1997 -1.6566 -1.0418
  816TIP3    H223940   0.196   5.765   4.013  0.1184  2.4112  0.0231
  817TIP3   OH223941   3.948   2.973  11.701 -0.1644 -0.0665 -0.3619
  817TIP3    H123942   3.994   2.890  11.692  0.2483  0.0877  0.2629
  817TIP3    H223943   3.973   3.023  11.623 -0.4805 -0.5509 -0.7822
  818TIP3   OH223944   0.550   0.766  13.894  0.4416 -0.1064 -0.1596
  818TIP3    H123945   0.597   0.848  13.913 -1.2469  0.4000  2.3004
  818TIP3    H223946   0.462   0.794  13.869 -0.2128 -1.1388  0.8922
  819TIP3   OH223947   1.973   6.254   3.616  0.3291  0.6032  0.0682
  819TIP3    H123948   2.037   6.198   3.660 -0.4227  0.5432  1.1407
  819TIP3    H223949   1.897   6.197   3.602  0.1107  0.9543 -0.2139
  820TIP3   OH223950   5.380   5.273  16.066  0.6860 -0.4605  0.2149
  820TIP3    H123951   5.424   5.303  16.145  1.3620  0.8127 -0.6021
  820TIP3    H223952   5.305   5.332  16.056  1.0937 -0.0515 -0.5364
  821TIP3   OH223953   0.392   1.682  14.219  0.2951 -0.7075  0.0253
  821TIP3    H123954   0.365   1.598  14.182  1.2535 -0.3224 -1.6563
  821TIP3    H223955   0.486   1.685  14.206  0.1715  0.9907 -0.7816
  822TIP3   OH223956   1.278   1.904   0.544 -0.6258 -0.2579 -0.8219
  822TIP3    H123957   1.205   1.862   0.590 -0.8191  1.5935  0.7100
  822TIP3    H223958   1.255   1.997   0.542  1.7262  0.4140 -0.1716
  823TIP3   OH223959   5.042   2.267   3.640 -0.0279 -0.0430 -0.8233
  823TIP3    H123960   4.993   2.288   3.561 -2.0759  0.0822  0.4046
  823TIP3    H223961   5.036   2.346   3.693 -1.9396 -1.2936  0.9844
  824TIP3   OH223962   0.196   2.579   5.089  0.4529  0.2579  0.0306
  824TIP3    H123963   0.271   2.571   5.148 -0.2045 -0.6941  0.7709
  824TIP3    H223964   0.147   2.498   5.101 -0.1689  0.4283 -1.1923
  825TIP3   OH223965   3.629   5.166  12.815  0.0087  0.4768 -0.0306
  825TIP3    H123966   3.693   5.140  12.750  0.0817  1.9027 -0.5668
  825TIP3    H223967   3.591   5.084  12.846  0.5659 -0.2656 -1.2579
  826TIP3   OH223968   2.481   0.803   4.953  0.1806  0.2335  0.0696
  826TIP3    H123969   2.398   0.781   4.995  0.4443  2.2820  1.8818
  826TIP3    H223970   2.546   0.745   4.995  0.1758  1.1139  1.3679
  827TIP3   OH223971   2.683   0.873  14.141 -0.4013  0.5401  0.3247
  827TIP3    H123972   2.769   0.882  14.182 -0.8853  0.9823  1.2650
  827TIP3    H223973   2.629   0.832  14.209 -0.5128 -1.3450 -0.8329
  828TIP3   OH223974   4.315   5.849   3.709  0.2495 -0.3917 -0.7669
  828TIP3    H123975   4.252   5.778   3.723  1.2396 -1.2622 -0.5726
  828TIP3    H223976   4.343   5.873   3.797 -0.1050  0.2728 -0.8315
  829TIP3   OH223977   1.384   5.873   4.011 -0.0227 -0.7717 -0.0332
  829TIP3    H123978   1.384   5.816   4.088  1.1180 -0.8861 -0.0935
  829TIP3    H223979   1.475   5.871   3.980 -0.1738  0.3329 -0.5934
  830TIP3   OH223980   2.028   0.988   2.840  0.4095  0.5107 -0.5136
  830TIP3    H123981   2.098   0.940   2.884 -0.0333  1.2443  1.0340
  830TIP3    H223982   2.043   0.971   2.747  1.8043 -0.4824 -0.1402
  831TIP3   OH223983   1.978   5.573  14.930 -0.5509  0.0942 -0.2584
  831TIP3    H123984   2.018   5.576  15.018  0.6836 -0.4034 -0.7833
  831TIP3    H223985   1.904   5.633  14.936 -1.5559 -1.2508  1.6382
  832TIP3   OH223986   6.551   6.098   2.185 -0.9642  0.6315  0.2639
  832TIP3    H123987   6.475   6.079   2.129 -0.5872 -0.0483 -0.0191
  832TIP3    H223988   6.529   6.183   2.225 -1.7238  0.6092 -0.0714
  833TIP3   OH223989   5.875   1.581   4.718 -0.4786  0.3003  0.3181
  833TIP3    H123990   5.911   1.525   4.649 -0.9311  0.6006 -0.1694
  833TIP3    H223991   5.826   1.521   4.774  4.3022 -1.0170  3.6613
  834TIP3   OH223992   1.569   3.632   3.683 -0.3530 -0.8218 -0.4383
  834TIP3    H123993   1.547   3.699   3.619  0.5756 -0.6129 -0.5526
  834TIP3    H223994   1.491   3.577   3.688 -0.9672 -0.0008 -0.6714
  835TIP3   OH223995   6.784   0.052  12.585 -0.2344 -0.8126 -0.1338
  835TIP3    H123996   6.731   0.053  12.665  2.3179  2.0322  1.7192
  835TIP3    H223997   6.748   0.123  12.532 -1.2217 -1.9926 -1.1078
  836TIP3   OH223998   0.610   4.727  14.416 -0.3108 -0.3727 -0.1961
  836TIP3    H123999   0.574   4.652  14.464  3.0399 -0.3053  2.9038
  836TIP3    H224000   0.581   4.804  14.466  1.0583 -0.0991  0.2256
  837TIP3   OH224001   5.147   3.375  13.592  0.2176 -0.1258 -0.0032
  837TIP3    H124002   5.200   3.312  13.641  0.7236 -0.3752 -0.8604
  837TIP3    H224003   5.099   3.322  13.528 -0.4161  0.2026  0.1852
  838TIP3   OH224004   4.646   4.519   3.672 -0.2494 -0.0301 -0.3057
  838TIP3    H124005   4.570   4.475   3.632 -0.4131 -1.3050  1.2848
  838TIP3    H224006   4.609   4.568   3.746  0.4199 -0.3547  0.2506
  839TIP3   OH224007   3.950   1.879   5.292 -0.0885  0.1382  0.1955
  839TIP3    H124008   3.969   1.973   5.288  1.4287 -0.0507  1.4708
  839TIP3    H224009   3.929   1.863   5.384  0.6696 -0.9124  0.2090
  840TIP3   OH224010   1.713   5.351   2.220 -0.3124  0.1081  0.7101
  840TIP3    H124011   1.684   5.382   2.134 -2.1883 -0.3006  1.1459
  840TIP3    H224012   1.715   5.255   2.211  0.6833  0.1066  0.7923
  841TIP3   OH224013   3.125   5.384   3.707  0.4077  0.8630  0.9142
  841TIP3    H124014   3.217   5.380   3.682 -0.1174 -0.6437 -1.0692
  841TIP3    H224015   3.088   5.454   3.653  0.1306  0.5357  0.6718
  842TIP3   OH224016   1.229   1.059   0.421  0.3888 -0.9317  0.0426
  842TIP3    H124017   1.156   1.055   0.483 -1.8467  0.3437 -2.3134
  842TIP3    H224018   1.305   1.028   0.471 -1.2134  0.0817  3.3960
  843TIP3   OH224019   3.447   4.965  11.449 -0.2519 -0.3099 -0.5092
  843TIP3    H124020   3.359   5.001  11.460 -0.4243 -0.0363 -2.3839
  843TIP3    H224021   3.436   4.870  11.461 -0.4740 -0.1292  0.8487
  844TIP3   OH224022   2.394   2.597  15.586  0.2613 -0.1503 -0.4255
  844TIP3    H124023   2.305   2.562  15.593  0.8376 -1.6790 -0.3426
  844TIP3    H224024   2.382   2.692  15.586 -1.4367 -0.3126 -1.4100
  845TIP3   OH224025   5.152   1.710   4.006 -0.1935 -0.0162 -0.8147
  845TIP3    H124026   5.070   1.664   3.987 -0.1715  0.6877 -2.8366
  845TIP3    H224027   5.125   1.790   4.051 -0.7111  0.5742 -2.1380
  846TIP3   OH224028   5.863   6.720   6.239 -0.5968 -0.3261  0.3462
  846TIP3    H124029   5.809   6.641   6.239 -2.2127  0.7245  0.0384
  846TIP3    H224030   5.813   6.783   6.293  0.8496  0.3680  0.9373
  847TIP3   OH224031   4.101   2.733   5.786 -0.5617  0.0240 -0.4446
  847TIP3    H124032   4.088   2.693   5.700 -0.5195  1.0073 -0.9256
  847TIP3    H224033   4.130   2.661   5.842 -1.1366 -0.7434 -1.1120
  848TIP3   OH224034   3.583   4.530  17.040  0.2212 -0.0338 -0.0721
  848TIP3    H124035   3.608   4.615  17.076 -0.3063  0.6546 -1.2870
  848TIP3    H224036   3.618   4.530  16.951 -1.5887 -0.2201 -0.8086
  849TIP3   OH224037   4.709   1.282   2.768  0.0763  0.6489  0.6506
  849TIP3    H124038   4.670   1.360   2.807 -0.1996 -0.8039  3.5369
  849TIP3    H224039   4.777   1.256   2.830  1.8618 -0.0703 -1.4858
  850TIP3   OH224040   6.063   6.266   2.360  0.1008  0.1202  0.3772
  850TIP3    H124041   6.019   6.293   2.440  2.2793  0.4836  1.5350
  850TIP3    H224042   6.070   6.346   2.308 -1.1103 -0.0702 -0.1084
  851TIP3   OH224043   1.970   1.975   1.140  0.0772  0.0130  0.1557
  851TIP3    H124044   1.912   1.969   1.064  0.8216 -1.8056 -0.2995
  851TIP3    H224045   1.934   2.049   1.191 -1.1386  0.5044 -1.3357
  852TIP3   OH224046   4.967   4.264  16.328  0.3623 -0.0070  0.0428
  852TIP3    H124047   4.872   4.259  16.341  0.5693 -1.0049  1.4965
  852TIP3    H224048   4.979   4.254  16.234 -0.9337 -1.0098 -0.0502
  853TIP3   OH224049   1.655   1.658   2.379 -0.2688 -0.1921 -0.3610
  853TIP3    H124050   1.701   1.687   2.300 -0.8360  0.8920 -0.3145
  853TIP3    H224051   1.690   1.712   2.449  0.9845 -1.8604  0.3566
  854TIP3   OH224052   3.706   2.675   1.148 -0.3309 -0.3638 -0.1667
  854TIP3    H124053   3.722   2.657   1.055  0.5343 -1.0776  0.1134
  854TIP3    H224054   3.747   2.759   1.164  1.3143 -1.1769  0.0334
  855TIP3   OH224055   5.206   6.712   2.147 -0.1811 -0.4021 -0.8104
  855TIP3    H124056   5.257   6.703   2.066 -0.0211 -0.9355 -0.6587
  855TIP3    H224057   5.194   6.806   2.158  0.9345 -0.2462 -0.7565
  856TIP3   OH224058   4.265   1.535  11.921  0.4174  0.1480  0.1283
  856TIP3    H124059   4.198   1.603  11.928  0.9848  0.8294 -0.8710
  856TIP3    H224060   4.224   1.457  11.959 -0.7102  0.7065  0.0934
  857TIP3   OH224061   3.591   3.264   5.641  0.4303 -0.5825 -0.4688
  857TIP3    H124062   3.650   3.233   5.711  0.9796 -1.3716 -1.2503
  857TIP3    H224063   3.633   3.343   5.607 -1.0346  1.1886  1.6137
  858TIP3   OH224064   0.520   0.574   1.266 -0.5222 -0.2108 -0.4540
  858TIP3    H124065   0.537   0.653   1.317 -0.4689  0.3253 -1.2917
  858TIP3    H224066   0.603   0.555   1.223 -0.2248 -1.3477  0.5796
  859TIP3   OH224067   5.219   4.659  16.412 -0.2624  0.3012 -0.0454
  859TIP3    H124068   5.167   4.668  16.331 -0.8295  0.6676  0.3517
  859TIP3    H224069   5.162   4.610  16.471 -0.5469  1.5082  0.7213
  860TIP3   OH224070   3.348   6.323  13.439  0.5169 -0.1319 -0.1169
  860TIP3    H124071   3.432   6.291  13.471  1.3181 -0.0024 -1.9826
  860TIP3    H224072   3.315   6.253  13.383  0.9054  1.0358 -1.8962
  861TIP3   OH224073   4.538   3.202   1.663  0.1377  0.0071  0.0129
  861TIP3    H124074   4.581   3.287   1.672  0.0990  0.1257 -0.9203
  861TIP3    H224075   4.608   3.143   1.636  0.1303 -0.2382  0.5019
  862TIP3   OH224076   1.082   3.471   0.766  0.1132 -0.2266 -0.3869
  862TIP3    H124077   1.122   3.493   0.681  0.3781  1.3929  0.1108
  862TIP3    H224078   1.152   3.428   0.815  0.3404 -0.0595 -0.5616
  863TIP3   OH224079   0.976   6.014  12.797 -0.1696 -0.2507  0.3148
  863TIP3    H124080   1.067   6.029  12.819 -0.0312  0.5261 -0.7182
  863TIP3    H224081   0.934   6.100  12.805 -0.5482 -0.3609 -0.3929
  864TIP3   OH224082   4.211   4.470  12.587  0.1161 -0.1058  0.0847
  864TIP3    H124083   4.226   4.533  12.657  0.8652 -0.1939  0.0181
  864TIP3    H224084   4.153   4.404  12.625  0.3256 -0.0238  0.5445
  865TIP3   OH224085   0.142   4.666   6.022  0.0314  0.1367 -0.4058
  865TIP3    H124086   0.216   4.656   6.082 -0.7453  0.1572  0.5826
  865TIP3    H224087   0.099   4.581   6.023 -1.5089  0.8711  1.1603
  866TIP3   OH224088   0.072   2.109  11.501  0.0356  0.0668 -0.8061
  866TIP3    H124089   0.089   2.029  11.552  3.0326 -0.4721 -2.4349
  866TIP3    H224090   0.107   2.179  11.555  1.4786 -0.2819 -1.2567
  867TIP3   OH224091   6.531   2.270   3.575  0.0356 -0.4045 -0.4267
  867TIP3    H124092   6.590   2.199   3.601 -1.4745 -1.8828 -0.8581
  867TIP3    H224093   6.529   2.266   3.479 -0.1860  0.1096 -0.4472
  868TIP3   OH224094   1.656   6.259  11.410  0.5869  0.6438 -0.5945
  868TIP3    H124095   1.660   6.348  11.375  1.5626  0.3575 -1.2440
  868TIP3    H224096   1.743   6.243  11.445  0.2928  0.0879 -0.0944
  869TIP3   OH224097   1.708   6.479  11.274  0.3087  0.0730  0.3817
  869TIP3    H124098   1.702   6.509  11.183  1.4584 -2.6137 -0.6849
  869TIP3    H224099   1.781   6.529  11.310  0.9908 -0.0594 -0.7526
  870TIP3   OH224100   3.889   4.391  11.775 -0.2280 -0.7011  0.0838
  870TIP3    H124101   3.860   4.463  11.831 -1.4735 -2.0047  1.2081
  870TIP3    H224102   3.822   4.385  11.708  0.0430 -0.6227 -0.1973
  871TIP3   OH224103   4.373   0.576  12.993 -0.3570 -0.1941 -0.1339
  871TIP3    H124104   4.454   0.537  13.025 -0.9561 -0.0165  1.7547
  871TIP3    H224105   4.382   0.669  13.014 -1.2329 -0.2534  0.5926
  872TIP3   OH224106   2.212   2.893   1.455  0.5425  0.2683  0.1887
  872TIP3    H124107   2.268   2.970   1.457 -1.0005  1.4456  0.4839
  872TIP3    H224108   2.151   2.909   1.383  1.0557 -1.3394 -0.6426
  873TIP3   OH224109   1.301   2.685   4.561  0.0784  0.6915  0.1747
  873TIP3    H124110   1.254   2.647   4.487  1.7109 -0.2881 -0.4107
  873TIP3    H224111   1.303   2.779   4.542 -1.6843  0.7752  0.2748
  874TIP3   OH224112   4.296   0.666  15.654 -0.0032  0.6249  0.0574
  874TIP3    H124113   4.341   0.707  15.580  0.9219  0.6628  0.6322
  874TIP3    H224114   4.260   0.739  15.704  0.0393  0.6348  0.0727
  875TIP3   OH224115   4.855   4.289   1.754 -0.0499  0.1420 -0.0718
  875TIP3    H124116   4.818   4.222   1.697 -0.8661  1.3557 -1.0286
  875TIP3    H224117   4.781   4.320   1.805  0.0954  1.0332 -0.3887
  876TIP3   OH224118   6.024   6.338   4.368  0.0649  0.3092 -0.8665
  876TIP3    H124119   5.955   6.355   4.304 -0.2584 -0.8928 -0.8659
  876TIP3    H224120   5.991   6.375   4.450 -0.7488 -0.5535 -0.7893
  877TIP3   OH224121   3.654   0.050   1.693 -0.0041  0.0050  0.1830
  877TIP3    H124122   3.592   0.119   1.669  2.0318  2.0880  0.5869
  877TIP3    H224123   3.625   0.021   1.779 -1.5772 -0.5154 -0.4970
  878TIP3   OH224124   6.042   5.921  13.447  0.1158 -0.1345  0.0085
  878TIP3    H124125   6.127   5.914  13.490 -0.6064  1.1822  1.7825
  878TIP3    H224126   5.982   5.873  13.505 -0.3267 -1.3816 -1.4128
  879TIP3   OH224127   6.248   0.235   0.615  0.6230  0.0462 -0.0731
  879TIP3    H124128   6.201   0.184   0.548  0.5211 -0.1919  0.1758
  879TIP3    H224129   6.275   0.315   0.570 -0.7046  0.5459 -0.0161
  880TIP3   OH224130   5.311   1.138   2.311 -0.2314 -0.3249 -0.4894
  880TIP3    H124131   5.359   1.220   2.317 -2.4743  0.9674  4.0675
  880TIP3    H224132   5.252   1.150   2.236 -2.1801  3.3951  1.3896
  881TIP3   OH224133   6.194   3.777  12.641  0.4829  0.4665  0.0829
  881TIP3    H124134   6.169   3.763  12.732 -1.0937  0.4978 -0.3232
  881TIP3    H224135   6.177   3.693  12.598 -0.3741  0.9220 -0.5052
  882TIP3   OH224136   0.105   5.672   5.205 -0.0169 -0.2672  0.0909
  882TIP3    H124137   0.182   5.616   5.202 -1.5485 -2.5265 -3.2599
  882TIP3    H224138   0.045   5.627   5.265  0.2482  0.0106  0.5669
  883TIP3   OH224139   1.207   1.702   1.899 -0.4281  0.1277 -0.3654
  883TIP3    H124140   1.164   1.676   1.980 -1.3864  1.9185 -0.2414
  883TIP3    H224141   1.210   1.798   1.903  0.5570  0.2032 -1.9227
  884TIP3   OH224142   2.159   1.242   0.893  0.4788  0.7859  0.0720
  884TIP3    H124143   2.183   1.162   0.940 -1.1638  0.8585  1.1077
  884TIP3    H224144   2.159   1.310   0.960 -1.7179  0.9311 -0.0270
  885TIP3   OH224145   2.049   4.932  12.579 -0.3751 -0.2708 -0.1872
  885TIP3    H124146   2.033   4.988  12.503  0.3465  0.8838  0.4689
  885TIP3    H224147   2.023   4.845  12.551  0.8059 -0.0684 -2.1037
  886TIP3   OH224148   0.185   1.978  16.691  0.2357 -0.4518 -0.2458
  886TIP3    H124149   0.131   2.044  16.735 -0.1484 -0.8131 -0.1698
  886TIP3    H224150   0.123   1.923  16.644  0.4155 -1.5497  0.7386
  887TIP3   OH224151   3.553   5.433   1.853 -0.4476 -0.0257  0.0444
  887TIP3    H124152   3.522   5.495   1.787  0.0370  1.1409  0.8620
  887TIP3    H224153   3.593   5.489   1.920  1.1314 -1.3225  0.2266
  888TIP3   OH224154   6.693   5.487  15.735  0.4655  0.5589 -0.3840
  888TIP3    H124155   6.731   5.406  15.701  0.9271  0.5476  0.1497
  888TIP3    H224156   6.767   5.535  15.771  0.1205  1.0048 -0.2662
  889TIP3   OH224157   2.453   5.224  11.542  0.0276 -0.0769 -0.0124
  889TIP3    H124158   2.499   5.233  11.458 -1.6889 -1.5624 -1.1895
  889TIP3    H224159   2.438   5.314  11.571  0.0496  0.4812 -1.6512
  890TIP3   OH224160   6.325   2.162  12.266  0.3830 -0.9570  0.2685
  890TIP3    H124161   6.371   2.112  12.199 -1.1283 -1.4735 -0.4037
  890TIP3    H224162   6.238   2.123  12.271 -0.5008  0.9361  0.4632
  891TIP3   OH224163   5.952   3.018   2.058  0.5353 -0.2134 -0.1146
  891TIP3    H124164   5.917   3.103   2.032  2.5088  0.2611 -1.5250
  891TIP3    H224165   5.962   2.971   1.975  2.2196 -0.6639  0.3092
  892TIP3   OH224166   6.065   0.301  16.433 -0.3248  0.0880  0.1950
  892TIP3    H124167   6.084   0.212  16.464 -0.6671  0.4332  1.4632
  892TIP3    H224168   5.977   0.319  16.465 -0.6449  0.5261 -0.9062
  893TIP3   OH224169   6.738   6.336   4.594  0.2612  0.1707 -0.0995
  893TIP3    H124170   6.782   6.391   4.659 -1.5315  0.3389  1.0479
  893TIP3    H224171   6.796   6.261   4.582  1.6692  1.2097  0.0134
  894TIP3   OH224172   2.766   3.141   1.680  0.2186 -0.3470  0.4467
  894TIP3    H124173   2.712   3.070   1.644 -1.0716  1.2701 -0.9956
  894TIP3    H224174   2.856   3.117   1.658 -0.3265 -0.7768 -1.5004
  895TIP3   OH224175   2.844   4.997   5.060 -0.2005  0.4252 -0.0910
  895TIP3    H124176   2.916   5.031   5.008 -1.1267 -0.4082 -1.9924
  895TIP3    H224177   2.886   4.944   5.128  0.9753 -0.2152 -1.2867
  896TIP3   OH224178   2.089   4.000   2.050 -0.4554  0.4418 -0.0514
  896TIP3    H124179   2.087   3.962   1.962 -2.8297 -0.8052  0.4752
  896TIP3    H224180   2.102   3.926   2.109 -0.0051  1.1340  0.7503
  897TIP3   OH224181   1.826   4.174   5.574 -0.3402 -0.4235 -0.0188
  897TIP3    H124182   1.777   4.255   5.584 -0.4089 -0.4383 -0.2262
  897TIP3    H224183   1.809   4.125   5.655 -0.2997 -0.2333  0.1033
  898TIP3   OH224184   0.137   3.548  14.397  0.0595  0.2043 -0.1857
  898TIP3    H124185   0.167   3.522  14.309 -0.7655  0.2809 -0.4991
  898TIP3    H224186   0.184   3.489  14.456  1.1284  0.5879 -0.6241
  899TIP3   OH224187   3.647   0.215  13.807  0.1545  0.4019 -0.1098
  899TIP3    H124188   3.707   0.290  13.804 -0.3055  0.8951  1.7424
  899TIP3    H224189   3.575   0.239  13.749  0.5426  0.8947 -0.3976
  900TIP3   OH224190   0.281   0.761   3.486  0.4831  0.2997 -0.6768
  900TIP3    H124191   0.232   0.843   3.486  0.1006  0.2451 -4.3297
  900TIP3    H224192   0.256   0.719   3.404  1.8149 -2.8182  0.3698
  901TIP3   OH224193   6.262   6.026  13.725 -0.0018  0.6696 -0.4741
  901TIP3    H124194   6.343   6.050  13.680 -0.3577  1.6390 -0.6183
  901TIP3    H224195   6.252   5.932  13.707 -0.5659  1.1678 -3.1292
  902TIP3   OH224196   3.823   4.716  13.754 -0.2375  0.1124 -0.4435
  902TIP3    H124197   3.851   4.652  13.690  0.2917  0.4265 -0.5316
  902TIP3    H224198   3.880   4.702  13.830 -1.1074 -0.5088  0.1141
  903TIP3   OH224199   3.507   3.201   0.676  0.0615  0.4386  0.0652
  903TIP3    H124200   3.455   3.274   0.709 -1.9920 -0.8042 -0.2181
  903TIP3    H224201   3.471   3.124   0.721  1.5047 -0.5216 -0.3637
  904TIP3   OH224202   4.447   5.114   6.054  0.2654  0.1447  0.7514
  904TIP3    H124203   4.503   5.129   6.130  1.2112  1.3883 -0.1384
  904TIP3    H224204   4.382   5.184   6.057 -0.0051 -0.0986  0.6789
  905TIP3   OH224205   5.619   2.476   3.692  0.0371 -0.1806  0.2782
  905TIP3    H124206   5.697   2.460   3.638 -0.9668  0.5199 -1.4594
  905TIP3    H224207   5.623   2.570   3.712 -0.4090 -0.1106  0.0612
  906TIP3   OH224208   1.155   1.751  14.388  0.0462  0.7172 -0.9039
  906TIP3    H124209   1.199   1.836  14.391  0.7874  0.3347 -0.5450
  906TIP3    H224210   1.222   1.689  14.418 -0.6883  0.0930 -0.5375
  907TIP3   OH224211   5.730   0.566   3.370  0.5045 -0.0816  0.0440
  907TIP3    H124212   5.705   0.628   3.302 -1.1778  0.7879  1.3519
  907TIP3    H224213   5.824   0.552   3.358  1.8973  5.3982  1.6716
  908TIP3   OH224214   6.412   4.057   5.460 -0.7807 -0.4497  0.2557
  908TIP3    H124215   6.450   3.973   5.435 -0.2396  0.1514 -1.0661
  908TIP3    H224216   6.336   4.067   5.404 -0.9820 -0.1574  0.5753
  909TIP3   OH224217   3.750   0.483  15.262  0.5229 -0.4737 -0.1987
  909TIP3    H124218   3.701   0.564  15.249 -0.2749 -0.8539  0.3356
  909TIP3    H224219   3.811   0.503  15.333  0.1826 -0.3978  0.0760
  910TIP3   OH224220   5.965   3.807   0.419 -0.5447  1.0490 -0.7998
  910TIP3    H124221   5.950   3.713   0.409 -0.6906  0.8264  1.1362
  910TIP3    H224222   6.047   3.824   0.374 -0.4276 -0.0482 -1.0062
  911TIP3   OH224223   3.387   3.052   5.411  0.0553  0.2752 -0.1461
  911TIP3    H124224   3.384   2.994   5.335  3.0246  0.6875 -0.7267
  911TIP3    H224225   3.432   3.001   5.479 -0.4540  0.7113  0.5333
  912TIP3   OH224226   4.906   4.203  13.000 -0.6065 -0.2407  0.1395
  912TIP3    H124227   4.979   4.219  13.059 -1.3694  0.9054  0.8252
  912TIP3    H224228   4.859   4.287  12.996 -1.0815 -0.5334 -1.4047
  913TIP3   OH224229   3.519   0.897  16.013  0.2703  0.8991 -0.4312
  913TIP3    H124230   3.515   0.810  16.054 -0.5631  1.5795  0.9801
  913TIP3    H224231   3.554   0.880  15.926  0.8342 -0.7702  0.0798
  914TIP3   OH224232   2.969   2.179   5.592 -0.5414  0.5468  0.4203
  914TIP3    H124233   3.000   2.249   5.649  2.1530 -0.4725  0.3487
  914TIP3    H224234   2.996   2.205   5.504  2.1980 -1.3125  0.5930
  915TIP3   OH224235   0.244   2.799  12.992 -0.0401 -0.4509 -0.6243
  915TIP3    H124236   0.193   2.808  13.073 -0.4903 -1.0686 -0.8268
  915TIP3    H224237   0.322   2.852  13.006  0.9554 -2.2194  1.0778
  916TIP3   OH224238   5.579   6.374   5.158  0.4569 -0.5518 -1.0446
  916TIP3    H124239   5.672   6.380   5.139  0.8319 -0.4374  0.6312
  916TIP3    H224240   5.550   6.465   5.167  0.4294 -0.6000 -0.5842
  917TIP3   OH224241   0.384   1.443   3.020 -0.1996  0.0272 -0.6919
  917TIP3    H124242   0.358   1.524   3.063  0.1478  0.2838 -0.9659
  917TIP3    H224243   0.331   1.375   3.063 -1.1964  0.5161 -1.1188
  918TIP3   OH224244   5.935   5.684   0.572  0.2084  0.1279  0.1530
  918TIP3    H124245   5.909   5.735   0.650 -1.1664  2.7196 -1.8230
  918TIP3    H224246   6.027   5.706   0.559  0.7144 -1.0662  1.5252
  919TIP3   OH224247   2.613   2.900   6.052 -0.0647  0.1801  0.1193
  919TIP3    H124248   2.574   2.896   6.139 -0.8538  1.2132 -0.1593
  919TIP3    H224249   2.699   2.939   6.066 -0.9112  2.1523  0.2710
  920TIP3   OH224250   4.553   2.674   4.041 -0.2528  0.0013 -0.2324
  920TIP3    H124251   4.487   2.635   4.098  0.3453  1.6786  1.7117
  920TIP3    H224252   4.529   2.767   4.036  2.9686  1.1772  2.2622
  921TIP3   OH224253   6.629   2.672   6.194 -0.0957 -0.7109 -0.1809
  921TIP3    H124254   6.640   2.741   6.260 -1.5575 -0.8545  0.2458
  921TIP3    H224255   6.705   2.615   6.207  0.5414  0.1964  0.2171
  922TIP3   OH224256   0.243   3.447   5.783  0.2173  0.0504  0.0600
  922TIP3    H124257   0.249   3.477   5.874 -0.8663 -1.2748  0.6057
  922TIP3    H224258   0.294   3.366   5.781 -0.3453 -0.3029 -0.3188
  923TIP3   OH224259   0.601   0.730   4.214  0.2002 -0.0232 -0.4862
  923TIP3    H124260   0.513   0.724   4.250  0.8009 -0.7596  0.9214
  923TIP3    H224261   0.596   0.803   4.152 -1.0171  0.9297  0.6801
  924TIP3   OH224262   1.208   5.071  16.772 -0.4223  0.5531  0.2576
  924TIP3    H124263   1.196   5.004  16.839 -1.5833  0.4664 -0.0126
  924TIP3    H224264   1.217   5.022  16.691 -2.0628  0.6987 -0.0568
  925TIP3   OH224265   6.807   3.949   5.446  0.2482  0.6304  0.5054
  925TIP3    H124266   6.802   3.860   5.479 -3.7540  1.4376  2.8102
  925TIP3    H224267   6.781   3.942   5.354 -1.2596 -0.5546  0.9731
  926TIP3   OH224268   1.828   4.582  15.219 -0.4949  0.4949 -0.5499
  926TIP3    H124269   1.800   4.507  15.168 -0.7360 -0.2141  0.5905
  926TIP3    H224270   1.922   4.568  15.233 -0.4786  0.5609 -0.5937
  927TIP3   OH224271   4.928   2.042  14.480 -0.1830 -0.1951  0.4267
  927TIP3    H124272   4.989   1.978  14.445 -1.5187 -2.2089  1.5911
  927TIP3    H224273   4.857   2.046  14.416  0.4893  1.1669 -0.2834
  928TIP3   OH224274   2.748   5.840  13.941 -0.1811  0.2291  0.1251
  928TIP3    H124275   2.793   5.911  13.987  0.5854 -0.1887  0.0454
  928TIP3    H224276   2.814   5.804  13.882 -0.6625 -0.3226 -0.0906
  929TIP3   OH224277   4.543   2.811  14.705 -0.4151 -0.1159  0.5551
  929TIP3    H124278   4.586   2.837  14.787 -0.7963 -1.3565  1.1727
  929TIP3    H224279   4.583   2.727  14.683  0.3808  0.6465 -1.0844
  930TIP3   OH224280   5.471   1.827   1.182  0.1442  0.2954 -0.1453
  930TIP3    H124281   5.450   1.842   1.090  0.1830 -1.3160 -0.4581
  930TIP3    H224282   5.483   1.732   1.188  0.4973  0.4141  1.4524
  931TIP3   OH224283   0.407   5.466  12.858  0.2426  0.6582  0.5235
  931TIP3    H124284   0.503   5.472  12.863  0.3839  0.9265 -1.6598
  931TIP3    H224285   0.379   5.555  12.834 -0.3109  0.0277 -1.2838
  932TIP3   OH224286   3.807   5.302   3.518 -0.5318 -0.7022 -0.5437
  932TIP3    H124287   3.837   5.362   3.450 -0.9511  0.3545  0.1728
  932TIP3    H224288   3.851   5.220   3.499  1.3267  0.2598 -0.6337
  933TIP3   OH224289   0.642   1.366   0.277  0.1104  0.0318  0.1705
  933TIP3    H124290   0.639   1.368   0.181 -0.6375 -0.8080  0.1612
  933TIP3    H224291   0.683   1.282   0.298  0.1749  0.1652  0.5780
  934TIP3   OH224292   5.703   0.158  16.183  0.1904  0.3640 -0.0790
  934TIP3    H124293   5.697   0.096  16.256  0.6087  0.2102 -0.1682
  934TIP3    H224294   5.794   0.188  16.186  0.9841 -1.5976 -2.1102
  935TIP3   OH224295   0.599   1.186  16.040 -0.1704  0.5313 -0.3809
  935TIP3    H124296   0.617   1.176  15.947  0.1745 -1.3107 -0.1380
  935TIP3    H224297   0.666   1.135  16.084  1.5864  3.7613  1.0692
  936TIP3   OH224298   6.017   2.363   6.572 -0.1354 -0.0581  0.3631
  936TIP3    H124299   6.049   2.386   6.484  2.9831  0.0368  1.3895
  936TIP3    H224300   5.926   2.338   6.559  0.9408 -2.8415 -3.3897
  937TIP3   OH224301   5.541   0.662  16.172 -0.0981 -0.5409 -0.1966
  937TIP3    H124302   5.599   0.604  16.221  1.6136  1.4622  0.2431
  937TIP3    H224303   5.551   0.748  16.213 -0.4381  0.7018 -2.5375
  938TIP3   OH224304   0.496   4.673  13.209  0.2240 -0.3570 -0.1475
  938TIP3    H124305   0.562   4.617  13.168  0.3543 -1.1340  1.0545
  938TIP3    H224306   0.527   4.762  13.193  0.5264 -0.6508 -1.2717
  939TIP3   OH224307   3.984   5.563  16.214 -0.1280  0.5876 -0.7295
  939TIP3    H124308   4.008   5.518  16.295  0.1313  1.4933 -0.2872
  939TIP3    H224309   4.068   5.581  16.170 -0.0687  2.1172 -0.0737
  940TIP3   OH224310   5.481   1.176  11.460  0.0109 -0.1230 -0.2167
  940TIP3    H124311   5.507   1.113  11.392 -1.6095 -1.0652 -0.0145
  940TIP3    H224312   5.420   1.235  11.417  1.6933  1.5341 -0.4638
  941TIP3   OH224313   2.596   1.735  14.332  0.1442  0.5562 -0.0470
  941TIP3    H124314   2.607   1.787  14.252  1.0974  3.3242  1.7470
  941TIP3    H224315   2.541   1.789  14.388 -0.1529 -1.1286  1.3704
  942TIP3   OH224316   5.424   2.325   3.501 -0.5662  0.0298 -0.2819
  942TIP3    H124317   5.468   2.378   3.434 -1.6606  2.6840  0.9490
  942TIP3    H224318   5.489   2.317   3.571 -0.5460  0.1408 -0.2875
  943TIP3   OH224319   3.700   1.294   2.867 -0.6389  0.2325  0.1410
  943TIP3    H124320   3.634   1.258   2.807 -0.5177 -0.0926  0.1958
  943TIP3    H224321   3.768   1.330   2.809  1.6467 -3.8474 -0.1537
  944TIP3   OH224322   5.806   0.444  15.509  0.3389  0.4176 -0.0257
  944TIP3    H124323   5.792   0.393  15.589 -1.0607  0.5308 -0.1746
  944TIP3    H224324   5.738   0.512  15.512 -0.2291 -0.0279 -1.6600
  945TIP3   OH224325   2.214   3.735   1.660  0.4677 -0.6690 -0.1630
  945TIP3    H124326   2.243   3.736   1.752 -1.5321 -2.4879  0.5851
  945TIP3    H224327   2.293   3.714   1.611  1.2929 -1.2851  1.3402
  946TIP3   OH224328   2.672   2.334   1.200 -0.0751 -0.0883 -0.5918
  946TIP3    H124329   2.668   2.385   1.281  0.1604  0.3089 -0.8249
  946TIP3    H224330   2.722   2.389   1.140  0.2069 -0.6106 -0.8394
  947TIP3   OH224331   0.902   3.698   4.390  0.5447 -0.5234  0.0575
  947TIP3    H124332   0.928   3.776   4.439  1.1681 -0.2595 -0.6625
  947TIP3    H224333   0.952   3.704   4.308  0.2327 -1.4298 -0.2099
  948TIP3   OH224334   1.483   6.462   0.966 -0.4331  0.0371  0.2694
  948TIP3    H124335   1.488   6.549   0.927  1.8906  0.4013  1.2158
  948TIP3    H224336   1.496   6.401   0.893 -1.4233  0.4910 -0.2939
  949TIP3   OH224337   4.785   5.849  11.589 -0.4038  0.2120 -0.4084
  949TIP3    H124338   4.866   5.815  11.628  0.0187 -1.3207 -2.4829
  949TIP3    H224339   4.804   5.857  11.496 -2.3221  0.8037 -0.7962
  950TIP3   OH224340   5.172   1.417  13.362  0.0283 -0.6981 -0.0305
  950TIP3    H124341   5.127   1.445  13.282  0.1051  0.9433  0.4625
  950TIP3    H224342   5.258   1.389  13.332 -0.2558 -0.9681 -0.6238
  951TIP3   OH224343   3.874   1.059   2.616  0.5918 -0.9203 -0.5810
  951TIP3    H124344   3.874   1.096   2.528  1.0366 -0.0355 -0.2257
  951TIP3    H224345   3.936   1.114   2.665  1.7663 -2.5301 -0.1739
  952TIP3   OH224346   3.622   0.433  16.489  0.3901 -0.3209 -0.4812
  952TIP3    H124347   3.653   0.433  16.580 -0.7592 -0.0527 -0.0802
  952TIP3    H224348   3.555   0.501  16.486  1.3496  0.6103 -1.8733
  953TIP3   OH224349   4.264   2.856  11.004  0.7394 -0.5017  0.1565
  953TIP3    H124350   4.257   2.894  10.916  0.4168  1.0231  0.8160
  953TIP3    H224351   4.174   2.853  11.036  0.9569 -0.1605  0.8019
  954TIP3   OH224352   3.017   6.702  16.055  0.6593  0.0587 -0.0366
  954TIP3    H124353   3.023   6.650  15.975  0.9037  0.9310 -0.6032
  954TIP3    H224354   2.953   6.655  16.109 -0.5714  0.1794 -1.3202
  955TIP3   OH224355   5.297   4.815  12.194  0.2315 -0.8081 -0.4183
  955TIP3    H124356   5.206   4.788  12.182 -0.0338 -0.1091 -0.0168
  955TIP3    H224357   5.292   4.905  12.227  0.9650 -1.6672  2.3244
  956TIP3   OH224358   3.678   3.526   5.557 -0.1008  0.0788 -0.0987
  956TIP3    H124359   3.653   3.608   5.600 -0.0165  1.4980 -2.5614
  956TIP3    H224360   3.618   3.520   5.482 -0.9129 -2.7876  0.6520
  957TIP3   OH224361   6.621   1.004  16.867  0.0227  0.4226 -0.3508
  957TIP3    H124362   6.659   1.005  16.955 -0.2542 -0.0565 -0.2305
  957TIP3    H224363   6.678   1.063  16.817  0.1823  0.6957  0.1451
  958TIP3   OH224364   2.031   1.605   3.526  0.2224  0.0358 -0.2089
  958TIP3    H124365   1.936   1.596   3.518  0.1836  0.5813 -0.4365
  958TIP3    H224366   2.066   1.542   3.463 -0.0092  0.6202 -0.9306
  959TIP3   OH224367   3.885   0.007  10.930  0.8739 -0.2136  0.0498
  959TIP3    H124368   3.969  -0.033  10.910  0.8505  0.0003 -0.5007
  959TIP3    H224369   3.874   0.076  10.864 -0.7217 -1.6443 -1.2728
  960TIP3   OH224370   4.934   3.600  13.619  0.0001 -0.2442 -0.0123
  960TIP3    H124371   4.906   3.534  13.682  1.3166 -1.4535 -0.6047
  960TIP3    H224372   4.854   3.628  13.576 -0.8739  0.3424  1.9070
  961TIP3   OH224373   2.091   1.492   0.724 -0.1219 -0.7755 -0.4344
  961TIP3    H124374   2.077   1.454   0.810 -0.4137  1.9944  0.8711
  961TIP3    H224375   2.006   1.487   0.680 -0.2309 -1.2939 -0.1575
  962TIP3   OH224376   6.215   2.678  10.953  0.0315 -0.0037 -0.0549
  962TIP3    H124377   6.126   2.708  10.966  0.3784  0.4728  1.4965
  962TIP3    H224378   6.227   2.677  10.858 -1.5324  0.1388 -0.2775
  963TIP3   OH224379   6.353   2.685   0.436 -0.0883 -0.0668  0.2025
  963TIP3    H124380   6.292   2.634   0.383  0.2404 -0.1740 -0.0774
  963TIP3    H224381   6.301   2.758   0.469 -0.0721  0.5609 -1.0900
  964TIP3   OH224382   2.299   5.437  10.406 -0.1860  0.3241 -0.2764
  964TIP3    H124383   2.310   5.495  10.482  1.1705  1.0285 -0.9583
  964TIP3    H224384   2.375   5.457  10.351  0.9461 -2.8772 -0.0479
  965TIP3   OH224385   2.256   2.650  16.721 -0.6639 -0.4334  0.1148
  965TIP3    H124386   2.164   2.625  16.732 -0.3494 -2.3552 -1.1014
  965TIP3    H224387   2.303   2.597  16.785 -0.2298 -0.9265 -0.6019
  966TIP3   OH224388   1.680   2.419  13.930 -0.0405  1.0222  0.2136
  966TIP3    H124389   1.627   2.341  13.942  1.6479 -0.7973 -2.8249
  966TIP3    H224390   1.672   2.440  13.837  2.9906  1.6991 -0.0261
  967TIP3   OH224391   5.354   2.389  17.086  0.1580  0.1371  0.0371
  967TIP3    H124392   5.384   2.464  17.138 -2.3639  0.6290  0.9012
  967TIP3    H224393   5.426   2.372  17.025  2.5436  0.6177  2.5320
  968TIP3   OH224394   4.555   6.723   1.946 -0.0291  0.0052 -0.0442
  968TIP3    H124395   4.607   6.717   1.866  0.2094 -2.2413  0.2079
  968TIP3    H224396   4.558   6.634   1.983 -2.5856  0.2256  0.8908
  969TIP3   OH224397   0.188   3.792   6.618 -0.1485  0.0227  0.0447
  969TIP3    H124398   0.101   3.779   6.580  0.2054 -0.0444 -0.7667
  969TIP3    H224399   0.214   3.880   6.589  0.9726 -0.7968 -1.6556
  970TIP3   OH224400   6.653   0.512   6.549  0.2535  0.1324 -0.8742
  970TIP3    H124401   6.661   0.602   6.518 -0.3483  0.6293  0.3497
  970TIP3    H224402   6.586   0.473   6.494 -0.4016  0.8316 -0.5847
  971TIP3   OH224403   6.263   1.023   3.828 -0.1377  0.3144  0.3028
  971TIP3    H124404   6.176   0.984   3.835 -0.5764  1.2417  0.3127
  971TIP3    H224405   6.247   1.118   3.835  0.8059  0.5340 -0.2716
  972TIP3   OH224406   2.768   4.679  16.366  0.1503 -0.3310 -0.2478
  972TIP3    H124407   2.704   4.628  16.415  1.1627 -1.5559 -0.1620
  972TIP3    H224408   2.723   4.762  16.347 -0.9193 -0.5691  1.0972
  973TIP3   OH224409   2.623   2.415  15.824 -0.0713 -0.0521  0.2313
  973TIP3    H124410   2.592   2.461  15.746 -1.1914 -1.3745 -0.1512
  973TIP3    H224411   2.639   2.485  15.888 -0.2954  0.9648 -0.7881
  974TIP3   OH224412   0.755   6.417   1.497 -0.7050 -0.4368  0.3731
  974TIP3    H124413   0.847   6.392   1.494 -0.8610 -0.9636 -0.3279
  974TIP3    H224414   0.732   6.439   1.407 -1.1038  0.3187  0.6464
  975TIP3   OH224415   1.699   2.628  11.268  0.4106 -0.5309 -0.1850
  975TIP3    H124416   1.697   2.587  11.354  0.1483 -1.4659 -0.6254
  975TIP3    H224417   1.623   2.591  11.221  1.3555 -1.1403 -1.2967
  976TIP3   OH224418   3.299   2.873  12.998 -0.1509  0.6638  0.4861
  976TIP3    H124419   3.362   2.943  13.013  1.7022 -1.1159  1.5327
  976TIP3    H224420   3.282   2.876  12.903  2.2059  0.7002  0.0003
  977TIP3   OH224421   0.640   5.604   1.805  0.4825  0.3307 -0.3601
  977TIP3    H124422   0.707   5.667   1.778  0.6417  0.9046  1.3024
  977TIP3    H224423   0.648   5.599   1.900  0.2935 -2.0191 -0.4121
  978TIP3   OH224424   4.386   3.225   6.570 -0.0291 -0.0514  0.7951
  978TIP3    H124425   4.321   3.197   6.506  0.7787 -0.9553  0.3422
  978TIP3    H224426   4.435   3.294   6.525 -0.1456  0.0540  0.8308
  979TIP3   OH224427   3.444   0.645  16.516 -0.7577 -0.4269  0.2127
  979TIP3    H124428   3.505   0.715  16.540  0.0454 -1.1900  0.4213
  979TIP3    H224429   3.381   0.688  16.458 -1.3591  0.9071  1.7764
  980TIP3   OH224430   2.516   2.277   3.012  0.5109 -0.2960  0.2203
  980TIP3    H124431   2.580   2.252   3.079 -0.1958 -1.2370  0.5669
  980TIP3    H224432   2.431   2.275   3.057 -0.0449 -1.4895 -0.8100
  981TIP3   OH224433   2.284   4.382   3.467 -0.6870  0.5075 -0.3154
  981TIP3    H124434   2.246   4.458   3.511 -0.4648 -0.6261  1.9774
  981TIP3    H224435   2.373   4.376   3.501 -0.2487 -0.0321 -1.4954
  982TIP3   OH224436   0.581   5.345  11.758  0.1611 -0.2512  0.5232
  982TIP3    H124437   0.603   5.438  11.750 -1.5123  0.1376  0.0050
  982TIP3    H224438   0.583   5.328  11.852 -1.1639  0.7636  0.7613
  983TIP3   OH224439   3.884   1.583  16.890  0.0186 -0.3423  0.4090
  983TIP3    H124440   3.943   1.543  16.826 -0.0563 -0.6048  0.5043
  983TIP3    H224441   3.808   1.609  16.838  0.5277  0.6949  0.1453
  984TIP3   OH224442   1.019   2.805   0.883  0.8248  0.6848 -0.2837
  984TIP3    H124443   1.034   2.716   0.917 -1.0993  0.5336  0.3406
  984TIP3    H224444   1.096   2.854   0.909  0.2453  0.1468  2.9310
  985TIP3   OH224445   2.761   0.206   2.218  0.2660 -0.0680 -0.1308
  985TIP3    H124446   2.844   0.254   2.222  0.5865 -0.3772 -2.0712
  985TIP3    H224447   2.775   0.128   2.272  1.1953 -0.0181 -0.2912
  986TIP3   OH224448   2.550   4.617   6.344  0.4161 -0.5302 -0.6481
  986TIP3    H124449   2.494   4.612   6.266  0.1597 -0.4049 -0.4765
  986TIP3    H224450   2.616   4.550   6.331  0.3380 -0.5502 -0.9475
  987TIP3   OH224451   4.401   0.005   5.889  0.1160  0.3310  0.1703
  987TIP3    H124452   4.347   0.080   5.862 -0.0279  0.1848  0.0539
  987TIP3    H224453   4.421   0.023   5.981  1.0022  1.0730 -0.1533
  988TIP3   OH224454   1.444   4.957   0.991 -0.0226  0.1733 -0.2026
  988TIP3    H124455   1.472   4.990   0.906 -0.2696  0.0603 -0.3304
  988TIP3    H224456   1.456   4.862   0.984  2.2916  0.3139  0.7411
  989TIP3   OH224457   0.995   1.210  11.958  0.1124 -0.4124 -0.4822
  989TIP3    H124458   1.037   1.275  12.014 -0.6527  0.0649 -0.4428
  989TIP3    H224459   1.040   1.128  11.978  0.4197 -0.0852  0.1990
  990TIP3   OH224460   5.998   6.102  13.770 -0.5741  0.8530  0.1781
  990TIP3    H124461   5.998   6.149  13.853 -1.3255  0.6914  0.2812
  990TIP3    H224462   6.089   6.078  13.755 -0.6662 -0.7397  1.8828
  991TIP3   OH224463   1.966   6.496   5.671  0.2042 -0.0775  0.2811
  991TIP3    H124464   2.051   6.521   5.707  0.6439 -1.8369  0.5403
  991TIP3    H224465   1.987   6.429   5.606 -0.8643  0.6858 -0.9083
  992TIP3   OH224466   4.405   1.955   1.684  0.0820 -0.1150 -0.4868
  992TIP3    H124467   4.362   2.036   1.655 -0.3057  0.2128  0.8843
  992TIP3    H224468   4.382   1.949   1.777  0.2564 -1.7218 -0.5297
  993TIP3   OH224469   3.494   0.540  12.509 -0.7510 -0.8258  0.3355
  993TIP3    H124470   3.477   0.602  12.579 -0.3696 -0.3117 -0.0217
  993TIP3    H224471   3.414   0.541  12.456 -0.1686  0.5514 -0.5623
  994TIP3   OH224472   1.534   2.134   6.062  0.4864  0.2589  0.2844
  994TIP3    H124473   1.545   2.042   6.040  0.9041  0.3276  0.1941
  994TIP3    H224474   1.618   2.160   6.099  0.6957  0.8394 -0.5554
  995TIP3   OH224475   4.258   0.088  15.837 -0.1487  0.6161  0.0881
  995TIP3    H124476   4.342   0.059  15.873 -0.5238  0.7663  1.1375
  995TIP3    H224477   4.224   0.012  15.790 -0.3016 -0.0930  1.2991
  996TIP3   OH224478   4.216   1.150  13.781 -0.1944 -0.0662 -0.4508
  996TIP3    H124479   4.222   1.080  13.846  2.9960  1.0699  0.6456
  996TIP3    H224480   4.222   1.104  13.697  1.6319 -1.1906  0.2350
  997TIP3   OH224481   3.954   5.927   0.425  0.5596 -0.8010 -0.2601
  997TIP3    H124482   4.029   5.885   0.468  0.6614  0.5400  0.9446
  997TIP3    H224483   3.909   5.973   0.495  0.2870  0.8552 -1.4683
  998TIP3   OH224484   6.023   0.936  14.301  0.0255  0.6329  0.1443
  998TIP3    H124485   5.945   0.891  14.270 -0.6726  1.2958  0.8894
  998TIP3    H224486   6.083   0.934  14.227 -0.8691  0.5170 -0.5923
  999TIP3   OH224487   6.322   3.038   1.455 -0.2111  0.5739 -0.5700
  999TIP3    H124488   6.272   3.085   1.387  0.6677  2.2174 -0.1444
  999TIP3    H224489   6.411   3.034   1.421  0.0706  0.6945  0.1313
 1000TIP3   OH224490   1.675   1.567  12.556  0.5685 -0.2848  0.0500
 1000TIP3    H124491   1.597   1.517  12.530 -0.8594  1.2465  1.1326
 1000TIP3    H224492   1.712   1.598  12.473  0.8886 -2.1744 -0.5775
 1001TIP3   OH224493   5.256   3.798  12.187 -0.2174  0.1309  0.1394
 1001TIP3    H124494   5.200   3.864  12.148 -3.1977 -1.2037  1.8131
 1001TIP3    H224495   5.218   3.715  12.159  2.0416 -0.8913 -0.0828
 1002TIP3   OH224496   5.761   4.668   4.004  0.8141  0.2662  0.4819
 1002TIP3    H124497   5.827   4.712   4.058 -0.2814  2.8769 -0.1044
 1002TIP3    H224498   5.788   4.686   3.914 -1.2223  2.5758  0.1935
 1003TIP3   OH224499   4.965   0.529  15.729 -0.2434  0.1629 -0.4020
 1003TIP3    H124500   4.991   0.583  15.803 -0.7029  0.8779 -0.7573
 1003TIP3    H224501   4.989   0.579  15.652  0.2057 -0.5639 -0.7442
 1004TIP3   OH224502   5.849   0.219   5.227  0.5378  0.1317  0.4143
 1004TIP3    H124503   5.897   0.204   5.308 -1.5628 -0.3001  1.6516
 1004TIP3    H224504   5.809   0.134   5.207 -1.5175  0.9598  0.7107
 1005TIP3   OH224505   5.077   5.444   4.442  0.0132 -0.1828 -0.1626
 1005TIP3    H124506   5.163   5.445   4.485 -0.8368 -1.7418  1.7477
 1005TIP3    H224507   5.019   5.402   4.505 -1.3011 -3.0361 -2.9784
 1006TIP3   OH224508   0.648   3.637  12.094  0.1619 -0.0050 -0.2224
 1006TIP3    H124509   0.605   3.631  12.009 -0.2971 -0.5080  0.0337
 1006TIP3    H224510   0.611   3.564  12.144  0.7681  0.0090  0.2542
 1007TIP3   OH224511   5.470   3.543  15.642 -0.0743 -0.0506  0.4907
 1007TIP3    H124512   5.557   3.524  15.608  1.2253  1.7569  2.5681
 1007TIP3    H224513   5.448   3.467  15.697 -0.9317 -1.6108 -1.8514
 1008TIP3   OH224514   5.125   5.550  12.119  0.4138  0.5480 -0.0900
 1008TIP3    H124515   5.146   5.496  12.196 -1.4679 -0.6877 -0.3666
 1008TIP3    H224516   5.077   5.491  12.061 -1.5215  2.4225 -0.5376
 1009TIP3   OH224517   3.968   3.689   0.617 -0.1776  1.0226  0.2815
 1009TIP3    H124518   3.962   3.767   0.672 -1.1048  1.6803 -0.7020
 1009TIP3    H224519   3.928   3.715   0.534 -0.3950 -0.4737 -0.1136
 1010TIP3   OH224520   4.718   6.063   5.324  0.1201  0.1992  0.8821
 1010TIP3    H124521   4.633   6.106   5.316  0.5003  0.9582  0.8677
 1010TIP3    H224522   4.782   6.133   5.313  0.8879 -0.9069 -3.5242
 1011TIP3   OH224523   0.523   6.576   4.724  0.6300  0.0273  0.2592
 1011TIP3    H124524   0.486   6.503   4.675  0.7681  0.9979 -1.3387
 1011TIP3    H224525   0.470   6.651   4.700  3.6993  1.5768 -2.4902
 1012TIP3   OH224526   6.302   5.802  12.106  0.0170 -0.9586 -0.1133
 1012TIP3    H124527   6.331   5.810  12.015  0.8872 -2.4534  0.0118
 1012TIP3    H224528   6.287   5.893  12.133 -0.8807 -0.5082 -1.9238
 1013TIP3   OH224529   5.557   5.653  13.642 -0.7635  0.0161 -0.1238
 1013TIP3    H124530   5.478   5.659  13.695 -0.5284 -0.8503  0.3443
 1013TIP3    H224531   5.570   5.559  13.628  0.6527  0.0642  0.5713
 1014TIP3   OH224532   0.596   1.961   1.755  0.3418  0.3898  0.1267
 1014TIP3    H124533   0.626   1.873   1.779 -2.5798 -0.0858  2.5137
 1014TIP3    H224534   0.541   1.947   1.678 -0.1883  0.1027  0.5544
 1015TIP3   OH224535   6.704   1.956  16.191  0.8220 -0.3712 -0.7239
 1015TIP3    H124536   6.658   2.022  16.140  0.1855  1.2867  1.7846
 1015TIP3    H224537   6.637   1.891  16.213 -0.3460  1.6206  2.2384
 1016TIP3   OH224538   1.909   1.847  13.627 -0.2086  0.3692 -0.2668
 1016TIP3    H124539   1.965   1.792  13.573 -1.0034 -1.5848  0.7739
 1016TIP3    H224540   1.822   1.808  13.619 -0.4410  0.2975  1.9750
 1017TIP3   OH224541   5.956   4.063   1.519  0.3096 -0.1063  0.3775
 1017TIP3    H124542   5.866   4.098   1.520 -0.1718 -1.2211  2.9549
 1017TIP3    H224543   5.998   4.108   1.446 -2.0415  1.2266 -0.2586
 1018TIP3   OH224544   2.295   4.544  15.438 -0.2124  0.6173  0.1399
 1018TIP3    H124545   2.281   4.492  15.517 -0.5405 -1.0141 -0.9298
 1018TIP3    H224546   2.388   4.564  15.438  0.1868 -1.0541  0.0057
 1019TIP3   OH224547   5.040   2.733  16.544 -0.3324 -0.1762 -0.0654
 1019TIP3    H124548   5.101   2.660  16.541 -0.9655 -0.7705  0.8866
 1019TIP3    H224549   5.061   2.786  16.467  1.9461  0.1109  0.6892
 1020TIP3   OH224550   6.469   2.779   2.387 -0.4456  0.3584  0.6084
 1020TIP3    H124551   6.440   2.870   2.382 -0.8080  0.1866 -0.8304
 1020TIP3    H224552   6.546   2.781   2.444  0.2426  1.7656 -0.3094
 1021TIP3   OH224553   5.859   2.727  16.297  0.8923 -0.2014  0.4623
 1021TIP3    H124554   5.856   2.784  16.374 -0.7038  0.6061 -0.1439
 1021TIP3    H224555   5.948   2.736  16.264  1.9227 -1.2828  2.6764
 1022TIP3   OH224556   1.377   5.260   5.352  0.6335  0.3315  0.0521
 1022TIP3    H124557   1.370   5.334   5.293  0.3248 -0.0494 -0.3998
 1022TIP3    H224558   1.288   5.244   5.383  0.1486 -1.6147 -2.0791
 1023TIP3   OH224559   4.880   6.190   4.915  0.3153 -0.6081 -0.4676
 1023TIP3    H124560   4.901   6.119   4.976  1.1104 -0.8333 -0.9897
 1023TIP3    H224561   4.930   6.265   4.947 -0.6490 -0.2223  0.1773
 1024TIP3   OH224562   5.083   0.392   2.610 -0.0924  0.3406 -0.3740
 1024TIP3    H124563   5.114   0.301   2.619  3.9917  1.5670 -0.2210
 1024TIP3    H224564   5.025   0.404   2.686  2.2655 -1.1442  1.8526
 1025TIP3   OH224565   5.936   0.209  11.957 -0.0042  0.1049  0.9433
 1025TIP3    H124566   5.934   0.294  12.002 -0.5999 -0.0410  1.2096
 1025TIP3    H224567   5.999   0.221  11.886 -1.6763  1.4851 -0.4198
 1026TIP3   OH224568   3.805   2.884  10.489 -0.1357  0.1415 -0.0896
 1026TIP3    H124569   3.759   2.818  10.542  1.1722 -0.6446  0.1456
 1026TIP3    H224570   3.841   2.945  10.554 -0.8476  0.7506 -0.2676
 1027TIP3   OH224571   6.217   5.651   0.619 -0.0828 -0.3853 -0.0738
 1027TIP3    H124572   6.251   5.563   0.599 -0.8475 -0.7783  0.3100
 1027TIP3    H224573   6.246   5.705   0.545 -0.5704 -1.2073 -0.8855
 1028TIP3   OH224574   6.679   0.240  12.412  0.2697  0.1252  0.2409
 1028TIP3    H124575   6.599   0.293  12.415  0.8284  0.9553  1.3613
 1028TIP3    H224576   6.749   0.303  12.396  0.8551 -0.3938  0.6987
 1029TIP3   OH224577   1.961   6.636  16.292  0.3103  0.1982 -0.4534
 1029TIP3    H124578   1.890   6.684  16.249 -0.3606  0.0605  0.4509
 1029TIP3    H224579   1.918   6.592  16.366  1.3735  0.2834  0.2372
 1030TIP3   OH224580   2.860   1.267  14.559 -0.7558 -0.2586 -0.0961
 1030TIP3    H124581   2.799   1.285  14.488 -1.1319  0.4046  0.3914
 1030TIP3    H224582   2.921   1.203  14.522 -0.4382  0.7054 -1.2901
 1031TIP3   OH224583   4.131   4.257  15.858  0.2470 -0.0791  0.2090
 1031TIP3    H124584   4.217   4.256  15.816  0.7549 -1.1834  1.2334
 1031TIP3    H224585   4.120   4.169  15.893 -1.2627  0.0751  0.1921
 1032TIP3   OH224586   2.710   1.330  10.624  0.0228  0.0565 -0.1104
 1032TIP3    H124587   2.772   1.368  10.687  0.5720 -0.4618 -0.3225
 1032TIP3    H224588   2.751   1.247  10.598  0.4014  0.8058 -2.0700
 1033TIP3   OH224589   0.992   1.154  11.304 -0.7098  0.1775 -0.1141
 1033TIP3    H124590   0.928   1.088  11.331 -0.9354  0.1908 -0.5918
 1033TIP3    H224591   1.058   1.153  11.373 -0.5733 -0.7323 -0.2423
 1034TIP3   OH224592   2.235   0.734   2.843 -0.3157 -0.5912  0.1132
 1034TIP3    H124593   2.302   0.692   2.789 -1.0543 -1.2540 -0.3038
 1034TIP3    H224594   2.153   0.694   2.816 -1.3567  2.4309 -1.6145
 1035TIP3   OH224595   4.483   1.938   0.977 -0.0318  0.1827 -0.5752
 1035TIP3    H124596   4.566   1.986   0.974  0.8772 -1.3315 -0.6584
 1035TIP3    H224597   4.508   1.846   0.967 -1.5202 -0.5203  1.4444
 1036TIP3   OH224598   3.186   5.905  15.065 -0.1846  0.2818 -0.1493
 1036TIP3    H124599   3.183   5.833  15.128  1.3227 -0.2507 -0.6398
 1036TIP3    H224600   3.110   5.959  15.087  0.4200  0.2777  2.3043
 1037TIP3   OH224601   6.748   4.433   1.806  0.4528  0.0983 -0.1860
 1037TIP3    H124602   6.811   4.376   1.851 -0.2654 -2.3589 -2.0685
 1037TIP3    H224603   6.685   4.373   1.766 -1.8128  2.3580 -0.2938
 1038TIP3   OH224604   2.684   6.541  14.004 -0.1755  0.2951 -0.4096
 1038TIP3    H124605   2.625   6.526  13.930  0.0174 -1.8304 -0.2071
 1038TIP3    H224606   2.717   6.454  14.026  0.4701  0.9901  1.6125
 1039TIP3   OH224607   6.517   4.337  14.961 -0.1029  0.1865 -0.8644
 1039TIP3    H124608   6.556   4.398  14.898  0.1945  0.8517 -0.0497
 1039TIP3    H224609   6.437   4.382  14.991  0.5050  0.5163  0.2895
 1040TIP3   OH224610   3.624   0.256  11.648 -0.8190  0.9223 -0.3724
 1040TIP3    H124611   3.711   0.293  11.665  0.4189 -0.8182 -2.4762
 1040TIP3    H224612   3.608   0.273  11.556 -1.6298 -0.8433 -0.6060
 1041TIP3   OH224613   4.387   1.119   0.241 -0.0459 -0.3797 -0.2564
 1041TIP3    H124614   4.392   1.214   0.235 -1.9604 -0.1310  1.1878
 1041TIP3    H224615   4.314   1.095   0.184 -1.1435 -0.6842  1.2166
 1042TIP3   OH224616   0.114   3.954   2.618 -0.3279 -0.0232 -0.1581
 1042TIP3    H124617   0.030   3.938   2.576 -0.7145  0.1875  0.5297
 1042TIP3    H224618   0.159   3.869   2.615 -0.1382  0.1011 -1.4333
 1043TIP3   OH224619   3.243   5.595  14.346  0.7181 -0.7892  0.1077
 1043TIP3    H124620   3.298   5.673  14.340 -1.1379  0.7021  1.3699
 1043TIP3    H224621   3.245   5.558  14.257 -0.2863  2.0957 -1.2482
 1044TIP3   OH224622   4.353   1.012  11.908 -0.5118 -0.3151  0.0241
 1044TIP3    H124623   4.437   0.965  11.909 -0.6407 -0.5453  0.2658
 1044TIP3    H224624   4.322   1.004  11.818  0.3854  0.9668 -0.4315
 1045TIP3   OH224625   6.452   4.898   5.054  0.0470 -0.0648 -0.1666
 1045TIP3    H124626   6.500   4.815   5.056  1.5291  0.7814  1.5595
 1045TIP3    H224627   6.520   4.965   5.048 -1.0729  1.0886 -0.3924
 1046TIP3   OH224628   5.452   1.982  12.841  0.1102 -0.0705  0.1541
 1046TIP3    H124629   5.377   1.958  12.895  0.2572 -1.0139 -0.0417
 1046TIP3    H224630   5.527   1.972  12.899 -0.0202  2.5078  0.8604
 1047TIP3   OH224631   2.294   5.560  13.901 -0.0228  0.6813  0.2111
 1047TIP3    H124632   2.281   5.475  13.945 -0.4762 -0.3007 -1.6872
 1047TIP3    H224633   2.272   5.625  13.968 -1.0386 -0.7244  1.3250
 1048TIP3   OH224634   1.927   3.860  16.747 -0.1706 -0.3486  0.9779
 1048TIP3    H124635   2.022   3.848  16.745  0.2745  2.1379  2.9690
 1048TIP3    H224636   1.912   3.935  16.690 -0.9151 -0.5522  0.9047
 1049TIP3   OH224637   6.506   3.442  11.150 -0.3661 -0.1271 -0.1241
 1049TIP3    H124638   6.437   3.497  11.111  1.2391  1.3409 -1.0241
 1049TIP3    H224639   6.571   3.432  11.081  0.9343 -0.3858  1.0925
 1050TIP3   OH224640   3.172   4.825   1.389  0.0812 -0.0536  0.6258
 1050TIP3    H124641   3.251   4.794   1.345  0.1545 -0.3242  0.9390
 1050TIP3    H224642   3.185   4.919   1.399 -1.2415  0.5971 -2.5984
 1051TIP3   OH224643   5.153   6.445  14.035  0.3229  0.4556  0.2634
 1051TIP3    H124644   5.101   6.401  13.968 -0.0906 -0.1965  1.0020
 1051TIP3    H224645   5.233   6.393  14.041  0.4565  0.6430  0.1230
 1052TIP3   OH224646   1.076   4.651  16.501  0.0024  0.0395 -0.4601
 1052TIP3    H124647   1.011   4.582  16.510 -1.4732  1.5790  1.5903
 1052TIP3    H224648   1.061   4.686  16.413  0.0355 -1.4853 -1.0963
 1053TIP3   OH224649   6.445   6.319   1.337 -0.1591  0.7999  0.7653
 1053TIP3    H124650   6.414   6.269   1.413  0.9118  0.9520  1.3381
 1053TIP3    H224651   6.519   6.370   1.372  1.3393 -0.2546 -0.7026
 1054TIP3   OH224652   0.162   3.371   3.666  0.8335  0.0960 -0.6219
 1054TIP3    H124653   0.228   3.335   3.725  1.1314  2.2650  0.4647
 1054TIP3    H224654   0.209   3.389   3.585  1.3313  0.5268 -0.2475
 1055TIP3   OH224655   2.900   0.616   2.060  0.2993  0.2380  0.6743
 1055TIP3    H124656   2.982   0.569   2.049  1.6201  2.3597  0.8585
 1055TIP3    H224657   2.841   0.552   2.100  2.0262 -1.1629  1.1118
 1056TIP3   OH224658   1.972   6.178  17.114 -0.0843  0.2864  0.4361
 1056TIP3    H124659   1.910   6.147  17.049  0.0871 -0.6559  0.7036
 1056TIP3    H224660   2.037   6.228  17.065  0.0983 -0.5007 -0.1228
 1057TIP3   OH224661   4.280   2.085  13.471  1.2506  0.1661  0.3003
 1057TIP3    H124662   4.321   2.117  13.552  2.6258 -0.4600 -0.1059
 1057TIP3    H224663   4.233   2.006  13.498  0.0261  1.0419  0.8265
 1058TIP3   OH224664   0.012   6.663  15.858  1.0991 -0.4725 -0.3074
 1058TIP3    H124665   0.089   6.648  15.802  2.6753  2.3133  0.9329
 1058TIP3    H224666   0.037   6.627  15.943  1.9793  2.2138  0.6646
 1059TIP3   OH224667   1.857   5.819   4.666 -0.0814  0.0750 -0.2433
 1059TIP3    H124668   1.914   5.743   4.674  0.1273  0.1575 -0.9077
 1059TIP3    H224669   1.853   5.855   4.755  1.4234  0.4419 -0.3053
 1060TIP3   OH224670   5.791   0.277   0.157 -0.1308 -0.2522  0.2797
 1060TIP3    H124671   5.850   0.271   0.081 -1.2125  3.3320 -1.0560
 1060TIP3    H224672   5.835   0.339   0.215 -1.6633  1.0602  0.0997
 1061TIP3   OH224673   3.752   5.033   4.265 -0.7619 -0.4600  0.2050
 1061TIP3    H124674   3.805   4.975   4.320  1.8470  1.4376 -0.1276
 1061TIP3    H224675   3.707   5.091   4.326 -0.5260 -0.5140  0.4309
 1062TIP3   OH224676   0.202   3.835  12.704  0.0939 -0.1303  0.0446
 1062TIP3    H124677   0.193   3.890  12.782 -1.6796 -1.2734  0.7048
 1062TIP3    H224678   0.112   3.811  12.681  0.5329  0.5871 -2.7057
 1063TIP3   OH224679   2.853   5.024  17.052  0.6310  0.1247  0.2222
 1063TIP3    H124680   2.767   5.027  17.093  0.9806 -1.5597  1.1616
 1063TIP3    H224681   2.888   4.938  17.075  1.7100 -0.0844 -1.9238
 1064TIP3   OH224682   3.338   5.282   6.574  0.0130 -0.0500  0.1109
 1064TIP3    H124683   3.248   5.315   6.571  0.0098 -0.0419  0.3001
 1064TIP3    H224684   3.337   5.205   6.518  0.1669  0.6144 -0.8467
 1065TIP3   OH224685   0.432   5.580   3.308  0.0337  0.1915 -0.3174
 1065TIP3    H124686   0.461   5.623   3.389 -2.7026 -2.6369  2.4375
 1065TIP3    H224687   0.355   5.631   3.280 -0.6269 -0.3535  0.4651
 1066TIP3   OH224688   4.701   2.829  14.925 -0.4106  0.0083  0.2974
 1066TIP3    H124689   4.711   2.751  14.979  0.2117 -0.1418 -0.0270
 1066TIP3    H224690   4.790   2.861  14.912 -0.4307 -0.5665 -1.5503
 1067TIP3   OH224691   5.293   2.032  12.596 -0.1708  0.3865  0.3281
 1067TIP3    H124692   5.218   1.981  12.628  1.0494 -2.5931 -1.1749
 1067TIP3    H224693   5.348   2.043  12.673 -1.2524  0.9805  1.0462
 1068TIP3   OH224694   1.034   5.959  13.593 -0.0388 -0.4120 -0.4968
 1068TIP3    H124695   1.128   5.943  13.586  0.4088  0.5247  2.2271
 1068TIP3    H224696   1.028   6.050  13.623 -1.7452 -0.8904  0.7187
 1069TIP3   OH224697   2.742   1.660   0.227  0.1226 -0.0460 -0.9973
 1069TIP3    H124698   2.783   1.574   0.220 -0.0447 -0.0453 -2.3164
 1069TIP3    H224699   2.747   1.696   0.139 -0.1244  1.1597 -0.5367
 1070TIP3   OH224700   3.770   0.876  16.990  0.1289  0.4717 -0.0309
 1070TIP3    H124701   3.677   0.873  16.968 -0.3031 -0.4685  1.7684
 1070TIP3    H224702   3.788   0.968  17.009 -0.6958  0.5079  0.6114
 1071TIP3   OH224703   3.891   6.141   3.576  0.0646 -0.0663  0.1120
 1071TIP3    H124704   3.830   6.067   3.572 -0.1231  0.1287 -1.5627
 1071TIP3    H224705   3.967   6.107   3.622 -0.9056 -0.6128  1.3850
 1072TIP3   OH224706   0.695   6.186   1.684 -0.0059  0.6846  0.2119
 1072TIP3    H124707   0.672   6.265   1.635  1.3785  2.5341  2.3802
 1072TIP3    H224708   0.789   6.174   1.667  0.0063  0.0800  0.6743
 1073TIP3   OH224709   2.764   5.972   2.328  0.6966  0.4035  0.0650
 1073TIP3    H124710   2.705   6.015   2.266  0.6221  0.2387  0.0199
 1073TIP3    H224711   2.829   6.039   2.351 -0.4825  1.1266  1.4296
 1074TIP3   OH224712   0.588   4.057  11.704  0.1261 -0.2477 -0.4329
 1074TIP3    H124713   0.681   4.075  11.716 -0.1498  1.3296 -0.4505
 1074TIP3    H224714   0.567   4.091  11.617 -0.3150 -1.2933 -0.7528
 1075TIP3   OH224715   0.279   2.262   4.378  0.0624  0.6480 -0.0600
 1075TIP3    H124716   0.313   2.259   4.467  1.3520 -0.2789 -0.5503
 1075TIP3    H224717   0.350   2.227   4.324 -0.5217  1.5972 -1.5126
 1076TIP3   OH224718   3.769   2.076  16.891  0.1002 -0.7439  0.1993
 1076TIP3    H124719   3.792   2.135  16.819 -2.1875 -1.8260 -1.5360
 1076TIP3    H224720   3.850   2.068  16.942  1.0686  2.1956 -0.6573
 1077TIP3   OH224721   0.907   2.061  15.161 -0.3296 -0.3288  0.3654
 1077TIP3    H124722   0.931   2.093  15.074  0.8317  0.7663  1.0678
 1077TIP3    H224723   0.952   2.119  15.222 -0.7174 -1.3892  1.7123
 1078TIP3   OH224724   1.033   4.411  17.202 -0.1699  0.0621  0.2049
 1078TIP3    H124725   1.016   4.495  17.244  0.5109  0.2774  0.0601
 1078TIP3    H224726   0.958   4.356  17.228 -0.6836  0.7431  0.1923
 1079TIP3   OH224727   1.341   5.406  14.482  0.1929 -0.2431  0.1695
 1079TIP3    H124728   1.311   5.442  14.566  2.9807 -0.0024  1.1437
 1079TIP3    H224729   1.413   5.348  14.506  0.5426 -0.7857 -2.0347
 1080TIP3   OH224730   3.018   5.556  14.484  0.2668 -0.0037 -0.9594
 1080TIP3    H124731   3.009   5.461  14.470 -0.3697 -0.5415  2.3616
 1080TIP3    H224732   3.099   5.579  14.439  1.0038 -2.3457 -0.9868
 1081TIP3   OH224733   0.004   3.685   6.409  0.8426  0.1230 -0.2479
 1081TIP3    H124734   0.039   3.659   6.324 -0.0015 -0.3871 -0.4438
 1081TIP3    H224735   0.002   3.604   6.460  1.3076  0.4155  0.2643
 1082TIP3   OH224736   1.312   6.123   4.860  0.0654  0.1148 -0.0475
 1082TIP3    H124737   1.226   6.084   4.876 -0.6960  1.5581 -0.4987
 1082TIP3    H224738   1.309   6.208   4.905  1.5304 -0.1173  0.5563
 1083TIP3   OH224739   4.260   4.668  11.161  0.9390  0.7683 -0.2421
 1083TIP3    H124740   4.329   4.608  11.133 -0.7493 -1.1501 -0.4956
 1083TIP3    H224741   4.202   4.676  11.085 -0.8313 -0.2772  0.9072
 1084TIP3   OH224742   6.101   5.550  12.585 -0.4219 -0.5191 -0.0429
 1084TIP3    H124743   6.183   5.590  12.615 -1.0328  0.3366  0.5655
 1084TIP3    H224744   6.114   5.456  12.595 -0.4581 -0.3142  2.6954
 1085TIP3   OH224745   1.955   0.278   4.341  0.2917 -0.3510  0.6217
 1085TIP3    H124746   1.927   0.273   4.433 -2.3634  0.1295 -0.0992
 1085TIP3    H224747   1.880   0.314   4.294  1.3302 -1.2156 -1.8751
 1086TIP3   OH224748   3.057   6.037   4.670 -0.8032  0.5488  0.6064
 1086TIP3    H124749   3.113   5.969   4.631 -0.1952  0.7104  1.1882
 1086TIP3    H224750   2.968   6.003   4.660 -0.5266 -0.2026  0.6274
 1087TIP3   OH224751   3.474   0.347   0.692  0.3273 -0.6317  0.0469
 1087TIP3    H124752   3.510   0.291   0.762  0.8443 -0.0187  0.2810
 1087TIP3    H224753   3.497   0.436   0.719  2.6305 -0.4938 -2.0675
 1088TIP3   OH224754   4.188   1.393  12.232  0.1242 -0.2049 -0.1920
 1088TIP3    H124755   4.208   1.374  12.140  1.7874 -1.9130  0.4593
 1088TIP3    H224756   4.099   1.361  12.245 -0.8601  1.7168 -1.5943
 1089TIP3   OH224757   2.730   2.114   4.516 -0.2867  0.1126 -0.3113
 1089TIP3    H124758   2.685   2.198   4.516 -0.1379  0.2060 -1.1652
 1089TIP3    H224759   2.772   2.109   4.430  1.0409 -0.1321  0.3255
 1090TIP3   OH224760   5.733   3.414   5.004  0.1191  0.2878 -0.1995
 1090TIP3    H124761   5.788   3.452   4.936 -0.1080  0.1870 -0.4393
 1090TIP3    H224762   5.665   3.366   4.957 -0.6971  1.1369  0.0769
 1091TIP3   OH224763   4.202   6.011   0.263 -0.2291 -0.6466 -0.0228
 1091TIP3    H124764   4.115   6.034   0.294  0.7523  1.6830  1.2562
 1091TIP3    H224765   4.213   6.062   0.183  1.0982  1.7268  1.5712
 1092TIP3   OH224766   5.025   6.000   3.795  0.1049 -0.5809 -0.1093
 1092TIP3    H124767   5.051   6.087   3.767  0.3214 -0.1487  1.3501
 1092TIP3    H224768   5.098   5.969   3.849 -0.6606 -0.9972  0.7143
 1093TIP3   OH224769   4.130   4.800  16.484  0.2192 -0.7407 -0.0572
 1093TIP3    H124770   4.116   4.710  16.514  1.7593 -0.3876  1.9046
 1093TIP3    H224771   4.218   4.799  16.446  0.1723 -0.0925 -0.1917
 1094TIP3   OH224772   6.426   3.498  16.582 -0.1783 -0.0940  0.3454
 1094TIP3    H124773   6.514   3.475  16.553  0.1523 -0.2946  1.4323
 1094TIP3    H224774   6.367   3.455  16.521  0.4646  1.2792 -1.3308
 1095TIP3   OH224775   5.209   5.408  12.386  0.5460 -0.6986  0.3881
 1095TIP3    H124776   5.206   5.324  12.339  1.7942 -0.1824 -0.6832
 1095TIP3    H224777   5.121   5.418  12.423  0.4047 -2.5334  0.6702
 1096TIP3   OH224778   5.278   3.857   0.775  0.1944 -0.4026 -0.2268
 1096TIP3    H124779   5.281   3.799   0.851  3.2363  1.5804  1.3554
 1096TIP3    H224780   5.217   3.927   0.801 -0.2410 -0.7101 -0.4140
 1097TIP3   OH224781   0.930   3.537   2.987  0.2663  0.1507  0.2446
 1097TIP3    H124782   0.837   3.560   2.982  0.1277 -0.4828 -0.2721
 1097TIP3    H224783   0.972   3.591   2.920  0.4567  1.2745  1.2514
 1098TIP3   OH224784   2.614   6.021   1.497  0.1537 -0.4239  0.2228
 1098TIP3    H124785   2.553   6.055   1.563  0.9464  1.6134 -0.0040
 1098TIP3    H224786   2.592   5.928   1.489 -1.6739 -0.1541  1.4673
 1099TIP3   OH224787   2.072   5.078  14.096 -0.6800 -0.1131  0.4186
 1099TIP3    H124788   2.102   5.167  14.078  2.4893 -0.6398  2.2455
 1099TIP3    H224789   2.044   5.045  14.011 -0.1859  2.0284 -0.6550
 1100TIP3   OH224790   5.090   5.915  11.816 -0.1580 -0.3402 -0.4973
 1100TIP3    H124791   5.139   5.875  11.888 -1.6577 -1.1033  0.1262
 1100TIP3    H224792   5.065   5.842  11.760 -0.4815  0.0595 -0.8773
 1101TIP3   OH224793   0.911   1.601  15.151  0.3378 -0.2727  0.3553
 1101TIP3    H124794   0.999   1.569  15.173  0.9573  1.1736  0.1202
 1101TIP3    H224795   0.891   1.559  15.067  1.2282  0.1113 -0.0677
 1102TIP3   OH224796   6.157   3.599   5.081 -0.2129  0.0750  0.2638
 1102TIP3    H124797   6.099   3.569   5.012 -0.4032  1.4842 -0.2250
 1102TIP3    H224798   6.151   3.532   5.149 -0.2167 -1.2118 -0.9570
 1103TIP3   OH224799   6.569   5.426   0.552  0.0056 -0.5597  0.2983
 1103TIP3    H124800   6.487   5.376   0.555  0.0651 -0.6917  3.1642
 1103TIP3    H224801   6.626   5.380   0.614  1.1857  1.2459  0.6069
 1104TIP3   OH224802   1.805   1.067  12.929 -0.4547 -0.4966 -0.6528
 1104TIP3    H124803   1.823   0.973  12.918  0.1963 -0.4617  0.0635
 1104TIP3    H224804   1.744   1.071  13.002  1.6659 -0.2230  1.2204
 1105TIP3   OH224805   5.057   0.645   4.544  0.6669  0.0921 -0.3953
 1105TIP3    H124806   5.032   0.608   4.460 -0.3280 -0.4186  0.1084
 1105TIP3    H224807   5.136   0.597   4.569  0.2117 -0.7013 -0.4301
 1106TIP3   OH224808   4.298   2.088   3.849  0.2774 -0.4182  0.6865
 1106TIP3    H124809   4.281   1.998   3.877 -1.7742 -0.3955 -0.3336
 1106TIP3    H224810   4.249   2.098   3.768  3.4766  0.4752 -1.3495
 1107TIP3   OH224811   6.217   1.090   2.665  0.2753  0.1519 -0.2312
 1107TIP3    H124812   6.147   1.043   2.620 -1.8845  1.7427  1.2844
 1107TIP3    H224813   6.260   1.024   2.719 -1.2761 -0.5435  0.2036
 1108TIP3   OH224814   3.936   3.950   0.779  0.1541 -0.3692 -0.3285
 1108TIP3    H124815   4.016   4.000   0.763 -0.8081  0.8388 -1.6268
 1108TIP3    H224816   3.871   4.016   0.803 -0.9070 -1.0970 -1.1088
 1109TIP3   OH224817   2.257   5.652   0.767  0.6642  0.3603  0.5275
 1109TIP3    H124818   2.341   5.649   0.720  0.1477  0.1005 -0.4055
 1109TIP3    H224819   2.245   5.562   0.799 -0.1405 -0.1069 -0.9768
 1110TIP3   OH224820   0.608   1.510   1.527 -0.1719 -0.3935  0.3356
 1110TIP3    H124821   0.605   1.602   1.501  4.4471 -0.3461 -0.8338
 1110TIP3    H224822   0.600   1.461   1.445 -1.5103 -1.0495  0.8253
 1111TIP3   OH224823   0.894   1.766   6.631  0.9283  0.0483 -0.0519
 1111TIP3    H124824   0.957   1.819   6.680 -0.1181  1.5770 -0.2944
 1111TIP3    H224825   0.939   1.683   6.618  3.6448  1.6061 -1.6938
 1112TIP3   OH224826   4.438   6.203  13.193  0.0433  0.0196 -0.2389
 1112TIP3    H124827   4.428   6.156  13.110  0.5462 -0.3861 -0.0804
 1112TIP3    H224828   4.515   6.162  13.234 -0.4015 -0.0105  0.5741
 1113TIP3   OH224829   4.910   6.076   4.657  0.4160 -0.0123 -0.0983
 1113TIP3    H124830   4.882   6.106   4.744 -0.3812 -0.4964 -0.1820
 1113TIP3    H224831   4.838   6.021   4.626  0.4293  0.6510 -1.3334
 1114TIP3   OH224832   1.469   2.478   3.297  0.2380 -0.5969 -0.0671
 1114TIP3    H124833   1.427   2.494   3.213  0.0596 -1.5317 -0.1690
 1114TIP3    H224834   1.557   2.449   3.276  1.1854  1.8336  0.1579
 1115TIP3   OH224835   2.546   3.312  11.471 -0.1372 -0.7917 -0.2286
 1115TIP3    H124836   2.630   3.277  11.500 -0.2894 -0.1457  1.0506
 1115TIP3    H224837   2.513   3.361  11.546 -0.4631  1.1630 -1.5889
 1116TIP3   OH224838   1.724   6.204   5.495 -0.1632  0.9114  0.3557
 1116TIP3    H124839   1.806   6.248   5.472  1.2415 -1.7948 -0.2363
 1116TIP3    H224840   1.740   6.168   5.582  0.8510 -2.7184 -1.1193
 1117TIP3   OH224841   3.381   0.753  14.132  0.0896 -0.8592 -0.3458
 1117TIP3    H124842   3.412   0.834  14.093 -1.7043 -0.8672 -1.9068
 1117TIP3    H224843   3.334   0.780  14.211 -0.1318 -0.3982 -0.6305
 1118TIP3   OH224844   4.454   6.012  11.409  0.3994 -0.6862  0.2486
 1118TIP3    H124845   4.510   6.060  11.348 -0.1206  1.9180  1.6965
 1118TIP3    H224846   4.365   6.043  11.390  0.3081  0.9308  2.8340
 1119TIP3   OH224847   4.203   6.193  14.280 -0.1324  0.3751  0.2453
 1119TIP3    H124848   4.130   6.247  14.248  1.1904  2.2135  0.1924
 1119TIP3    H224849   4.202   6.115  14.224  0.9918  2.6512 -3.2254
 1120TIP3   OH224850   3.893   0.261  16.887  0.1139 -1.0753 -0.2474
 1120TIP3    H124851   3.987   0.273  16.904 -0.0080 -0.0874 -0.2211
 1120TIP3    H224852   3.865   0.199  16.954  0.2124  0.6650  1.5216
 1121TIP3   OH224853   0.089   2.520  13.192  0.3499  0.2259  0.2469
 1121TIP3    H124854   0.174   2.514  13.148 -0.4282 -1.0594 -1.1879
 1121TIP3    H224855   0.082   2.438  13.240 -1.0044 -0.7597 -1.5091
 1122TIP3   OH224856   4.611   1.640   0.179 -0.0154  0.0940 -0.4068
 1122TIP3    H124857   4.569   1.564   0.218  0.9074 -0.1858  0.0503
 1122TIP3    H224858   4.700   1.639   0.213  0.0903  1.2201 -0.6196
 1123TIP3   OH224859   1.052   6.447   1.436  0.5184  0.3548  0.1400
 1123TIP3    H124860   1.115   6.389   1.394 -0.1478  1.5242 -2.7292
 1123TIP3    H224861   1.025   6.507   1.366 -1.1100  2.1377  2.1815
 1124TIP3   OH224862   6.175   4.725   5.757 -0.4633 -0.9066  0.4022
 1124TIP3    H124863   6.179   4.634   5.786  0.2308 -1.8762 -2.4295
 1124TIP3    H224864   6.136   4.721   5.670 -1.1197  1.6310  0.4909
 1125TIP3   OH224865   2.819   0.284  11.876 -0.1316 -0.0455  0.1911
 1125TIP3    H124866   2.893   0.308  11.820  0.9476 -2.2132  0.6080
 1125TIP3    H224867   2.789   0.367  11.912  1.4912  0.9886 -0.7232
 1126TIP3   OH224868   4.225   5.302   6.070  0.0798  0.5122  0.3165
 1126TIP3    H124869   4.237   5.380   6.016  0.9943 -0.5488 -1.0850
 1126TIP3    H224870   4.135   5.274   6.051  1.3887 -1.8101 -3.5532
 1127TIP3   OH224871   1.608   3.267   2.910 -0.0376 -0.0552 -0.0903
 1127TIP3    H124872   1.560   3.347   2.888  1.5881  2.0484  3.1955
 1127TIP3    H224873   1.700   3.293   2.910  0.5793 -2.0073  0.8489
 1128TIP3   OH224874   0.925   5.471  14.353 -0.1467  0.1123 -0.0368
 1128TIP3    H124875   0.866   5.509  14.418 -1.1525 -1.8982  0.3099
 1128TIP3    H224876   0.874   5.402  14.312  2.1134 -2.1255  0.6771
 1129TIP3   OH224877   5.615   4.957  15.524 -0.0724 -0.3670  0.0815
 1129TIP3    H124878   5.520   4.966  15.514  0.1647 -0.6171 -3.6498
 1129TIP3    H224879   5.627   4.939  15.617 -3.4202  2.2926  1.2502
 1130TIP3   OH224880   1.153   4.184   3.516  0.2346  0.0936  0.2578
 1130TIP3    H124881   1.216   4.113   3.523 -0.0487 -0.1157  0.7854
 1130TIP3    H224882   1.068   4.142   3.528  0.1403  0.6983  1.9900
 1131TIP3   OH224883   4.376   6.443   5.289  0.0610 -0.2319  0.3413
 1131TIP3    H124884   4.366   6.472   5.380  0.5251  0.0486  0.3063
 1131TIP3    H224885   4.412   6.519   5.244  0.7030 -0.6685  0.1114
 1132TIP3   OH224886   5.325   2.043   4.168 -0.0735 -0.0827 -0.3510
 1132TIP3    H124887   5.344   1.971   4.107 -2.0996 -1.9726  1.0678
 1132TIP3    H224888   5.282   2.109   4.114  0.3970 -0.6165 -1.4190
 1133TIP3   OH224889   2.550   1.995   0.662 -0.4293 -0.2156 -0.0784
 1133TIP3    H124890   2.621   1.988   0.598  0.1717  0.1663  0.5313
 1133TIP3    H224891   2.579   1.943   0.736 -0.3587  0.6851  0.5441
 1134TIP3   OH224892   3.888   3.616   3.586 -0.2656  0.1518 -0.3633
 1134TIP3    H124893   3.918   3.648   3.671  1.3051 -0.2155 -0.7478
 1134TIP3    H224894   3.793   3.628   3.588 -0.2245  0.4453  1.3104
 1135TIP3   OH224895   0.474   6.143   1.854  0.1144  0.0597 -0.1869
 1135TIP3    H124896   0.433   6.223   1.822 -1.0924 -0.2524  0.5122
 1135TIP3    H224897   0.564   6.148   1.823 -0.2747  1.0794 -1.2261
 1136TIP3   OH224898   6.467   0.499  16.049  0.2723  0.1173  0.5990
 1136TIP3    H124899   6.441   0.591  16.045  0.2280  0.0921  0.2747
 1136TIP3    H224900   6.511   0.483  15.966 -1.8315 -0.8090 -0.3985
 1137TIP3   OH224901   0.093   3.693  11.837  0.2956 -0.0603 -0.0941
 1137TIP3    H124902   0.170   3.728  11.792 -0.7297  0.3981 -1.5714
 1137TIP3    H224903   0.078   3.755  11.909  1.2746 -0.1380  0.1900
 1138TIP3   OH224904   4.627   4.781   2.929 -0.3569  0.5366  0.2132
 1138TIP3    H124905   4.565   4.851   2.909  0.6933  1.1806 -0.8940
 1138TIP3    H224906   4.712   4.816   2.903  0.3869 -0.5963  1.0436
 1139TIP3   OH224907   5.208   4.471  13.864 -0.1334 -0.3666  0.3719
 1139TIP3    H124908   5.279   4.534  13.861  0.0288 -0.5044  1.0516
 1139TIP3    H224909   5.149   4.505  13.932 -1.0876  0.1280 -0.6864
 1140TIP3   OH224910   3.054   0.203   4.477  0.2259  0.4434  0.5450
 1140TIP3    H124911   3.046   0.209   4.573 -1.4563  0.3854  0.4394
 1140TIP3    H224912   2.987   0.263   4.444 -1.1980 -1.6207 -0.5780
 1141TIP3   OH224913   0.746   2.173   3.151 -0.1221  0.0724  0.1698
 1141TIP3    H124914   0.735   2.139   3.062  0.1287  0.4575 -0.0118
 1141TIP3    H224915   0.669   2.229   3.164  0.0929  0.4135  0.0037
 1142TIP3   OH224916   6.715   4.113  14.255  0.6683  0.1421  0.5847
 1142TIP3    H124917   6.641   4.072  14.300  1.0109  0.4431  1.4528
 1142TIP3    H224918   6.712   4.078  14.166 -0.8121  0.5347  0.4541
 1143TIP3   OH224919   4.249   0.315  11.315  0.4946  0.3950 -0.0134
 1143TIP3    H124920   4.164   0.354  11.333 -0.1465 -0.0566 -1.8488
 1143TIP3    H224921   4.291   0.374  11.253  0.2803 -0.8253 -1.3766
 1144TIP3   OH224922   2.890   4.597  10.755 -0.1616  0.6913  0.4973
 1144TIP3    H124923   2.886   4.620  10.662  1.2690  0.5531  0.3795
 1144TIP3    H224924   2.817   4.645  10.794 -1.6550 -0.3412 -0.8938
 1145TIP3   OH224925   3.701   3.973   2.044  0.0999 -0.6611 -0.1741
 1145TIP3    H124926   3.718   3.954   1.951  0.9282 -0.2737 -0.1158
 1145TIP3    H224927   3.657   3.895   2.077 -2.8601  0.2727 -1.5517
 1146TIP3   OH224928   3.495   1.251  16.186 -0.3244 -0.1571 -0.6833
 1146TIP3    H124929   3.516   1.179  16.246 -2.4201 -1.9763 -1.9888
 1146TIP3    H224930   3.576   1.266  16.138  0.7258 -0.2212  0.9836
 1147TIP3   OH224931   2.533   1.161  14.908  0.6999 -0.2421  0.1378
 1147TIP3    H124932   2.585   1.201  14.838  1.1936  0.2386  0.7680
 1147TIP3    H224933   2.536   1.067  14.889 -1.2660  0.0233 -1.9111
 1148TIP3   OH224934   2.230   1.824   4.686  0.3346 -0.0104 -0.0158
 1148TIP3    H124935   2.240   1.774   4.767 -0.0425  1.4629  0.9659
 1148TIP3    H224936   2.315   1.866   4.672  0.1083  0.5016  0.1380
 1149TIP3   OH224937   1.236   6.138  11.897 -0.6296 -0.1801 -0.2228
 1149TIP3    H124938   1.235   6.096  11.811  1.4566  0.1932 -0.4831
 1149TIP3    H224939   1.199   6.073  11.957  0.0374 -1.3556 -1.0487
 1150TIP3   OH224940   0.808   1.903  13.240  0.7219  0.2075 -0.4246
 1150TIP3    H124941   0.845   1.913  13.328 -0.8831  0.3890  0.2512
 1150TIP3    H224942   0.761   1.820  13.242 -0.9738  1.1290 -0.4734
 1151TIP3   OH224943   6.218   3.455  16.859 -0.3655 -0.2029 -0.4628
 1151TIP3    H124944   6.313   3.444  16.851 -0.0759  1.0946  0.8475
 1151TIP3    H224945   6.196   3.520  16.793 -0.1677  0.2905 -0.0444
 1152TIP3   OH224946   6.769   4.899   0.219 -0.0598 -0.3509  0.0097
 1152TIP3    H124947   6.741   4.819   0.264 -4.8929  1.5025  0.8640
 1152TIP3    H224948   6.722   4.897   0.136  1.6477  0.5588 -1.0361
 1153TIP3   OH224949   6.495   5.725  10.610 -0.4578  0.5832  0.2570
 1153TIP3    H124950   6.588   5.747  10.613 -0.7238  1.7279  0.8493
 1153TIP3    H224951   6.456   5.790  10.551 -0.8236 -0.1448 -0.3228
 1154TIP3   OH224952   3.197   1.366  14.356 -0.2408  0.6557  0.1744
 1154TIP3    H124953   3.107   1.345  14.332  0.4927 -0.8360 -1.4436
 1154TIP3    H224954   3.228   1.289  14.404  0.7440  0.3400 -0.9333
 1155TIP3   OH224955   4.798   1.738  16.013  0.1462  0.0900  0.0893
 1155TIP3    H124956   4.712   1.714  16.047  0.5011  1.1014  1.7980
 1155TIP3    H224957   4.848   1.655  16.012 -0.6033 -0.3681 -0.2465
 1156TIP3   OH224958   2.914   2.354   0.876 -0.0764  0.1201  0.4437
 1156TIP3    H124959   2.863   2.362   0.795  2.6213  2.8110 -1.1719
 1156TIP3    H224960   2.973   2.280   0.861  0.0210  0.2460  0.2186
 1157TIP3   OH224961   2.262   5.854  15.491  0.0478  0.0319  0.2986
 1157TIP3    H124962   2.181   5.803  15.488 -0.2041  0.4500 -0.4498
 1157TIP3    H224963   2.320   5.805  15.548 -0.6091 -0.4694  0.5461
 1158TIP3   OH224964   0.912   6.475  12.087 -0.3889 -0.0342 -0.4926
 1158TIP3    H124965   0.821   6.485  12.115 -0.4356 -0.3565 -0.5171
 1158TIP3    H224966   0.961   6.463  12.168 -0.3106  0.5532 -0.4547
 1159TIP3   OH224967   1.785   5.025  10.342 -0.4965  0.2666  0.1839
 1159TIP3    H124968   1.861   4.977  10.377  0.0411  0.4598 -0.6925
 1159TIP3    H224969   1.712   4.998  10.398 -0.3827 -2.1968 -0.7302
 1160TIP3   OH224970   2.623   2.957  15.409 -0.0460  0.1705  0.1708
 1160TIP3    H124971   2.710   2.933  15.441  0.3343  0.4359 -0.6392
 1160TIP3    H224972   2.630   2.949  15.314 -0.8975  0.2393  0.1010
 1161TIP3   OH224973   4.702   4.611  15.294  0.1284  0.2347 -0.1635
 1161TIP3    H124974   4.681   4.614  15.388 -0.2410 -0.0286 -0.2386
 1161TIP3    H224975   4.656   4.686  15.257  0.7431  0.6839 -0.0461
 1162TIP3   OH224976   2.601   2.807   4.019  0.2531 -0.8882  0.1818
 1162TIP3    H124977   2.653   2.750   3.962  0.1008  0.6868 -1.6302
 1162TIP3    H224978   2.546   2.857   3.959 -0.6368  0.1720  1.8036
 1163TIP3   OH224979   1.762   5.935  13.660 -0.1125  0.0106  0.0647
 1163TIP3    H124980   1.816   5.864  13.694  0.0146  0.2801  0.4379
 1163TIP3    H224981   1.760   6.000  13.731 -2.7794 -0.9411  0.9906
 1164TIP3   OH224982   4.479   5.390  16.662 -0.7789  0.1175 -0.5054
 1164TIP3    H124983   4.446   5.312  16.708 -1.6528  1.6779  1.6472
 1164TIP3    H224984   4.484   5.457  16.729  2.6490  1.2395 -1.6988
 1165TIP3   OH224985   4.285   2.747  13.463 -0.3677 -0.3136  0.2970
 1165TIP3    H124986   4.272   2.731  13.556  2.3489 -2.0705  0.4669
 1165TIP3    H224987   4.368   2.795  13.458 -0.4413 -0.2880 -1.2281
 1166TIP3   OH224988   0.122   2.575   4.664  0.4658  0.5432  0.8007
 1166TIP3    H124989   0.055   2.538   4.721 -1.4246  2.6799  0.1210
 1166TIP3    H224990   0.178   2.626   4.723  1.0524 -0.6237  1.2709
 1167TIP3   OH224991   4.103   4.424  17.184  0.3811  0.0691  0.0469
 1167TIP3    H124992   4.071   4.479  17.256 -0.6763  1.5392 -1.4772
 1167TIP3    H224993   4.049   4.448  17.109  2.7637  0.0917 -1.7919
 1168TIP3   OH224994   1.538   3.901  11.903 -0.4227 -0.0349  0.1369
 1168TIP3    H124995   1.543   3.805  11.902 -0.5616 -0.0463 -1.1334
 1168TIP3    H224996   1.626   3.929  11.876 -0.6846  0.1738 -0.5070
 1169TIP3   OH224997   4.053   1.399  16.715  0.5549  0.0243 -0.2429
 1169TIP3    H124998   3.963   1.375  16.695  0.8885 -2.2741  0.7025
 1169TIP3    H224999   4.088   1.431  16.631 -0.4784 -1.2894 -1.2334
 1170TIP3   OH225000   4.345   1.993  16.228 -0.2681  0.0476 -0.1351
 1170TIP3    H125001   4.396   2.067  16.196  1.3339  0.0968  2.2604
 1170TIP3    H225002   4.404   1.918  16.222 -0.8998 -0.4755  0.0300
 1171TIP3   OH225003   6.080   3.873  15.466 -0.4413 -0.2569  0.3840
 1171TIP3    H125004   6.108   3.914  15.548 -1.7841 -0.0045  0.7273
 1171TIP3    H225005   6.120   3.928  15.398  0.2442 -0.1546  0.8520
 1172TIP3   OH225006   1.686   0.651  14.169  0.0606  0.6648  0.4646
 1172TIP3    H125007   1.767   0.699  14.184  1.2967 -0.7084 -1.3623
 1172TIP3    H225008   1.674   0.599  14.249  2.1361 -0.6040  0.0475
 1173TIP3   OH225009   2.903   5.889  17.174 -0.1166 -0.2260  0.0715
 1173TIP3    H125010   2.871   5.825  17.237  2.9144 -1.3013  0.7125
 1173TIP3    H225011   2.920   5.968  17.225  1.7667 -0.9042  0.5713
 1174TIP3   OH225012   4.223   0.942  11.676 -0.0805  0.1497  0.1707
 1174TIP3    H125013   4.281   0.968  11.604  1.7650 -0.8305  1.2032
 1174TIP3    H225014   4.201   0.851  11.658  0.5752 -0.1727  0.9156
 1175TIP3   OH225015   5.289   4.463  14.950  0.8646 -0.3336 -1.1213
 1175TIP3    H125016   5.203   4.429  14.925  0.1005  1.1505 -0.6268
 1175TIP3    H225017   5.351   4.408  14.902 -0.3965 -0.7021 -2.4103
 1176TIP3   OH225018   4.557   5.391  11.490 -0.1335 -0.7897 -0.2686
 1176TIP3    H125019   4.530   5.361  11.577  1.7752 -0.1747  0.5617
 1176TIP3    H225020   4.632   5.336  11.468 -1.0192 -1.4421 -1.8938
 1177TIP3   OH225021   6.804   5.806   0.655 -0.1786  0.3570 -0.2192
 1177TIP3    H125022   6.871   5.746   0.622  0.4863  0.8878  0.1144
 1177TIP3    H225023   6.756   5.834   0.577  1.3420  1.5736 -0.7893
 1178TIP3   OH225024   6.240   0.293   4.893 -0.0200  0.9173 -0.4153
 1178TIP3    H125025   6.335   0.278   4.887  0.0371  1.0172  0.1782
 1178TIP3    H225026   6.202   0.205   4.890  0.0263  0.9231 -1.5998
 1179TIP3   OH225027   3.605   2.926   5.922  0.1063 -0.3323 -0.5321
 1179TIP3    H125028   3.522   2.972   5.932  0.0221 -0.5646 -0.1707
 1179TIP3    H225029   3.585   2.834   5.939  0.6643 -0.2370  0.7914
 1180TIP3   OH225030   0.111   4.289   1.969 -0.3205 -0.0697  0.2102
 1180TIP3    H125031   0.165   4.312   2.044 -1.9230  3.0036  0.5943
 1180TIP3    H225032   0.049   4.224   2.002  1.9458 -2.4149  0.1659
 1181TIP3   OH225033   4.897   5.402   3.766 -0.4705  0.2078  0.0368
 1181TIP3    H125034   4.986   5.404   3.802 -1.0857  0.6654  1.5981
 1181TIP3    H225035   4.840   5.395   3.843 -1.8078  0.2238 -0.9197
 1182TIP3   OH225036   2.582   0.588  16.433  0.2709  0.3286 -0.5674
 1182TIP3    H125037   2.616   0.631  16.354 -0.3482  2.8291  0.4182
 1182TIP3    H225038   2.523   0.520  16.399  0.4159  0.9826 -2.2527
 1183TIP3   OH225039   5.360   6.386   1.546 -0.0406  0.0847  0.0340
 1183TIP3    H125040   5.446   6.385   1.587  0.1263 -0.6822 -0.3237
 1183TIP3    H225041   5.377   6.374   1.453 -0.5418 -0.2727 -0.0154
 1184TIP3   OH225042   0.786   4.234  13.042 -0.4701  0.0036  0.4205
 1184TIP3    H125043   0.792   4.150  13.087  0.7287 -0.5851 -0.7812
 1184TIP3    H225044   0.841   4.224  12.965  1.2983  2.5332  1.2269
 1185TIP3   OH225045   4.915   3.966  12.775  0.0709 -0.0117  0.0307
 1185TIP3    H125046   5.007   3.948  12.794  1.1482  2.7731 -1.7895
 1185TIP3    H225047   4.908   3.952  12.680 -1.4705 -0.3908  0.1771
 1186TIP3   OH225048   0.787   2.140   5.486 -0.0195 -0.1114 -0.3310
 1186TIP3    H125049   0.801   2.046   5.495 -0.7781 -0.3666 -1.5838
 1186TIP3    H225050   0.853   2.168   5.422  0.2593  0.2389  0.1000
 1187TIP3   OH225051   5.929   4.391   6.056 -0.5212  0.6091  0.1523
 1187TIP3    H125052   5.857   4.416   6.114  0.7334  1.6929  1.3209
 1187TIP3    H225053   6.008   4.408   6.108  0.5753 -1.4509 -0.7316
 1188TIP3   OH225054   2.172   5.279  16.196 -0.3131  0.5903 -0.0464
 1188TIP3    H125055   2.172   5.205  16.257  2.2924  0.1596 -0.4361
 1188TIP3    H225056   2.261   5.315  16.202 -0.4624  1.5485 -2.3613
 1189TIP3   OH225057   1.305   1.611  12.135 -0.3456 -0.6321 -0.4108
 1189TIP3    H125058   1.308   1.548  12.063  1.8444 -0.6114 -0.3994
 1189TIP3    H225059   1.237   1.673  12.109 -1.6190 -2.2057 -1.0624
 1190TIP3   OH225060   5.626   5.651  13.955  0.7427  0.4873  0.0391
 1190TIP3    H125061   5.710   5.638  13.912  0.0808  0.0659 -1.1496
 1190TIP3    H225062   5.560   5.639  13.886 -0.4874 -2.5314  1.5535
 1191TIP3   OH225063   1.772   0.089   3.146 -0.5574 -0.3387 -0.1284
 1191TIP3    H125064   1.776   0.184   3.158  0.7779 -0.5535  1.3309
 1191TIP3    H225065   1.695   0.076   3.090 -1.0306  1.5587  0.0020
 1192TIP3   OH225066   5.652   2.075   6.888  0.0796  0.3300 -0.2016
 1192TIP3    H125067   5.637   2.165   6.917 -0.0582  0.6549 -1.2309
 1192TIP3    H225068   5.570   2.029   6.909  0.4527  0.2177  1.0911
 1193TIP3   OH225069   4.652   4.262  12.134 -0.3276 -0.3360  0.9891
 1193TIP3    H125070   4.579   4.322  12.148 -1.1488 -0.1776 -2.7198
 1193TIP3    H225071   4.610   4.177  12.120  0.4129 -0.7602  1.3102
 1194TIP3   OH225072   1.250   3.947  17.066  0.1416 -0.2299  0.3811
 1194TIP3    H125073   1.168   3.991  17.044  0.9684  1.0359 -0.3024
 1194TIP3    H225074   1.311   3.975  16.998  0.4590 -3.3664 -0.7881
 1195TIP3   OH225075   0.632   5.452  14.743  0.0737 -0.1293 -0.6065
 1195TIP3    H125076   0.631   5.361  14.714  0.9809  0.4226 -2.5435
 1195TIP3    H225077   0.541   5.482  14.732  0.0204 -0.4694 -1.0948
 1196TIP3   OH225078   3.644   2.916  15.325  0.3261  0.3015 -0.2928
 1196TIP3    H125079   3.636   2.923  15.230 -1.3932 -0.7445 -0.2586
 1196TIP3    H225080   3.569   2.965  15.359  1.1815  1.0677  0.5705
 1197TIP3   OH225081   3.701   1.681   3.243  0.5722  0.2804 -0.1819
 1197TIP3    H125082   3.787   1.667   3.282  0.5375  1.9062  0.5409
 1197TIP3    H225083   3.682   1.599   3.198  1.5549 -0.8914  1.4372
 1198TIP3   OH225084   2.002   4.791   3.274 -0.0409 -0.1749  0.3272
 1198TIP3    H125085   1.928   4.767   3.217  1.6549  0.6722 -2.4489
 1198TIP3    H225086   1.976   4.874   3.313  0.1497  1.2413 -2.3071
 1199TIP3   OH225087   6.315   5.663   2.788 -0.2108 -0.4266  0.2476
 1199TIP3    H125088   6.382   5.612   2.743 -0.8304  0.6841 -2.0910
 1199TIP3    H225089   6.237   5.655   2.732 -0.7232  1.8523  0.5319
 1200TIP3   OH225090   3.084   3.751  11.609  0.3311  0.0711 -0.4532
 1200TIP3    H125091   3.177   3.749  11.587  0.3150 -0.8205 -0.4849
 1200TIP3    H225092   3.039   3.752  11.524  0.3038  1.7585 -0.4534
 1201TIP3   OH225093   6.420   0.768  16.668 -0.3788  0.2515 -0.0060
 1201TIP3    H125094   6.487   0.836  16.661  0.4508 -0.4377  0.9342
 1201TIP3    H225095   6.387   0.776  16.757 -0.1589 -0.6617  0.1714
 1202TIP3   OH225096   1.521   2.548   1.025  0.1506  0.2234  0.2099
 1202TIP3    H125097   1.447   2.490   1.009 -0.6725  1.3247 -0.1613
 1202TIP3    H225098   1.489   2.635   0.998  1.1642  0.9278  1.1714
 1203TIP3   OH225099   6.402   1.024  12.238  0.2235 -0.0429 -0.5345
 1203TIP3    H125100   6.324   1.021  12.293  0.1089  0.0216 -0.6926
 1203TIP3    H225101   6.459   0.956  12.273  1.1413  1.5126  1.1694
 1204TIP3   OH225102   6.297   0.977   3.543 -0.1763 -0.9127 -0.0073
 1204TIP3    H125103   6.371   1.027   3.509 -1.6087  0.0666 -1.9192
 1204TIP3    H225104   6.290   1.002   3.635 -1.1575  2.9853 -0.9660
 1205TIP3   OH225105   5.596   3.458  15.411  0.5167 -0.2255  0.1255
 1205TIP3    H125106   5.566   3.499  15.329  1.4638 -2.3780 -1.3879
 1205TIP3    H225107   5.677   3.413  15.387  1.3283 -0.1484  2.5154
 1206TIP3   OH225108   5.567   4.458  12.202 -0.6808 -0.2602 -0.1994
 1206TIP3    H125109   5.632   4.519  12.237 -1.3641  1.6718 -2.1460
 1206TIP3    H225110   5.583   4.377  12.251 -0.3018  1.6413  3.1178
 1207TIP3   OH225111   5.428   5.439   0.219 -0.6122  0.8538  0.2901
 1207TIP3    H125112   5.363   5.384   0.264 -0.5125 -0.0042 -0.5575
 1207TIP3    H225113   5.489   5.466   0.287  0.0093 -1.0897  0.5883
 1208TIP3   OH225114   5.827   4.389  13.341  0.4138 -0.3014  0.1356
 1208TIP3    H125115   5.849   4.297  13.331 -0.3181 -0.6344  1.3885
 1208TIP3    H225116   5.751   4.403  13.284 -0.2758 -0.7993  0.9194
 1209TIP3   OH225117   1.480   4.746   3.398  0.0419 -0.0588  0.2761
 1209TIP3    H125118   1.480   4.702   3.313  2.9966 -1.5582  0.9233
 1209TIP3    H225119   1.521   4.684   3.458 -2.9703  0.4736  3.1801
 1210TIP3   OH225120   2.963   5.917  12.943 -0.0233  0.1180  0.9454
 1210TIP3    H125121   2.890   5.889  12.888  0.9824 -1.9061  0.5389
 1210TIP3    H225122   2.927   5.921  13.031 -1.0957  1.1535  0.4876
 1211TIP3   OH225123   1.825   6.359   3.837 -0.1608  0.5456 -0.2166
 1211TIP3    H125124   1.871   6.330   3.757 -1.1618 -2.6838  0.2352
 1211TIP3    H225125   1.894   6.370   3.901  0.3482 -0.8368 -0.4869
 1212TIP3   OH225126   6.479   0.411   6.369 -0.1536  0.3376 -0.0488
 1212TIP3    H125127   6.468   0.476   6.300  2.2961  1.1898  0.2396
 1212TIP3    H225128   6.439   0.331   6.335 -1.3621  1.4445 -1.2923
 1213TIP3   OH225129   0.616   2.770   6.371 -0.0744  0.5193  0.1232
 1213TIP3    H125130   0.657   2.741   6.452 -1.2482  2.3276  1.4372
 1213TIP3    H225131   0.522   2.756   6.385 -0.1608 -2.2015 -2.2514
 1214TIP3   OH225132   0.022   6.559   4.734 -0.9379 -0.1174 -0.1806
 1214TIP3    H125133   0.043   6.582   4.824 -1.5426 -0.0967 -0.0386
 1214TIP3    H225134  -0.071   6.583   4.724 -0.6080  0.8738 -1.1286
 1215TIP3   OH225135   1.461   2.879  13.424 -0.2504 -0.2260 -0.0068
 1215TIP3    H125136   1.523   2.912  13.359 -0.4386  0.2541  0.0536
 1215TIP3    H225137   1.422   2.802  13.383  0.0020 -0.2191 -0.2590
 1216TIP3   OH225138   5.711   3.610  11.388  0.0593 -0.2127 -0.8063
 1216TIP3    H125139   5.769   3.621  11.313 -0.0685  0.4628 -0.8126
 1216TIP3    H225140   5.738   3.678  11.449  1.3976 -1.8998  0.5718
 1217TIP3   OH225141   5.629   6.044  13.409  0.0673 -0.4856  0.0931
 1217TIP3    H125142   5.701   6.047  13.346 -1.4130  0.5447 -1.6298
 1217TIP3    H225143   5.673   6.046  13.494  2.1076 -0.9511 -0.8687
 1218TIP3   OH225144   2.629   0.535  11.381  0.3422  0.2233 -0.7271
 1218TIP3    H125145   2.647   0.466  11.316  1.6230 -0.5421  0.3879
 1218TIP3    H225146   2.557   0.501  11.433  1.1099 -0.4056 -0.0450
 1219TIP3   OH225147   2.832   0.403  13.232 -0.1171 -0.2485 -0.2009
 1219TIP3    H125148   2.905   0.366  13.182 -0.8402 -0.4012 -1.1766
 1219TIP3    H225149   2.869   0.421  13.318  1.1058 -0.2135 -0.7072
 1220TIP3   OH225150   4.005   0.163   1.234 -0.7298 -0.0958  0.4111
 1220TIP3    H125151   3.933   0.153   1.298 -1.5735  0.7895 -0.3685
 1220TIP3    H225152   3.967   0.132   1.152 -0.0688 -0.0064  0.0750
 1221TIP3   OH225153   1.243   2.745  16.935 -0.0309  0.3448 -0.0158
 1221TIP3    H125154   1.337   2.747  16.948 -0.1466 -0.7373  1.2063
 1221TIP3    H225155   1.227   2.802  16.860  1.7344 -0.5642 -1.1291
 1222TIP3   OH225156   5.024   6.770  15.128 -0.2497 -0.0238  0.0607
 1222TIP3    H125157   5.095   6.831  15.151 -0.3894 -0.0452  0.5749
 1222TIP3    H225158   5.051   6.688  15.168  0.6053 -0.6899 -1.7649
 1223TIP3   OH225159   0.357   1.269   0.338 -0.3396 -0.2303  0.2948
 1223TIP3    H125160   0.395   1.232   0.418  1.0219 -2.3096 -1.2052
 1223TIP3    H225161   0.419   1.337   0.312 -1.0048  0.7457  1.1834
 1224TIP3   OH225162   6.714   4.983  12.634 -0.6361  0.4558  0.0032
 1224TIP3    H125163   6.807   4.964  12.632 -0.5670  0.8621 -0.9674
 1224TIP3    H225164   6.684   4.945  12.717 -0.0860 -1.8527 -0.7773
 1225TIP3   OH225165   3.076   1.732  13.728 -0.4174  0.2328  0.5299
 1225TIP3    H125166   3.038   1.801  13.783 -1.6001  0.0079  0.0234
 1225TIP3    H225167   3.001   1.684  13.695  0.4083 -1.5458  1.1515
 1226TIP3   OH225168   5.775   0.114  13.420  0.6597  0.3233 -0.0852
 1226TIP3    H125169   5.717   0.108  13.344  0.8930  0.6016 -0.2865
 1226TIP3    H225170   5.754   0.200  13.459 -0.8570 -0.6099  1.3073
 1227TIP3   OH225171   6.331   0.632   1.487  0.3045  0.5991  0.8193
 1227TIP3    H125172   6.324   0.651   1.581  1.0971  0.0678  0.9994
 1227TIP3    H225173   6.285   0.549   1.476 -0.9289  1.2970  0.4881
 1228TIP3   OH225174   1.634   3.161  15.841  0.1878 -0.0579  0.2339
 1228TIP3    H125175   1.673   3.092  15.894 -0.6296 -0.1922  0.6774
 1228TIP3    H225176   1.561   3.118  15.795 -0.3307  0.4951  0.5138
 1229TIP3   OH225177   2.486   1.530  11.984  0.4096 -0.0863  0.3765
 1229TIP3    H125178   2.424   1.463  11.956 -0.4238  0.1010  1.7118
 1229TIP3    H225179   2.446   1.612  11.956  1.0493 -0.0706 -0.5471
 1230TIP3   OH225180   5.519   6.188   0.362 -0.0692 -0.5621  0.0183
 1230TIP3    H125181   5.431   6.205   0.396 -0.0471  0.8502 -0.5676
 1230TIP3    H225182   5.512   6.201   0.268  0.6542 -0.9368 -0.0950
 1231TIP3   OH225183   4.496   1.127   4.806  0.1585 -0.1382 -0.5913
 1231TIP3    H125184   4.565   1.147   4.870 -1.4891  1.2313  0.8749
 1231TIP3    H225185   4.522   1.044   4.768  2.1338 -0.1237  0.5767
 1232TIP3   OH225186   5.856   5.391   5.391  0.2322 -0.0437  0.2239
 1232TIP3    H125187   5.842   5.316   5.449  0.8519 -1.4022 -1.3170
 1232TIP3    H225188   5.923   5.442   5.435  2.4020 -2.2533 -0.2803
 1233TIP3   OH225189   2.931   4.312  16.777  0.5255 -0.6595  0.1009
 1233TIP3    H125190   2.897   4.393  16.737  2.2597 -0.5079 -1.1799
 1233TIP3    H225191   2.854   4.272  16.817 -0.8870  0.3892 -1.3870
 1234TIP3   OH225192   2.889   6.568   2.468  0.2293 -0.2122 -0.5765
 1234TIP3    H125193   2.869   6.480   2.437 -0.3470 -0.3140  0.0416
 1234TIP3    H225194   2.879   6.562   2.563 -0.2190  0.6159 -0.5634
 1235TIP3   OH225195   3.304   5.005  10.342  0.2352  0.3078  0.0015
 1235TIP3    H125196   3.379   5.053  10.376  0.5161 -0.0409 -0.1301
 1235TIP3    H225197   3.339   4.950  10.272 -0.4053  1.2938 -1.1148
 1236TIP3   OH225198   5.645   4.338   6.883  0.1255  0.2741  0.1774
 1236TIP3    H125199   5.652   4.410   6.820  1.4164 -2.1792 -2.7373
 1236TIP3    H225200   5.731   4.295   6.879  0.3417  0.0649  3.8668
 1237TIP3   OH225201   4.970   2.819  15.011  0.0778 -0.7233 -0.4237
 1237TIP3    H125202   4.997   2.764  14.937 -2.0051 -2.2879 -0.1257
 1237TIP3    H225203   4.936   2.757  15.075 -0.0503  0.7731  1.0169
 1238TIP3   OH225204   5.663   0.605  15.805  0.1692  0.3165 -0.2417
 1238TIP3    H125205   5.664   0.700  15.796 -1.2648  0.3498 -0.2455
 1238TIP3    H225206   5.621   0.573  15.725 -1.3823 -0.1539  0.7101
 1239TIP3   OH225207   1.713   6.324   0.605  0.0432 -0.1796 -0.1052
 1239TIP3    H125208   1.760   6.294   0.527 -0.5356 -0.2552 -0.4329
 1239TIP3    H225209   1.758   6.405   0.630  0.3655 -0.2663 -0.3948
 1240TIP3   OH225210   0.107   6.148   6.085  0.2061 -0.4832  0.6272
 1240TIP3    H125211   0.165   6.125   6.013  0.8491  0.9678  0.6439
 1240TIP3    H225212   0.164   6.188   6.151 -0.8084  1.2083  0.5421
 1241TIP3   OH225213   6.267   4.451  12.732  0.0534  0.2831  0.1371
 1241TIP3    H125214   6.327   4.464  12.806  1.3195 -1.2138 -0.5426
 1241TIP3    H225215   6.254   4.538  12.696  1.7644  0.6980  0.4060
 1242TIP3   OH225216   5.998   3.263  16.368  0.2790 -0.2336  0.0609
 1242TIP3    H125217   6.023   3.319  16.442  0.2960 -0.6222  0.3511
 1242TIP3    H225218   6.018   3.174  16.397 -0.0662 -0.4217 -0.2691
 1243TIP3   OH225219   6.246   5.724  16.733  0.5790 -0.1848 -0.5888
 1243TIP3    H125220   6.275   5.742  16.644 -0.8545 -0.4493 -1.1398
 1243TIP3    H225221   6.324   5.692  16.778  1.0126 -1.3826 -2.1229
 1244TIP3   OH225222   2.908   2.499   1.096  0.3282 -0.1156  0.0395
 1244TIP3    H125223   2.884   2.574   1.042 -0.2698 -0.3643 -0.0504
 1244TIP3    H225224   2.899   2.423   1.038  1.5122 -0.2166 -0.0509
 1245TIP3   OH225225   4.019   3.101  15.966 -0.4823 -0.7250  0.6185
 1245TIP3    H125226   4.101   3.136  15.931  0.0668 -1.3151  1.2891
 1245TIP3    H225227   3.952   3.129  15.903  0.0791  0.6067  0.5682
 1246TIP3   OH225228   3.012   4.867  14.313  0.1205  0.2101 -0.1659
 1246TIP3    H125229   3.049   4.782  14.287 -0.7929 -0.2470 -0.0204
 1246TIP3    H225230   2.919   4.848  14.329 -0.8336  1.7689 -3.0038
 1247TIP3   OH225231   3.896   6.316  16.246 -0.0071  0.4204  0.2235
 1247TIP3    H125232   3.832   6.251  16.274  0.1850 -0.8669 -2.0371
 1247TIP3    H225233   3.930   6.353  16.327 -0.3234 -2.1429  1.6411
 1248TIP3   OH225234   5.535   0.247  14.675 -0.3535 -0.3110  0.2207
 1248TIP3    H125235   5.606   0.310  14.680  0.6285 -1.4572  1.8204
 1248TIP3    H225236   5.468   0.289  14.621  1.8787  0.4597 -2.1475
 1249TIP3   OH225237   0.183   2.798   2.817 -0.6003 -0.1615  0.1000
 1249TIP3    H125238   0.107   2.749   2.784 -0.5669 -0.3535  0.3101
 1249TIP3    H225239   0.224   2.833   2.738 -0.3452 -0.8721 -0.0917
 1250TIP3   OH225240   4.922   6.764  13.391  0.6674 -0.0469 -0.0347
 1250TIP3    H125241   4.904   6.692  13.331 -0.4264  1.1541 -1.2314
 1250TIP3    H225242   4.844   6.820  13.384  1.4534  1.2101  0.9130
 1251TIP3   OH225243   4.355   4.198  13.830  0.8790 -0.1462  0.2665
 1251TIP3    H125244   4.260   4.192  13.814  0.6653  0.5161  1.2030
 1251TIP3    H225245   4.393   4.209  13.742 -0.0357  0.8983 -0.0303
 1252TIP3   OH225246   2.499   6.741   4.918  0.2804  0.3001  0.0518
 1252TIP3    H125247   2.446   6.665   4.942  0.2463  0.0393 -0.8149
 1252TIP3    H225248   2.521   6.782   5.002  0.7249 -0.9455  0.5741
 1253TIP3   OH225249   1.406   5.074   0.709  0.1935 -0.1506  0.0882
 1253TIP3    H125250   1.412   5.165   0.738  0.6985 -0.2561  0.3362
 1253TIP3    H225251   1.450   5.074   0.624  1.3716 -0.3973  0.6683
 1254TIP3   OH225252   0.065   2.816  13.485  0.0442 -0.2131 -0.6280
 1254TIP3    H125253   0.081   2.911  13.489  1.4201 -0.4772  2.0685
 1254TIP3    H225254  -0.031   2.809  13.480 -0.0494  1.2959 -1.7251
 1255TIP3   OH225255   4.981   4.299   5.596  0.9750  0.2516  0.0044
 1255TIP3    H125256   5.048   4.231   5.592 -0.2415 -0.9225 -0.8347
 1255TIP3    H225257   4.931   4.289   5.515  0.3604  1.7303  0.1692
 1256TIP3   OH225258   6.503   3.977   1.116  0.3159 -0.5360  0.3169
 1256TIP3    H125259   6.480   3.989   1.208  1.3570  1.1036  0.3955
 1256TIP3    H225260   6.592   4.010   1.108  0.4211 -1.0691 -1.2041
 1257TIP3   OH225261   6.069   1.132   1.127 -0.1773  0.3552  0.7425
 1257TIP3    H125262   6.066   1.144   1.222  1.2107 -1.4523  1.0761
 1257TIP3    H225263   5.978   1.119   1.101 -0.8317  3.0485  1.4497
 1258TIP3   OH225264   4.501   3.737  12.894 -0.0489 -0.6665 -0.5990
 1258TIP3    H125265   4.432   3.791  12.933  0.9966 -0.0245  0.4185
 1258TIP3    H225266   4.528   3.785  12.816  1.0244  0.4535  0.4153
 1259TIP3   OH225267   3.524   2.567  13.954  0.0588 -0.1893 -0.1643
 1259TIP3    H125268   3.538   2.582  13.860  0.6538  1.1947  0.1145
 1259TIP3    H225269   3.600   2.607  13.996  0.6150 -2.1839  0.8493
 1260TIP3   OH225270   4.844   5.707   2.716 -0.0523 -0.2461 -0.3794
 1260TIP3    H125271   4.885   5.680   2.798  1.5486 -0.0980 -1.0943
 1260TIP3    H225272   4.790   5.783   2.740 -1.5643 -1.6517  0.9391
 1261TIP3   OH225273   5.482   2.256   4.708 -0.2820 -0.7799 -0.9070
 1261TIP3    H125274   5.481   2.261   4.804 -1.8601 -1.7507 -0.8443
 1261TIP3    H225275   5.541   2.183   4.689 -2.3195 -2.6609 -0.4824
 1262TIP3   OH225276   4.466   0.188   0.629 -0.0996 -0.4177 -0.2099
 1262TIP3    H125277   4.442   0.128   0.700 -1.5350  0.4854  0.1019
 1262TIP3    H225278   4.406   0.167   0.558  1.2689 -1.2526 -1.1601
 1263TIP3   OH225279   2.086   3.475   1.885  0.6016  0.0826 -1.1623
 1263TIP3    H125280   2.087   3.501   1.793 -1.7587 -0.5571 -1.4322
 1263TIP3    H225281   2.134   3.392   1.887  1.1715  0.3934 -1.6965
 1264TIP3   OH225282   5.676   2.856   4.735 -0.1403  0.2376  0.2009
 1264TIP3    H125283   5.752   2.805   4.708 -0.0192  1.0243 -1.0418
 1264TIP3    H225284   5.610   2.791   4.761  0.0757 -0.5534 -1.1431
 1265TIP3   OH225285   1.860   3.391  15.395  0.8489 -0.1142 -0.1108
 1265TIP3    H125286   1.937   3.345  15.427  1.4319  0.4459 -0.6775
 1265TIP3    H225287   1.878   3.484  15.414 -0.8762 -0.1523  2.2338
 1266TIP3   OH225288   4.460   2.288  13.139  0.5138 -0.4421 -0.0938
 1266TIP3    H125289   4.386   2.322  13.088  1.1505  2.9486  0.9338
 1266TIP3    H225290   4.519   2.250  13.074 -0.8883 -0.7432 -1.2426
 1267TIP3   OH225291   4.122   1.151  15.592 -0.1827 -0.0768 -0.2959
 1267TIP3    H125292   4.070   1.178  15.667  0.9893 -0.2301  0.5984
 1267TIP3    H225293   4.201   1.205  15.597  0.1718 -0.5075 -1.0753
 1268TIP3   OH225294   5.806   2.587   4.739  0.1577  0.2030  0.5671
 1268TIP3    H125295   5.861   2.510   4.729 -0.3829 -0.1719  0.4200
 1268TIP3    H225296   5.772   2.582   4.828 -0.2137  0.0348  0.4217
 1269TIP3   OH225297   0.740   3.246  11.327 -0.0919 -0.0170 -0.5661
 1269TIP3    H125298   0.811   3.310  11.334 -1.7507  2.1222 -1.9331
 1269TIP3    H225299   0.673   3.279  11.386 -1.2024 -0.1525 -1.7222
 1270TIP3   OH225300   5.822   3.930  14.211 -0.2955 -0.4209 -0.3877
 1270TIP3    H125301   5.752   3.983  14.248  2.6882  1.5802  3.0391
 1270TIP3    H225302   5.835   3.859  14.274  1.2266 -0.3012 -0.5275
 1271TIP3   OH225303   3.129   1.011  12.729 -0.0781 -0.1800  0.2813
 1271TIP3    H125304   3.216   1.027  12.691 -0.5572  1.3494 -0.2314
 1271TIP3    H225305   3.142   0.935  12.787  1.4521 -0.3587 -0.2463
 1272TIP3   OH225306   2.087   3.604   1.243 -0.5506 -0.3979  0.2288
 1272TIP3    H125307   2.025   3.616   1.171 -1.9322 -0.0465  1.4339
 1272TIP3    H225308   2.165   3.653   1.215 -1.2816  0.2505 -0.7626
 1273TIP3   OH225309   3.386   3.995  14.965  0.2555  0.3996 -0.0448
 1273TIP3    H125310   3.420   4.084  14.957  0.1120  0.4153 -0.5061
 1273TIP3    H225311   3.438   3.956  15.035  0.0503  0.9722  0.4390
 1274TIP3   OH225312   2.514   3.660  13.603  0.6061  0.3449  0.3391
 1274TIP3    H125313   2.440   3.642  13.544 -0.3118  2.1417  0.8579
 1274TIP3    H225314   2.591   3.634  13.553 -0.2629  0.1507 -0.9538
 1275TIP3   OH225315   5.558   1.715  11.402  0.2791 -0.0854  0.0150
 1275TIP3    H125316   5.544   1.695  11.494 -0.4674  0.5705  0.0523
 1275TIP3    H225317   5.564   1.629  11.360 -1.0940 -0.4146  0.4257
 1276TIP3   OH225318   5.696   5.412  13.758 -0.2826  0.5807  0.6183
 1276TIP3    H125319   5.737   5.365  13.685  0.1566 -0.1707  1.3406
 1276TIP3    H225320   5.765   5.471  13.790 -0.2624  0.4358  0.8434
 1277TIP3   OH225321   6.560   3.105   6.631 -0.2065 -0.4331 -0.2259
 1277TIP3    H125322   6.510   3.104   6.549  0.1244 -0.7781 -0.4231
 1277TIP3    H225323   6.515   3.041   6.687  0.7793 -1.7261 -0.8657
 1278TIP3   OH225324   3.180   5.868   3.190  0.3664  0.1320  0.2295
 1278TIP3    H125325   3.210   5.780   3.210  1.1136  0.7744  2.2544
 1278TIP3    H225326   3.085   5.859   3.180  0.2841 -0.7529  1.5510
 1279TIP3   OH225327   4.493   4.453   0.395  0.8065  0.1025 -0.2592
 1279TIP3    H125328   4.563   4.510   0.364  0.6245 -0.3659 -1.6071
 1279TIP3    H225329   4.438   4.510   0.449  0.7119  1.1864 -1.4420
 1280TIP3   OH225330   3.373   4.360   4.234 -0.4083  0.2153 -0.2010
 1280TIP3    H125331   3.456   4.400   4.209 -0.8944  0.9837 -0.6316
 1280TIP3    H225332   3.389   4.266   4.231  0.4208  0.3563 -0.3525
 1281TIP3   OH225333   4.745   5.913   2.359  0.5314  0.4186  0.1284
 1281TIP3    H125334   4.681   5.845   2.377 -1.5261  2.1196 -0.3621
 1281TIP3    H225335   4.773   5.942   2.446 -0.2270  0.4215  0.3779
 1282TIP3   OH225336   4.273   3.188   0.118  0.2438 -0.7661  0.4607
 1282TIP3    H125337   4.269   3.283   0.103  2.9173 -0.5732  0.3978
 1282TIP3    H225338   4.211   3.172   0.188  0.5594  1.2507  1.2841
 1283TIP3   OH225339   0.345   4.563   1.866 -0.1208 -0.6362 -0.2036
 1283TIP3    H125340   0.315   4.616   1.940 -0.7344  1.0536 -1.6024
 1283TIP3    H225341   0.382   4.485   1.907  0.1960  0.5376  1.9254
 1284TIP3   OH225342   0.130   6.024  14.445 -0.2976 -0.0141  0.1977
 1284TIP3    H125343   0.109   5.939  14.482 -0.6791  0.3178  0.7659
 1284TIP3    H225344   0.221   6.039  14.470 -0.9183  0.7831  2.2057
 1285TIP3   OH225345   4.016   3.683   2.138  0.3374  0.0807 -0.0382
 1285TIP3    H125346   4.036   3.716   2.050  0.6316 -0.7750 -0.3057
 1285TIP3    H225347   4.019   3.587   2.128  0.9074 -0.0219  1.0280
 1286TIP3   OH225348   1.500   5.223  12.684 -0.0326  0.2846  0.1558
 1286TIP3    H125349   1.486   5.129  12.683  0.3850  0.2237 -0.2926
 1286TIP3    H225350   1.474   5.253  12.597 -0.4649  0.6315  0.3999
 1287TIP3   OH225351   1.538   4.462  11.547 -0.3519  0.0645  0.6160
 1287TIP3    H125352   1.526   4.503  11.633 -0.7115  1.2808  0.0034
 1287TIP3    H225353   1.451   4.460  11.509 -0.0008  0.7614 -0.2549
 1288TIP3   OH225354   4.871   0.043   2.415 -0.4984 -0.1424  0.5353
 1288TIP3    H125355   4.874  -0.049   2.391 -2.0215 -0.0395 -0.1203
 1288TIP3    H225356   4.846   0.088   2.334 -1.7536  0.6245  1.3300
 1289TIP3   OH225357   1.270   3.163  10.622 -0.2325  0.0525 -0.7157
 1289TIP3    H125358   1.280   3.085  10.677 -0.6184  0.0669 -0.6177
 1289TIP3    H225359   1.337   3.224  10.653  0.9776 -0.7513 -1.7033
 1290TIP3   OH225360   2.325   4.319   2.869 -0.0614  0.4744  0.1070
 1290TIP3    H125361   2.328   4.239   2.922 -4.1154  0.3351  0.4265
 1290TIP3    H225362   2.257   4.303   2.804 -0.2415  3.2775 -0.5339
 1291TIP3   OH225363   5.871   4.542  16.040 -0.0459 -0.0376  0.3917
 1291TIP3    H125364   5.825   4.587  15.969 -0.9228  2.0438  2.1592
 1291TIP3    H225365   5.801   4.504  16.094  0.3529  1.2098  1.8692
 1292TIP3   OH225366   6.064   2.847   3.625  0.9496  0.2486 -0.0885
 1292TIP3    H125367   6.018   2.789   3.565  1.4734  0.9191 -1.1615
 1292TIP3    H225368   6.045   2.812   3.712  1.0892 -1.3942 -0.7007
 1293TIP3   OH225369   0.818   1.852   2.401  0.3819  0.3494  0.2479
 1293TIP3    H125370   0.902   1.859   2.355 -0.5962 -1.7630 -2.1029
 1293TIP3    H225371   0.830   1.778   2.462  0.1682 -0.1438 -0.2994
 1294TIP3   OH225372   0.999   6.811   3.764  0.2803  0.5497 -0.3120
 1294TIP3    H125373   1.093   6.809   3.779  0.0763 -0.0865  1.0868
 1294TIP3    H225374   0.970   6.896   3.796  0.3778  0.7529 -0.7609
 1295TIP3   OH225375   1.007   6.704   4.737 -0.2182  0.2396 -0.0210
 1295TIP3    H125376   1.015   6.754   4.819  2.9045 -2.6943  1.7479
 1295TIP3    H225377   1.019   6.769   4.668  2.8197  2.1810  2.0554
 1296TIP3   OH225378   4.061   3.322  13.753  0.6679 -0.2184 -0.4713
 1296TIP3    H125379   4.097   3.255  13.694  3.0101 -0.6219  1.2828
 1296TIP3    H225380   4.020   3.385  13.695 -0.9895 -2.7338 -2.2744
 1297TIP3   OH225381   5.123   6.813   4.652  0.3069  0.0992 -0.2780
 1297TIP3    H125382   5.174   6.856   4.721 -0.6541  1.9787 -0.6591
 1297TIP3    H225383   5.170   6.732   4.635  2.0812  0.8466  0.7131
 1298TIP3   OH225384   5.825   0.341  16.544  0.8047 -0.1434  0.0935
 1298TIP3    H125385   5.790   0.254  16.525  1.3454 -0.6521  1.3319
 1298TIP3    H225386   5.758   0.382  16.599  0.1836  0.5443 -1.1416
 1299TIP3   OH225387   4.524   0.278  17.236  0.0414  0.5158 -1.2213
 1299TIP3    H125388   4.443   0.279  17.286  0.1708 -0.7007 -0.9671
 1299TIP3    H225389   4.533   0.187  17.205  2.3679  0.0582  0.5223
 1300TIP3   OH225390   1.801   0.727   2.344 -0.1394 -0.1915 -0.7289
 1300TIP3    H125391   1.723   0.705   2.395  0.4967 -0.0271  0.3561
 1300TIP3    H225392   1.802   0.664   2.273 -0.4967 -1.1089  0.0560
 1301TIP3   OH225393   6.334   5.930  14.727  0.0092  0.4965  0.3966
 1301TIP3    H125394   6.275   5.871  14.774  2.5665 -0.4782  2.6688
 1301TIP3    H225395   6.289   6.014  14.727 -0.9964  0.0522  2.9695
 1302TIP3   OH225396   1.390   6.704   4.749 -0.4664 -0.2276 -0.0754
 1302TIP3    H125397   1.380   6.728   4.841  1.3572 -0.0792  0.1193
 1302TIP3    H225398   1.348   6.776   4.701 -1.9587 -0.5948  0.6020
 1303TIP3   OH225399   3.958   2.660   1.231  0.3992 -0.1314 -0.1269
 1303TIP3    H125400   3.863   2.649   1.227  0.4066 -0.7876  0.9716
 1303TIP3    H225401   3.976   2.674   1.324  1.3220  0.6619 -0.4055
 1304TIP3   OH225402   6.375   4.718  11.906 -0.8685  0.3970 -0.0875
 1304TIP3    H125403   6.310   4.650  11.920 -0.6346  0.1429 -0.2358
 1304TIP3    H225404   6.432   4.684  11.837  0.1874  0.0541  0.9013
 1305TIP3   OH225405   4.259   0.722   4.758 -0.0959  0.0456 -0.3011
 1305TIP3    H125406   4.189   0.775   4.797  0.1038  1.0176 -1.2117
 1305TIP3    H225407   4.270   0.649   4.819  0.2495  1.5145  1.4974
 1306TIP3   OH225408   6.649   4.486  13.684  0.4279  0.0619  0.5543
 1306TIP3    H125409   6.557   4.488  13.660  0.3179 -0.8202  0.8715
 1306TIP3    H225410   6.649   4.499  13.779  0.7601  1.9757  0.3199
 1307TIP3   OH225411   5.463   1.380   2.658 -0.1861 -0.1595  0.5411
 1307TIP3    H125412   5.491   1.400   2.748  1.3215 -0.6970  0.2285
 1307TIP3    H225413   5.544   1.355   2.614 -0.7980  0.6890 -1.1388
 1308TIP3   OH225414   5.815   5.699   0.273  0.4386  0.4124 -0.4857
 1308TIP3    H125415   5.752   5.771   0.260 -0.0307 -0.0830 -0.9797
 1308TIP3    H225416   5.869   5.729   0.347 -1.7960 -0.0836  1.5050
 1309TIP3   OH225417   1.705   5.684  14.069  0.6313  0.8239  0.3452
 1309TIP3    H125418   1.647   5.614  14.037 -0.0030  1.1819  0.7073
 1309TIP3    H225419   1.668   5.710  14.153  1.2268  1.1749  0.5064
 1310TIP3   OH225420   4.535   5.971   2.907 -0.2756 -0.4255  0.2579
 1310TIP3    H125421   4.625   5.939   2.901  0.1954  1.0727 -1.5651
 1310TIP3    H225422   4.492   5.937   2.828 -1.4655 -1.4828  1.3221
 1311TIP3   OH225423   6.258   4.018   3.416 -0.7232  0.3786 -0.3541
 1311TIP3    H125424   6.244   4.004   3.509 -0.1703 -0.7115 -0.4103
 1311TIP3    H225425   6.353   4.025   3.406 -0.7926  0.7514 -0.7977
 1312TIP3   OH225426   1.546   5.981  11.385 -0.0807  0.7949 -0.0185
 1312TIP3    H125427   1.456   5.992  11.352 -1.1887  0.4529  2.5840
 1312TIP3    H225428   1.579   6.071  11.392 -0.4491  0.9695 -0.4618
 1313TIP3   OH225429   2.650   4.099   6.550  0.0120  0.1442 -0.2673
 1313TIP3    H125430   2.739   4.104   6.515  0.5762 -1.0450  0.9541
 1313TIP3    H225431   2.600   4.054   6.481  0.2311  1.1628 -1.1256
 1314TIP3   OH225432   1.893   2.881   3.142 -0.5141 -0.0610  0.6886
 1314TIP3    H125433   1.982   2.884   3.178 -0.1760  0.2548 -0.1483
 1314TIP3    H225434   1.850   2.957   3.181 -0.4150 -0.2023  1.0811
 1315TIP3   OH225435   0.868   0.707   5.898  0.7678  0.1700  0.2339
 1315TIP3    H125436   0.825   0.752   5.970 -1.0661 -0.8156 -0.1903
 1315TIP3    H225437   0.851   0.762   5.821 -0.6750 -0.7141 -0.1155
 1316TIP3   OH225438   4.267   3.623  11.472 -0.0917 -0.0713  0.4750
 1316TIP3    H125439   4.172   3.625  11.488 -0.0741  0.6213  0.5438
 1316TIP3    H225440   4.281   3.544  11.421 -1.0751  1.1236 -1.8009
 1317TIP3   OH225441   4.421   4.683   3.772 -0.1028 -0.1818  0.6061
 1317TIP3    H125442   4.400   4.705   3.682 -0.7323 -2.6168  0.0892
 1317TIP3    H225443   4.371   4.746   3.825 -2.1436 -0.6090 -0.7237
 1318TIP3   OH225444   0.987   1.130  14.014 -0.2833  0.5892 -0.6245
 1318TIP3    H125445   0.997   1.035  14.018 -0.3627  0.4454 -2.6291
 1318TIP3    H225446   0.895   1.146  14.038  0.2846  0.4066  1.8805
 1319TIP3   OH225447   5.441   0.132   6.607  0.0742  0.7452 -0.2208
 1319TIP3    H125448   5.466   0.085   6.687  0.4611 -0.7128 -1.1514
 1319TIP3    H225449   5.521   0.178   6.580  0.8424 -1.1081 -1.3013
 1320TIP3   OH225450   4.105   0.275  15.476  0.7952  0.1486 -0.2067
 1320TIP3    H125451   4.044   0.201  15.474 -0.3030  0.9616  1.3407
 1320TIP3    H225452   4.108   0.301  15.568  0.7655  2.3404 -0.7659
 1321TIP3   OH225453   5.455   3.713  16.284  0.0469  0.1506  0.2645
 1321TIP3    H125454   5.410   3.647  16.337  1.8475  0.3140  2.1194
 1321TIP3    H225455   5.449   3.794  16.335 -1.2613  1.2586 -1.5130
 1322TIP3   OH225456   0.991   3.567  14.486  0.2070 -0.4234  0.3208
 1322TIP3    H125457   0.999   3.632  14.556  0.5213 -0.1320  0.0226
 1322TIP3    H225458   0.920   3.510  14.514 -1.1576  0.9712 -0.1402
 1323TIP3   OH225459   4.127   2.801  12.867 -0.4044 -0.0753 -0.1414
 1323TIP3    H125460   4.167   2.884  12.892  0.5600 -0.1713 -1.3197
 1323TIP3    H225461   4.113   2.809  12.773  0.2770 -1.4853 -0.3792
 1324TIP3   OH225462   1.417   2.140   5.082 -0.1889  0.0086  0.1180
 1324TIP3    H125463   1.503   2.170   5.054  0.6883 -2.6435 -0.2669
 1324TIP3    H225464   1.358   2.166   5.011  0.9014 -1.0929 -1.2447
 1325TIP3   OH225465   5.689   1.443   0.545  0.5379 -0.6303  0.4785
 1325TIP3    H125466   5.705   1.527   0.500  2.0490 -0.4973  1.2223
 1325TIP3    H225467   5.608   1.458   0.594  1.0499  0.5762  0.9965
 1326TIP3   OH225468   4.565   6.743   5.510 -0.1266 -0.3692 -0.1326
 1326TIP3    H125469   4.498   6.763   5.445 -2.2639 -0.0761  2.0447
 1326TIP3    H225470   4.634   6.808   5.493 -1.2424  0.5940 -1.2168
 1327TIP3   OH225471   1.994   4.790  15.977 -0.1067 -0.1772  0.5093
 1327TIP3    H125472   1.995   4.737  16.056 -2.0762  0.0718  0.7749
 1327TIP3    H225473   1.905   4.826  15.974  0.6383  1.7284 -0.5561
 1328TIP3   OH225474   4.872   6.336  13.436 -0.7056  0.2255 -0.4677
 1328TIP3    H125475   4.910   6.269  13.379  0.6979  0.9913 -0.4596
 1328TIP3    H225476   4.872   6.296  13.523 -0.8090 -0.1226 -0.6229
 1329TIP3   OH225477   6.418   5.647   6.290  0.1375  0.2692  0.0353
 1329TIP3    H125478   6.506   5.614   6.310  0.3732  0.0735 -1.2294
 1329TIP3    H225479   6.430   5.702   6.213 -0.5770  1.7802  0.9479
 1330TIP3   OH225480   3.752   1.424   2.414 -0.2151 -0.1607  0.4608
 1330TIP3    H125481   3.817   1.361   2.383  0.3658  0.2325  0.8559
 1330TIP3    H225482   3.675   1.371   2.435 -0.2778 -0.5513 -0.6853
 1331TIP3   OH225483   6.553   3.295   5.869 -0.4618 -0.3508  0.0399
 1331TIP3    H125484   6.579   3.308   5.960  0.3453 -0.5548 -0.1495
 1331TIP3    H225485   6.626   3.330   5.818 -0.4758 -1.1059 -0.5145
 1332TIP3   OH225486   4.531   5.738   3.170 -0.6937 -0.6188  0.7470
 1332TIP3    H125487   4.449   5.769   3.132 -0.4221 -0.9128 -0.1080
 1332TIP3    H225488   4.568   5.815   3.214  0.0936  0.4200 -1.5552
 1333TIP3   OH225489   6.459   2.356   2.870  0.3623  0.9083  0.1023
 1333TIP3    H125490   6.395   2.425   2.850 -0.9260 -0.1990  0.2334
 1333TIP3    H225491   6.406   2.285   2.906  1.4715 -0.6462 -1.2089
 1334TIP3   OH225492   0.368   1.146  11.906 -0.1402 -0.1754  0.4271
 1334TIP3    H125493   0.396   1.237  11.893  1.0722 -0.5889 -0.0563
 1334TIP3    H225494   0.436   1.094  11.863 -0.2708 -1.3467  1.5645
 1335TIP3   OH225495   0.542   3.077  14.895  0.5296  0.1363 -0.0501
 1335TIP3    H125496   0.474   3.015  14.871  0.3853  0.1988  0.1949
 1335TIP3    H225497   0.585   3.038  14.971 -1.5691  1.7261  2.1416
 1336TIP3   OH225498   6.797   3.091   4.616  0.2214  0.3249  0.2933
 1336TIP3    H125499   6.863   3.023   4.625  1.4249  1.4045  0.0118
 1336TIP3    H225500   6.734   3.073   4.685  0.1190 -1.4658 -0.2150
 1337TIP3   OH225501   2.210   2.795   0.567  0.2977 -0.0886  0.5728
 1337TIP3    H125502   2.299   2.764   0.551 -0.5795 -2.8782  0.4751
 1337TIP3    H225503   2.218   2.890   0.572  3.1445 -0.1936 -0.1384
 1338TIP3   OH225504   1.542   4.499  13.984 -0.0513 -0.2297 -0.4575
 1338TIP3    H125505   1.507   4.584  13.959 -1.5449 -0.9154 -0.8371
 1338TIP3    H225506   1.552   4.451  13.902 -0.6206 -0.9106 -0.1448
 1339TIP3   OH225507   4.730   3.265  14.036  0.6165 -0.3058  0.4212
 1339TIP3    H125508   4.824   3.274  14.054  0.3770  1.0100  1.0926
 1339TIP3    H225509   4.693   3.351  14.056 -0.4739 -0.2478 -1.6355
 1340TIP3   OH225510   3.837   4.509  11.248  0.1605  0.4820 -1.1821
 1340TIP3    H125511   3.905   4.475  11.190  0.1043  1.1666 -1.6568
 1340TIP3    H225512   3.882   4.574  11.302  0.1947 -0.0886 -0.5027
 1341TIP3   OH225513   0.081   0.485   4.968 -0.5277 -0.4519 -0.1533
 1341TIP3    H125514   0.139   0.447   4.902 -1.9611 -1.2583 -1.0128
 1341TIP3    H225515   0.045   0.409   5.014 -2.1328 -0.0924 -0.7548
 1342TIP3   OH225516   6.034   1.304  17.025 -0.2634 -0.1487 -0.0724
 1342TIP3    H125517   5.969   1.335  17.088  0.2036  0.2568  0.2233
 1342TIP3    H225518   5.987   1.298  16.942 -0.3819  1.3414 -0.1363
 1343TIP3   OH225519   0.962   4.759   1.087  0.0596  0.2433 -0.6670
 1343TIP3    H125520   0.938   4.676   1.047 -1.7355 -1.6961  3.8640
 1343TIP3    H225521   0.879   4.803   1.104  0.3437 -0.4716  3.3774
 1344TIP3   OH225522   0.229   0.322  14.150 -0.2611  0.5251  0.3592
 1344TIP3    H125523   0.298   0.357  14.093 -1.0695  1.3202 -0.1548
 1344TIP3    H225524   0.188   0.399  14.189 -0.3891  0.0246  1.2226
 1345TIP3   OH225525   2.601   6.122  16.559  0.0167  0.5420 -0.4878
 1345TIP3    H125526   2.511   6.098  16.535  0.1696  1.3022 -1.9535
 1345TIP3    H225527   2.621   6.068  16.634 -1.6165  0.2247 -0.2403
 1346TIP3   OH225528   0.469   0.503  13.948 -0.0136 -0.0069  0.3062
 1346TIP3    H125529   0.537   0.455  13.995  0.3917 -0.6053 -0.8705
 1346TIP3    H225530   0.513   0.581  13.914 -0.0305 -0.1524 -0.0511
 1347TIP3   OH225531   6.144   3.109   2.240 -0.5427 -0.7087  0.2888
 1347TIP3    H125532   6.084   3.101   2.166  0.0579  0.6622 -0.3934
 1347TIP3    H225533   6.105   3.179   2.293 -0.2937 -0.7945  0.5814
 1348TIP3   OH225534   4.512   3.166  16.966  0.1900  0.6714 -0.0976
 1348TIP3    H125535   4.461   3.157  16.886 -1.4309  0.0495  0.9516
 1348TIP3    H225536   4.512   3.260  16.984  1.0164  0.8797 -1.0647
 1349TIP3   OH225537   5.156   2.246   0.789 -0.0567 -0.0556  0.5767
 1349TIP3    H125538   5.095   2.230   0.861 -0.8073  1.1953  0.2407
 1349TIP3    H225539   5.116   2.317   0.739  0.9915 -0.1697 -0.4609
 1350TIP3   OH225540   5.388   6.055   6.699  0.2149 -0.3774  0.9583
 1350TIP3    H125541   5.314   6.115   6.699  0.6121  0.1377 -0.5614
 1350TIP3    H225542   5.377   6.002   6.620  1.0107 -0.8667  1.1602
 1351TIP3   OH225543   3.764   3.693  10.951  0.4531  0.7804 -0.0565
 1351TIP3    H125544   3.854   3.708  10.922  0.1271 -0.1902 -1.7064
 1351TIP3    H225545   3.714   3.766  10.913  0.4152  0.8768  0.1783
 1352TIP3   OH225546   0.795   5.918   0.960  0.2726  0.6859 -0.1273
 1352TIP3    H125547   0.776   6.011   0.949 -3.8594  0.1315  0.6503
 1352TIP3    H225548   0.809   5.907   1.054 -3.5352  0.1220  0.5399
 1353TIP3   OH225549   6.318   6.081   3.409  0.2263 -0.7548 -0.3410
 1353TIP3    H125550   6.235   6.129   3.407  0.7454  0.2291  0.5580
 1353TIP3    H225551   6.359   6.101   3.325  0.7772  1.0556  0.3171
 1354TIP3   OH225552   3.456   6.145  16.574  0.0135  0.1134 -0.3586
 1354TIP3    H125553   3.384   6.140  16.636 -0.5895 -1.2969 -1.1256
 1354TIP3    H225554   3.532   6.114  16.622 -0.0907  0.6450  0.1577
 1355TIP3   OH225555   4.655   1.122   1.479  0.0437 -0.3292  0.3209
 1355TIP3    H125556   4.742   1.086   1.495  0.6081  0.3462 -1.1490
 1355TIP3    H225557   4.596   1.049   1.498  0.9511 -0.9672  0.7692
 1356TIP3   OH225558   2.899   2.634   2.031  0.9297  0.3063 -0.7859
 1356TIP3    H125559   2.864   2.560   1.981 -1.9184  1.9948 -1.5181
 1356TIP3    H225560   2.883   2.611   2.123  0.3121 -0.1220 -0.9910
 1357TIP3   OH225561   3.082   2.601  14.342 -0.2891 -0.1708 -0.0554
 1357TIP3    H125562   3.155   2.662  14.347 -0.6929  0.3589 -0.4760
 1357TIP3    H225563   3.120   2.521  14.306 -0.2898  0.7676 -2.3028
 1358TIP3   OH225564   4.502   3.015  15.111  0.2715  0.1998 -0.1547
 1358TIP3    H125565   4.496   2.920  15.104  1.7312  0.2227 -3.1164
 1358TIP3    H225566   4.427   3.048  15.061  0.9412  0.5656 -0.9433
 1359TIP3   OH225567   1.941   0.429  12.341  0.6799  0.1826  0.7948
 1359TIP3    H125568   1.982   0.362  12.396 -1.1021 -2.1965 -0.5464
 1359TIP3    H225569   2.011   0.457  12.282  0.9041 -2.8270 -0.6054
 1360TIP3   OH225570   3.485   2.622   6.309  0.1006 -0.2533  0.5030
 1360TIP3    H125571   3.511   2.606   6.400 -0.9452  0.7079  1.0085
 1360TIP3    H225572   3.446   2.710   6.311  1.3142  0.3646 -1.1527
 1361TIP3   OH225573   6.744   3.609  16.716  0.7428 -0.4765 -0.2246
 1361TIP3    H125574   6.661   3.655  16.702  0.8678 -0.5551 -1.3027
 1361TIP3    H225575   6.721   3.535  16.772  0.2374 -0.0465  0.1471
 1362TIP3   OH225576   6.294   1.923  12.070  0.6545  0.3258  0.1119
 1362TIP3    H125577   6.337   1.972  11.999  1.1925  1.4870  1.1849
 1362TIP3    H225578   6.274   1.838  12.032  1.2787  0.7803 -1.3141
 1363TIP3   OH225579   5.110   0.720  13.778 -0.8734  0.3381  0.0030
 1363TIP3    H125580   5.091   0.693  13.868 -2.0856  0.9352 -0.0528
 1363TIP3    H225581   5.083   0.811  13.775 -1.8919  0.0141 -1.2630
 1364TIP3   OH225582   1.920   3.196  11.682  0.4374  0.1779 -0.3563
 1364TIP3    H125583   1.955   3.118  11.726 -1.8255 -0.5162  0.3357
 1364TIP3    H225584   1.967   3.198  11.598  0.3992 -2.1038 -0.5088
 1365TIP3   OH225585   5.311   1.247  12.841 -0.2655  0.0551  0.0936
 1365TIP3    H125586   5.255   1.324  12.852 -2.8068 -1.1987 -2.6503
 1365TIP3    H225587   5.283   1.187  12.911  0.9937  1.1015  1.5799
 1366TIP3   OH225588   1.560   6.531  12.974 -0.2781  0.5930  0.1592
 1366TIP3    H125589   1.563   6.436  12.983 -0.8392  0.4846 -0.6281
 1366TIP3    H225590   1.605   6.565  13.051 -2.6616 -0.2626  2.0517
 1367TIP3   OH225591   0.439   2.533   5.223 -0.6467  0.0431 -0.3676
 1367TIP3    H125592   0.453   2.438   5.228  0.6356  0.1777 -0.8425
 1367TIP3    H225593   0.440   2.561   5.315 -0.3394 -0.3292 -0.2484
 1368TIP3   OH225594   4.445   5.228   3.252 -0.2572  0.1566 -0.4312
 1368TIP3    H125595   4.526   5.230   3.201 -0.7364  1.0445 -1.1901
 1368TIP3    H225596   4.378   5.264   3.194 -0.8137  1.2859  0.8320
 1369TIP3   OH225597   0.168   3.730   1.852  0.1552  0.4821 -0.3382
 1369TIP3    H125598   0.101   3.664   1.833  1.8858 -1.5766  0.2830
 1369TIP3    H225599   0.248   3.679   1.868  1.3902  2.7120  1.0888
 1370TIP3   OH225600   5.609   6.425  11.126  0.6249 -0.3022 -0.0021
 1370TIP3    H125601   5.701   6.427  11.100  0.7589  3.4325  0.2379
 1370TIP3    H225602   5.561   6.405  11.045  1.5487  0.1232 -0.6660
 1371TIP3   OH225603   4.896   4.169  12.377 -0.0625  0.0326  0.8175
 1371TIP3    H125604   4.852   4.192  12.295  0.5746  0.6979  0.6580
 1371TIP3    H225605   4.824   4.142  12.435 -0.4113 -1.5681 -0.3090
 1372TIP3   OH225606   2.347   1.120  16.403  0.6059 -0.1529 -0.0591
 1372TIP3    H125607   2.404   1.125  16.325 -1.2074 -2.2905 -1.6295
 1372TIP3    H225608   2.260   1.142  16.370  0.0548  0.6441  1.7980
 1373TIP3   OH225609   0.639   6.814   2.777 -0.3894  0.0548 -0.1512
 1373TIP3    H125610   0.697   6.857   2.714 -0.2543 -0.6118 -0.4897
 1373TIP3    H225611   0.686   6.818   2.860 -0.3366  0.4709 -0.1971
 1374TIP3   OH225612   3.924   6.400  13.591  0.1282  0.1875 -0.2254
 1374TIP3    H125613   3.914   6.330  13.655 -0.4774 -0.0078 -0.5281
 1374TIP3    H225614   3.987   6.460  13.631 -1.4242  0.9103  1.2819
 1375TIP3   OH225615   6.486   3.417   4.199 -0.2265  0.6165 -0.3779
 1375TIP3    H125616   6.426   3.347   4.174  0.6082  0.1422 -1.1240
 1375TIP3    H225617   6.469   3.486   4.135 -1.4556  1.3506  0.7088
 1376TIP3   OH225618   3.669   2.104  13.537  0.0552 -0.1221  0.3886
 1376TIP3    H125619   3.679   2.078  13.629  0.5418 -0.5275  0.2239
 1376TIP3    H225620   3.574   2.114  13.525 -0.0306 -0.3592  0.8559
 1377TIP3   OH225621   6.410   5.509  12.145  0.6351 -0.0159  0.5573
 1377TIP3    H125622   6.369   5.458  12.215  1.4500 -0.8773  0.4205
 1377TIP3    H225623   6.349   5.581  12.130 -0.8642 -1.2784  0.3411
 1378TIP3   OH225624   0.085   0.172   4.469  0.1173  0.0285  0.1218
 1378TIP3    H125625   0.091   0.266   4.486  1.4722  0.2101 -1.1409
 1378TIP3    H225626   0.168   0.136   4.502 -0.1252 -0.6214  0.0477
 1379TIP3   OH225627   1.641   5.094   2.266 -0.0247 -0.4838  0.1180
 1379TIP3    H125628   1.617   5.002   2.272 -0.8158 -0.2887  0.1454
 1379TIP3    H225629   1.680   5.115   2.351  0.0645 -0.7688  0.1468
 1380TIP3   OH225630   0.617   3.700  11.221 -0.9694 -0.5519  0.3013
 1380TIP3    H125631   0.694   3.643  11.227 -2.2242 -2.6067 -1.4904
 1380TIP3    H225632   0.634   3.755  11.144 -0.7918 -0.1758  0.6073
 1381TIP3   OH225633   1.325   5.395   0.421  0.6599  0.0406  0.1988
 1381TIP3    H125634   1.254   5.422   0.363  1.7600  0.4382 -0.9850
 1381TIP3    H225635   1.282   5.385   0.507 -0.8804 -0.0334 -0.5358
 1382TIP3   OH225636   4.635   2.203   0.982  0.2203  0.1524  0.0816
 1382TIP3    H125637   4.552   2.222   0.938  0.4911 -0.0361 -0.5296
 1382TIP3    H225638   4.656   2.283   1.030  0.7065  0.9713 -1.4270
 1383TIP3   OH225639   3.541   2.171  12.079  0.5972 -0.6622  0.2080
 1383TIP3    H125640   3.555   2.261  12.109 -1.4648 -0.2375  0.0837
 1383TIP3    H225641   3.523   2.122  12.159  1.0694 -0.8317  0.2119
 1384TIP3   OH225642   5.225   2.341  12.683  0.1593  0.3151 -0.1574
 1384TIP3    H125643   5.217   2.312  12.592 -2.4040  2.9607 -0.9635
 1384TIP3    H225644   5.308   2.389  12.686  2.1467 -2.8487  0.0359
 1385TIP3   OH225645   0.328   5.165   4.344 -0.8305 -0.2932 -0.1151
 1385TIP3    H125646   0.307   5.258   4.358  1.9102  0.4699 -0.5498
 1385TIP3    H225647   0.270   5.138   4.273 -0.9779  1.3824 -0.6885
 1386TIP3   OH225648   2.454   3.298  15.062  0.3360  0.3359  0.1467
 1386TIP3    H125649   2.487   3.371  15.009  0.1517  0.5099  0.2702
 1386TIP3    H225650   2.496   3.308  15.147  0.0027  0.5341  0.2909
 1387TIP3   OH225651   2.057   1.164   0.661 -0.5283  0.0184 -0.2769
 1387TIP3    H125652   2.106   1.180   0.742 -1.0042 -1.2735  0.2881
 1387TIP3    H225653   2.010   1.246   0.645  0.3059  0.6168  0.2200
 1388TIP3   OH225654   5.640   2.329  15.613  0.1221 -0.1459 -0.1049
 1388TIP3    H125655   5.631   2.244  15.569  0.4622 -0.4430  0.3923
 1388TIP3    H225656   5.686   2.384  15.549 -3.2312  0.8354 -1.9523
 1389TIP3   OH225657   1.343   5.226  16.600 -0.0015 -0.3014 -0.3902
 1389TIP3    H125658   1.435   5.209  16.622  0.0717 -0.9656 -1.1666
 1389TIP3    H225659   1.293   5.166  16.655  0.0498 -0.1640 -0.1949
 1390TIP3   OH225660   3.462   3.189   0.148  0.4919  1.1430  0.0140
 1390TIP3    H125661   3.536   3.197   0.087  1.5144 -0.6038  0.9624
 1390TIP3    H225662   3.502   3.193   0.235  0.0551 -3.2230  0.6243
 1391TIP3   OH225663   2.135   1.558  13.867  0.3366  0.2582 -0.0959
 1391TIP3    H125664   2.090   1.516  13.794  0.6037  0.5520 -0.4334
 1391TIP3    H225665   2.069   1.563  13.937  0.2365 -0.5248 -0.1185
 1392TIP3   OH225666   1.660   3.666   1.377  0.4671  0.0192 -0.2972
 1392TIP3    H125667   1.700   3.594   1.427 -1.0468 -0.4372  0.3166
 1392TIP3    H225668   1.566   3.649   1.382  0.1559  1.2775 -1.3538
 1393TIP3   OH225669   5.831   6.812   5.973  0.5661 -0.0628 -0.6983
 1393TIP3    H125670   5.804   6.773   6.056 -1.7966 -2.1896 -2.3597
 1393TIP3    H225671   5.915   6.770   5.954  0.6443 -0.3009  0.1031
 1394TIP3   OH225672   4.234   2.110   6.338 -0.5677  0.4110 -0.1893
 1394TIP3    H125673   4.168   2.046   6.366  0.4178 -1.5950 -2.1573
 1394TIP3    H225674   4.317   2.071   6.366  0.0055  1.1947 -0.7923
 1395TIP3   OH225675   6.575   0.501  16.728 -0.2172  0.4480  0.7216
 1395TIP3    H125676   6.543   0.436  16.790  0.0857 -2.2266 -1.7057
 1395TIP3    H225677   6.499   0.556  16.709 -1.5342 -1.4465  0.2375
 1396TIP3   OH225678   5.619   4.478  16.114  0.2794  0.3549  0.0411
 1396TIP3    H125679   5.567   4.546  16.071 -0.0182 -0.4307 -0.8879
 1396TIP3    H225680   5.602   4.489  16.208 -2.2529 -0.3722 -0.2509
 1397TIP3   OH225681   2.802   6.170  12.357  0.2835 -0.5482 -0.0582
 1397TIP3    H125682   2.879   6.220  12.330 -1.1884  1.2679 -1.1195
 1397TIP3    H225683   2.802   6.094  12.298 -0.1515  0.8130 -1.8993
 1398TIP3   OH225684   0.754   3.452   1.238 -0.1257 -0.0676  0.3248
 1398TIP3    H125685   0.846   3.478   1.233  0.6578 -2.2291  1.7619
 1398TIP3    H225686   0.753   3.360   1.209 -2.1307  0.3747 -1.2229
 1399TIP3   OH225687   2.236   3.754   2.734 -0.2370 -0.5650 -0.2294
 1399TIP3    H125688   2.166   3.803   2.692  0.7521  1.0056 -0.1240
 1399TIP3    H225689   2.229   3.665   2.699 -0.5677  0.2422 -2.3125
 1400TIP3   OH225690   1.883   5.608  12.820  0.2062  0.5570  0.0574
 1400TIP3    H125691   1.947   5.558  12.770  1.4347  1.2842  0.8547
 1400TIP3    H225692   1.816   5.632  12.756  0.3929 -0.7379 -0.6630
 1401TIP3   OH225693   4.512   3.152  15.997 -0.1393 -0.2927 -0.7880
 1401TIP3    H125694   4.552   3.186  15.917  0.3187  1.5128  0.1653
 1401TIP3    H225695   4.581   3.100  16.037  1.0633  2.0463  0.3744
 1402TIP3   OH225696   3.192   5.322  13.962 -0.0475 -0.0628  0.1633
 1402TIP3    H125697   3.203   5.321  13.867  0.4709  1.2933  0.1879
 1402TIP3    H225698   3.097   5.324  13.976 -0.1196  0.1785 -0.3404
 1403TIP3   OH225699   5.807   4.688  11.536 -0.0573 -0.0629 -0.1384
 1403TIP3    H125700   5.715   4.698  11.510 -0.4982  0.2596  1.4803
 1403TIP3    H225701   5.821   4.593  11.535 -1.0485 -0.2754  1.6030
 1404TIP3   OH225702   4.372   0.514  11.094  0.0978  0.2821 -0.3184
 1404TIP3    H125703   4.462   0.534  11.118  0.4329 -0.3641 -0.9772
 1404TIP3    H225704   4.378   0.482  11.004 -0.8382  0.5820 -0.5016
 1405TIP3   OH225705   0.083   0.400   0.895 -0.5286  0.7869  0.4300
 1405TIP3    H125706   0.174   0.373   0.880 -0.3824  0.4657  1.8278
 1405TIP3    H225707   0.058   0.357   0.976 -2.2133  0.2179 -0.3478
 1406TIP3   OH225708   6.760   1.237  12.280 -0.5149  0.1390  0.2395
 1406TIP3    H125709   6.763   1.332  12.291  0.3166  0.2890 -1.1390
 1406TIP3    H225710   6.833   1.217  12.221 -0.1540 -1.4571  1.1646
 1407TIP3   OH225711   3.851   1.073  15.280  0.1122  0.4167  0.1750
 1407TIP3    H125712   3.873   1.146  15.338  1.3710 -0.0453  0.3009
 1407TIP3    H225713   3.924   1.066  15.220 -0.4478 -0.1384 -0.4630
 1408TIP3   OH225714   1.185   6.408  17.068  0.0046  0.1227  0.3103
 1408TIP3    H125715   1.092   6.384  17.074 -0.3975  1.8073  1.9405
 1408TIP3    H225716   1.208   6.390  16.977 -2.0318  0.0333 -0.2535
 1409TIP3   OH225717   4.937   6.056  16.525  0.0338 -0.2681 -0.3850
 1409TIP3    H125718   4.860   6.109  16.546  0.5853  0.2900  0.2708
 1409TIP3    H225719   5.007   6.120  16.509  0.4814 -0.7748 -0.4961
 1410TIP3   OH225720   5.509   0.106   5.266  0.3625  0.3263  0.4347
 1410TIP3    H125721   5.479   0.183   5.217  1.9625  0.5018 -0.3515
 1410TIP3    H225722   5.487   0.125   5.357 -0.1074  1.2971  0.1266
 1411TIP3   OH225723   0.607   3.859  13.706  0.2696 -0.4478  0.1788
 1411TIP3    H125724   0.541   3.910  13.658  0.7712 -0.3518 -0.4239
 1411TIP3    H225725   0.567   3.841  13.791 -0.6778 -0.7168 -0.3206
 1412TIP3   OH225726   1.802   4.128   4.397  0.2249  0.4118 -0.0816
 1412TIP3    H125727   1.712   4.125   4.428  0.5137  1.1196  0.8955
 1412TIP3    H225728   1.841   4.046   4.427  0.0858  0.4191  0.1218
 1413TIP3   OH225729   4.631   3.260  15.739  0.0420  0.3108  0.2278
 1413TIP3    H125730   4.570   3.228  15.672 -0.8009 -0.4770  1.3265
 1413TIP3    H225731   4.717   3.229  15.710 -0.3087 -0.0187 -0.4896
 1414TIP3   OH225732   0.751   1.479   4.592  0.3594 -0.2129 -0.3625
 1414TIP3    H125733   0.696   1.439   4.525 -0.2276  0.5534 -0.3526
 1414TIP3    H225734   0.797   1.550   4.547  0.8842 -0.4574 -0.2258
 1415TIP3   OH225735   2.385   5.940   5.132 -0.8499  0.3949  0.2701
 1415TIP3    H125736   2.384   5.850   5.163  1.9347  0.6719  1.4370
 1415TIP3    H225737   2.428   5.936   5.046 -0.5111  0.6416  0.4266
 1416TIP3   OH225738   3.447   5.776  13.437  0.4999 -0.4578 -0.4864
 1416TIP3    H125739   3.426   5.711  13.370 -1.2655  1.8700 -2.3948
 1416TIP3    H225740   3.367   5.783  13.489  0.9442 -0.3528  0.1899
 1417TIP3   OH225741   1.022   3.772   5.166  0.4500  0.6848  0.1569
 1417TIP3    H125742   1.053   3.858   5.137 -2.3262  1.7595  0.1151
 1417TIP3    H225743   0.994   3.728   5.086 -0.2333  0.6721  0.3941
 1418TIP3   OH225744   6.552   4.364   4.598  0.0147  0.3926  0.1496
 1418TIP3    H125745   6.515   4.346   4.512 -0.8025 -1.4335  0.8414
 1418TIP3    H225746   6.644   4.337   4.591 -0.1823 -0.2544 -0.0081
 1419TIP3   OH225747   4.524   6.479  14.458 -1.2811  0.2594  0.2937
 1419TIP3    H125748   4.600   6.525  14.422 -1.7468 -0.6854 -2.1175
 1419TIP3    H225749   4.453   6.542  14.455 -1.0537  0.5412  0.7021
 1420TIP3   OH225750   6.005   5.188   0.249  0.3852  0.5199  0.2632
 1420TIP3    H125751   5.914   5.160   0.254  0.1351  1.3636  0.5082
 1420TIP3    H225752   6.052   5.129   0.309  0.1497 -0.4431 -0.4693
 1421TIP3   OH225753   3.970   3.337  11.068 -0.0407 -0.2838  0.0595
 1421TIP3    H125754   3.995   3.425  11.040 -2.0996  0.6996  1.0942
 1421TIP3    H225755   3.965   3.343  11.164 -1.2473 -1.1988  0.0834
 1422TIP3   OH225756   3.455   0.071  15.533 -0.7567 -0.0971 -0.1919
 1422TIP3    H125757   3.405  -0.009  15.544  2.3461 -2.1938  0.0853
 1422TIP3    H225758   3.478   0.097  15.622 -1.7053  1.1344 -0.2839
 1423TIP3   OH225759   5.310   1.659   2.435  0.2240  0.0101  0.0223
 1423TIP3    H125760   5.304   1.637   2.342 -1.9847  1.0729 -0.1645
 1423TIP3    H225761   5.280   1.580   2.480  0.2129 -0.1321 -0.2317
 1424TIP3   OH225762   5.418   6.068   5.566 -0.1269  0.3881  0.5265
 1424TIP3    H125763   5.467   6.112   5.496 -0.0821  0.2402  0.4643
 1424TIP3    H225764   5.370   6.138   5.610  0.9807  0.6922  1.2822
 1425TIP3   OH225765   0.620   6.150   3.970 -0.4891  0.5486 -0.9660
 1425TIP3    H125766   0.604   6.060   3.940  2.2258  0.1064 -1.3527
 1425TIP3    H225767   0.710   6.169   3.944 -0.9176  3.3612 -0.7365
 1426TIP3   OH225768   1.360   6.579  14.807  0.2172 -0.0578  0.0482
 1426TIP3    H125769   1.442   6.540  14.779 -0.8997 -1.0020 -2.1660
 1426TIP3    H225770   1.350   6.552  14.899  2.2127 -0.1139  0.2848
 1427TIP3   OH225771   5.717   4.521   0.653  0.6020  0.0856  0.1048
 1427TIP3    H125772   5.642   4.577   0.633  1.2987  0.2739 -2.3656
 1427TIP3    H225773   5.679   4.436   0.673 -0.3214  0.1578 -1.1941
 1428TIP3   OH225774   1.519   2.141  16.865  0.2195  0.0427 -0.0453
 1428TIP3    H125775   1.566   2.102  16.793 -0.5046  1.6987 -1.4944
 1428TIP3    H225776   1.558   2.228  16.875  1.4136 -0.7050  2.6947
 1429TIP3   OH225777   2.771   3.254   3.123 -0.0730 -0.6225  0.3514
 1429TIP3    H125778   2.811   3.316   3.184 -2.2149 -0.0773  1.2880
 1429TIP3    H225779   2.713   3.201   3.178 -0.0473 -1.9173 -0.8135
 1430TIP3   OH225780   6.632   1.297   0.830 -0.0171 -0.5172  0.5838
 1430TIP3    H125781   6.716   1.259   0.858  0.3230 -0.1468  0.0942
 1430TIP3    H225782   6.566   1.237   0.864  0.4914 -1.4096  0.0563
 1431TIP3   OH225783   6.563   5.511  14.519  0.1020  0.3975  0.4767
 1431TIP3    H125784   6.527   5.598  14.539  1.7545  1.0528  0.7237
 1431TIP3    H225785   6.523   5.454  14.586 -0.7114  1.0149  0.5422
 1432TIP3   OH225786   1.157   1.361   3.141  0.4343 -0.2117  0.0590
 1432TIP3    H125787   1.167   1.333   3.232  0.3760  0.1713  0.1820
 1432TIP3    H225788   1.087   1.305   3.106  0.3130 -0.2147  0.3055
 1433TIP3   OH225789   3.148   6.444  10.666  0.2458  0.0131  0.2554
 1433TIP3    H125790   3.237   6.481  10.668 -0.2506  1.6765 -2.4792
 1433TIP3    H225791   3.102   6.490  10.736  1.4689 -0.7592  1.6137
 1434TIP3   OH225792   5.911   3.925   5.598  0.3879  0.1155  0.0173
 1434TIP3    H125793   5.897   3.897   5.689  1.0902  1.4671  0.5688
 1434TIP3    H225794   5.855   4.002   5.587  1.4043  0.8489 -0.2023
 1435TIP3   OH225795   6.238   6.569  10.900 -0.0463 -0.0340 -0.0345
 1435TIP3    H125796   6.240   6.497  10.837 -0.4615 -0.0319 -0.0486
 1435TIP3    H225797   6.325   6.610  10.892  1.2416 -2.1645  1.8802
 1436TIP3   OH225798   1.573   1.642   0.816 -0.0951 -0.0540 -0.5220
 1436TIP3    H125799   1.575   1.596   0.731 -0.8431  2.9009 -2.2845
 1436TIP3    H225800   1.656   1.689   0.819 -1.1622  1.9536 -0.9463
 1437TIP3   OH225801   3.303   1.441  14.022 -0.1218 -0.0905 -0.0310
 1437TIP3    H125802   3.311   1.525  13.976  0.8994 -0.7177 -1.0670
 1437TIP3    H225803   3.394   1.416  14.040 -0.4462 -0.7383  0.7161
 1438TIP3   OH225804   0.867   6.772   0.270 -0.2372  0.1774 -0.3627
 1438TIP3    H125805   0.844   6.819   0.350 -0.7490 -0.0167 -0.3938
 1438TIP3    H225806   0.963   6.777   0.266 -0.2554  0.7908 -0.1098
 1439TIP3   OH225807   4.241   3.668  12.715 -0.1853 -0.6409  0.3518
 1439TIP3    H125808   4.227   3.751  12.760 -0.2497 -0.9276  0.8681
 1439TIP3    H225809   4.167   3.661  12.655  1.1139  0.8754 -1.5637
 1440TIP3   OH225810   6.107   1.618  13.233 -0.3536  0.1327 -0.3170
 1440TIP3    H125811   6.147   1.668  13.304  0.8669 -1.0491 -0.1357
 1440TIP3    H225812   6.059   1.684  13.182 -0.4041  1.1590  1.0044
 1441TIP3   OH225813   5.258   0.605   2.661 -0.0651  0.8982 -0.2338
 1441TIP3    H125814   5.199   0.540   2.624 -1.0273  0.8062  1.3555
 1441TIP3    H225815   5.202   0.681   2.679  0.4127  1.0521  0.6708
 1442TIP3   OH225816   2.682   0.326  16.117  0.2527  0.5540 -0.0312
 1442TIP3    H125817   2.626   0.404  16.124  0.0342  0.4475 -0.5478
 1442TIP3    H225818   2.767   0.360  16.090  0.0998  0.5931 -0.4647
 1443TIP3   OH225819   5.677   5.835   4.335  0.2101 -0.2433 -0.0369
 1443TIP3    H125820   5.634   5.856   4.252  1.0419 -1.3140 -0.7768
 1443TIP3    H225821   5.683   5.918   4.381  0.4828  0.5438 -1.4195
 1444TIP3   OH225822   2.482   3.198   1.557  0.1338 -0.2554 -0.4642
 1444TIP3    H125823   2.417   3.174   1.491 -1.1963 -0.1557  0.7533
 1444TIP3    H225824   2.466   3.137   1.629  0.1334  0.9361  0.5925
 1445TIP3   OH225825   2.139   5.172   3.674  0.0150 -0.3983  0.1268
 1445TIP3    H125826   2.147   5.161   3.579 -1.8002  0.5427 -0.1728
 1445TIP3    H225827   2.093   5.255   3.685  0.2924 -0.4385  1.8473
 1446TIP3   OH225828   4.858   2.507   3.286  0.4575 -0.1472  0.2001
 1446TIP3    H125829   4.929   2.443   3.278 -0.2699 -0.8510 -0.9026
 1446TIP3    H225830   4.876   2.570   3.216 -0.2637 -0.6158 -0.4275
 1447TIP3   OH225831   2.469   0.484   5.394 -0.0439 -0.7925 -0.0463
 1447TIP3    H125832   2.484   0.561   5.339 -2.0839  0.2205  0.6872
 1447TIP3    H225833   2.519   0.501   5.473 -0.5888 -0.1118  0.1671
 1448TIP3   OH225834   6.199   0.865   1.283 -0.1003 -0.3338 -0.1864
 1448TIP3    H125835   6.144   0.788   1.266 -0.7382  0.3192 -1.1655
 1448TIP3    H225836   6.185   0.922   1.208  0.8916  0.4529  0.1982
 1449TIP3   OH225837   4.424   3.100   3.217  0.1239  0.1679 -0.6343
 1449TIP3    H125838   4.411   3.183   3.262 -0.8959  0.6555 -1.7605
 1449TIP3    H225839   4.491   3.055   3.268  0.6501  1.6468  0.0315
 1450TIP3   OH225840   3.375   4.842   0.815 -0.3944 -0.0812 -0.7303
 1450TIP3    H125841   3.305   4.870   0.874  1.7094 -1.8415  2.9947
 1450TIP3    H225842   3.447   4.903   0.834  1.3439 -2.4971  1.0645
 1451TIP3   OH225843   1.998   4.974  12.302 -0.1293 -0.2489  0.3239
 1451TIP3    H125844   2.047   4.912  12.248  0.2723  0.4392 -0.1261
 1451TIP3    H225845   1.913   4.933  12.317 -0.2098 -0.4985 -0.7587
 1452TIP3   OH225846   2.383   2.259   3.998 -0.2338  0.4838 -0.1091
 1452TIP3    H125847   2.389   2.350   3.968  1.6571 -0.2265 -2.2395
 1452TIP3    H225848   2.421   2.260   4.086  2.3747  1.4130 -1.1526
 1453TIP3   OH225849   5.982   0.922  15.866  0.4492 -0.3995  0.2987
 1453TIP3    H125850   6.038   0.893  15.793 -0.8153  0.4642 -1.0712
 1453TIP3    H225851   5.973   0.844  15.921  1.0099 -1.2460 -0.7475
 1454TIP3   OH225852   6.423   1.405  11.754 -0.4238  0.1142  0.0250
 1454TIP3    H125853   6.472   1.323  11.749  1.1127  1.0185 -0.0890
 1454TIP3    H225854   6.419   1.425  11.848 -2.2321 -0.8967  0.2057
 1455TIP3   OH225855   5.787   2.628   1.189  0.1735 -0.1717  0.1365
 1455TIP3    H125856   5.818   2.718   1.199 -0.7454  0.3392 -1.2840
 1455TIP3    H225857   5.861   2.581   1.152 -0.4013  0.8841 -2.5936
 1456TIP3   OH225858   2.599   0.224  12.633  0.3671 -0.6950 -0.1154
 1456TIP3    H125859   2.686   0.236  12.595 -0.0404  2.1457 -0.3540
 1456TIP3    H225860   2.559   0.154  12.581  1.4801 -0.0477 -1.9068
 1457TIP3   OH225861   4.393   3.012  17.190 -0.0044 -0.0366  0.0403
 1457TIP3    H125862   4.373   3.087  17.246  2.6826 -0.0655  1.2042
 1457TIP3    H225863   4.440   3.048  17.115 -3.7707  0.0258 -2.5661
 1458TIP3   OH225864   2.339   3.122   1.317 -0.4145  0.0103 -0.3402
 1458TIP3    H125865   2.262   3.175   1.297  0.8824  2.8110  1.3404
 1458TIP3    H225866   2.388   3.120   1.234 -1.5425 -0.4735 -1.0110
 1459TIP3   OH225867   4.574   0.033  14.260  0.2556  0.3122  0.2379
 1459TIP3    H125868   4.605   0.009  14.347  1.6947 -0.8900 -0.5397
 1459TIP3    H225869   4.625   0.111  14.237 -0.5193  0.9562  0.6653
 1460TIP3   OH225870   2.556   6.168   3.968 -0.1774 -0.0771 -0.2044
 1460TIP3    H125871   2.648   6.143   3.964 -0.2142 -0.1828 -0.4330
 1460TIP3    H225872   2.551   6.232   4.039  0.1567  0.2688 -0.4859
 1461TIP3   OH225873   3.247   5.462  15.469 -0.2740 -0.6206 -0.1622
 1461TIP3    H125874   3.322   5.431  15.418  0.2790 -0.4995  0.5684
 1461TIP3    H225875   3.197   5.383  15.489 -1.6141 -0.4838 -2.5882
 1462TIP3   OH225876   3.058   0.146   2.265 -0.1044 -0.5145 -0.0861
 1462TIP3    H125877   3.089   0.064   2.304 -3.3550 -2.5436 -1.3835
 1462TIP3    H225878   3.055   0.128   2.171 -2.4172  0.4826 -0.2670
 1463TIP3   OH225879   5.122   1.250  12.224 -0.7477 -0.2063  0.6203
 1463TIP3    H125880   5.034   1.215  12.222  0.5775 -4.2579  2.7920
 1463TIP3    H225881   5.116   1.328  12.279 -2.7332 -1.2199  1.9131
 1464TIP3   OH225882   6.304   1.324  12.764 -0.1889  0.3437  0.1385
 1464TIP3    H125883   6.299   1.296  12.673  0.2067 -2.0652  0.7718
 1464TIP3    H225884   6.348   1.251  12.809 -3.4681 -0.2166  2.8760
 1465TIP3   OH225885   5.757   3.515   3.064 -0.4420 -0.4335 -0.3206
 1465TIP3    H125886   5.828   3.462   3.100 -0.4104 -0.1216  0.0881
 1465TIP3    H225887   5.744   3.585   3.129 -1.9192 -1.1579  0.2196
 1466TIP3   OH225888   0.828   6.672  13.181 -0.2119  0.7369  0.3731
 1466TIP3    H125889   0.882   6.605  13.223  0.0611  0.7404  0.0316
 1466TIP3    H225890   0.754   6.624  13.144  0.6806  0.4147 -1.0704
 1467TIP3   OH225891   0.851   1.279  15.899 -0.4339 -0.8538  0.0266
 1467TIP3    H125892   0.853   1.335  15.977  1.0872  1.5975 -1.6475
 1467TIP3    H225893   0.912   1.208  15.921 -0.1319 -0.2922  1.1335
 1468TIP3   OH225894   5.106   6.418  12.188  0.0741  0.1965  0.2397
 1468TIP3    H125895   5.072   6.501  12.221 -0.8783 -0.0502 -0.0955
 1468TIP3    H225896   5.100   6.359  12.263 -0.7099  0.0271  0.0536
 1469TIP3   OH225897   3.092   0.342   5.090 -0.2993 -0.1173 -0.2206
 1469TIP3    H125898   3.150   0.363   5.164  0.3751  1.0055 -1.0392
 1469TIP3    H225899   3.151   0.319   5.019 -0.8928  0.1168 -0.7955
 1470TIP3   OH225900   4.150   4.928  16.006 -0.6006 -0.2140  0.5929
 1470TIP3    H125901   4.093   4.910  16.080 -0.5776  1.1038  0.9578
 1470TIP3    H225902   4.117   5.010  15.970 -0.7026 -0.8897 -0.9627
 1471TIP3   OH225903   2.282   5.884  16.095  0.0401  0.5840  0.2820
 1471TIP3    H125904   2.201   5.888  16.145 -0.9990 -4.5472 -0.3830
 1471TIP3    H225905   2.255   5.884  16.004  1.4042  3.7806 -0.2492
 1472TIP3   OH225906   1.952   2.375  13.559 -0.7022 -0.0418  0.0265
 1472TIP3    H125907   1.961   2.282  13.579 -0.4572  0.1827  1.0562
 1472TIP3    H225908   1.916   2.413  13.640  1.2982  1.1044  0.4551
 1473TIP3   OH225909   3.040   2.331   0.248 -0.4012  0.1886 -0.5145
 1473TIP3    H125910   3.071   2.250   0.208 -2.8479 -0.8101 -0.5825
 1473TIP3    H225911   3.004   2.305   0.332 -0.5986  1.3289 -0.2273
 1474TIP3   OH225912   4.893   1.583   4.041 -0.2598  0.3869  0.3060
 1474TIP3    H125913   4.853   1.638   4.109 -0.8861 -0.1424  0.3757
 1474TIP3    H225914   4.852   1.611   3.960 -0.6771 -0.0570  0.3583
 1475TIP3   OH225915   1.868   3.009   0.498  0.1835 -0.4646  0.0616
 1475TIP3    H125916   1.889   3.102   0.506  1.2956 -0.6733 -0.2334
 1475TIP3    H225917   1.887   2.988   0.407 -1.2874 -0.7133 -0.2234
 1476TIP3   OH225918   2.468   4.781  15.254  0.2204  0.4121  0.5137
 1476TIP3    H125919   2.392   4.740  15.214  1.2129 -1.0500  0.0124
 1476TIP3    H225920   2.481   4.862  15.206 -0.5735  0.2996  0.1077
 1477TIP3   OH225921   4.868   0.985   4.979  0.3634 -1.2073 -0.5428
 1477TIP3    H125922   4.849   0.896   4.950 -2.1846 -0.6682 -0.7573
 1477TIP3    H225923   4.906   1.028   4.903  0.6227 -1.8031 -0.7576
 1478TIP3   OH225924   4.056   5.199  15.961 -0.1341  0.0456  0.2687
 1478TIP3    H125925   4.023   5.209  15.872 -1.4773 -2.4335  0.3911
 1478TIP3    H225926   4.016   5.270  16.010 -0.2930  0.7604 -0.8595
 1479TIP3   OH225927   0.681   5.140  11.987 -0.2175  0.4547  0.3926
 1479TIP3    H125928   0.649   5.227  12.009  0.9042  0.7011  1.1053
 1479TIP3    H225929   0.766   5.155  11.946  0.2763 -0.3242  1.0919
 1480TIP3   OH225930   1.120   0.867  11.188  0.1638  0.1039 -0.1328
 1480TIP3    H125931   1.043   0.867  11.246  0.0290 -1.6207 -0.2362
 1480TIP3    H225932   1.193   0.846  11.247  0.3966  0.6962 -0.2091
 1481TIP3   OH225933   0.521   0.023   6.318  0.6766  0.0220  0.2354
 1481TIP3    H125934   0.510  -0.070   6.302  0.6965  0.4184 -2.4516
 1481TIP3    H225935   0.615   0.038   6.306  0.7986  0.3189  1.3694
 1482TIP3   OH225936   4.247   6.510   1.641  0.4237  0.4032  0.6315
 1482TIP3    H125937   4.320   6.531   1.581 -0.0458  0.0859 -0.0693
 1482TIP3    H225938   4.169   6.519   1.587  0.0766 -1.2534  0.8119
 1483TIP3   OH225939   1.114   3.157   0.566 -0.2396  0.5382  0.2087
 1483TIP3    H125940   1.118   3.126   0.476 -0.1606  0.9990  0.0536
 1483TIP3    H225941   1.028   3.196   0.575 -0.2554  0.4742  0.3404
 1484TIP3   OH225942   2.569   2.956  16.518 -0.3374  0.5680 -0.0051
 1484TIP3    H125943   2.488   2.906  16.528 -0.1835  0.0931 -0.9706
 1484TIP3    H225944   2.620   2.935  16.596 -1.1507  0.9060  0.6362
 1485TIP3   OH225945   1.089   6.084  14.329 -0.0743 -0.4228  0.1776
 1485TIP3    H125946   1.010   6.051  14.287 -0.5190  2.9640 -2.0753
 1485TIP3    H225947   1.067   6.086  14.423 -2.0953 -0.9742 -0.2348
 1486TIP3   OH225948   1.671   2.902  12.434  0.0795 -0.2882  0.6129
 1486TIP3    H125949   1.757   2.871  12.461 -0.7387 -0.9112  2.7043
 1486TIP3    H225950   1.616   2.824  12.435 -0.3272 -0.1381 -1.8801
 1487TIP3   OH225951   5.171   0.246   2.924 -0.3449  0.5400  0.0969
 1487TIP3    H125952   5.084   0.284   2.939  0.1891  1.7828  0.1900
 1487TIP3    H225953   5.158   0.186   2.851 -1.7170 -0.9326  1.4557
 1488TIP3   OH225954   5.311   6.783   3.875  0.4350  0.2075 -0.3513
 1488TIP3    H125955   5.390   6.760   3.825 -0.6598 -0.6280 -1.7658
 1488TIP3    H225956   5.289   6.871   3.845 -0.6287 -0.5606 -1.9793
 1489TIP3   OH225957   5.142   3.441  11.876  0.5332  0.1323  0.4701
 1489TIP3    H125958   5.189   3.373  11.925  0.6303  0.3964  0.7444
 1489TIP3    H225959   5.202   3.465  11.806 -0.4957 -1.8765 -1.2206
 1490TIP3   OH225960   4.994   0.248  15.641  0.6746 -0.4327 -0.5632
 1490TIP3    H125961   4.944   0.190  15.699 -0.3983 -0.3036 -1.3305
 1490TIP3    H225962   4.974   0.336  15.672  0.2424 -0.3717 -1.0038
 1491TIP3   OH225963   3.447   0.453  15.859 -0.0459 -0.3664 -0.3130
 1491TIP3    H125964   3.398   0.511  15.800  2.2652  1.9289 -0.1252
 1491TIP3    H225965   3.529   0.435  15.814  1.2840  0.4656  1.6509
 1492TIP3   OH225966   0.708   6.522  10.842  0.1163 -0.2747 -0.8489
 1492TIP3    H125967   0.747   6.541  10.927  0.2918 -1.5778 -0.6084
 1492TIP3    H225968   0.661   6.439  10.855  2.4438 -2.0446 -2.6484
 1493TIP3   OH225969   3.784   6.619   2.480 -0.1896 -0.7881  0.2927
 1493TIP3    H125970   3.723   6.609   2.407 -0.0968  0.2433  0.0466
 1493TIP3    H225971   3.855   6.672   2.444 -1.7414  2.7533  1.9346
 1494TIP3   OH225972   1.384   6.560  15.717 -0.4023  0.1080  0.2518
 1494TIP3    H125973   1.305   6.601  15.753 -0.2864  0.5882 -0.0333
 1494TIP3    H225974   1.408   6.494  15.782 -1.2470 -0.3080  0.1673
 1495TIP3   OH225975   2.295   4.478   6.222  0.4807 -0.6930  0.5208
 1495TIP3    H125976   2.360   4.408   6.221  1.7307  0.4058 -1.4600
 1495TIP3    H225977   2.277   4.493   6.315  2.0124 -1.9818  1.0593
 1496TIP3   OH225978   2.046   6.142   4.707 -0.0645 -0.0419 -0.2372
 1496TIP3    H125979   2.047   6.129   4.802  1.0423  0.6962 -0.1357
 1496TIP3    H225980   2.094   6.067   4.672 -0.0692 -0.0715 -0.1799
 1497TIP3   OH225981   1.552   2.015   2.147 -0.2020 -0.6420  0.5300
 1497TIP3    H125982   1.628   1.961   2.124  0.5732  1.2687 -1.9266
 1497TIP3    H225983   1.583   2.105   2.136 -2.3237  0.2480  1.3011
 1498TIP3   OH225984   6.593   5.283   0.200  0.0694  0.2170 -0.4136
 1498TIP3    H125985   6.676   5.314   0.163  0.4532 -0.9193 -0.5650
 1498TIP3    H225986   6.542   5.255   0.124  1.8032 -4.4486 -0.1993
 1499TIP3   OH225987   5.040   2.161   6.125  0.1303 -0.2597  0.4521
 1499TIP3    H125988   5.014   2.205   6.044 -0.2676  1.7815  1.6256
 1499TIP3    H225989   5.038   2.067   6.103 -1.3693  0.1584 -1.4660
 1500TIP3   OH225990   0.688   0.273  13.793 -0.2695 -0.7781 -0.1441
 1500TIP3    H125991   0.719   0.361  13.814  1.4968 -1.5395  0.6365
 1500TIP3    H225992   0.688   0.270  13.697  0.5199 -0.2027 -0.1759
 1501TIP3   OH225993   1.625   3.657   0.640 -0.1043  0.4103 -0.4191
 1501TIP3    H125994   1.663   3.696   0.718 -0.4759 -0.1175  0.0277
 1501TIP3    H225995   1.537   3.630   0.666  0.0670 -0.5248 -0.7784
 1502TIP3   OH225996   2.678   2.313   0.665 -0.3021 -0.1701  0.0332
 1502TIP3    H125997   2.643   2.249   0.603 -0.0257 -1.0451  0.7573
 1502TIP3    H225998   2.630   2.297   0.746 -1.6404  1.8668 -0.2578
 1503TIP3   OH225999   2.483   5.671   5.491 -0.0718 -0.8391 -0.0949
 1503TIP3    H126000   2.397   5.629   5.499 -0.6824  0.2514 -0.6794
 1503TIP3    H226001   2.483   5.738   5.560  0.5132 -1.1649  0.2266
 1504TIP3   OH226002   6.270   2.809   2.720  0.2096  0.3339 -0.5681
 1504TIP3    H126003   6.349   2.855   2.693  0.0967  0.7366 -0.2180
 1504TIP3    H226004   6.214   2.877   2.757  0.0557 -0.0827 -0.0200
 1505TIP3   OH226005   4.734   5.610  16.962  0.6031 -0.2962  0.5358
 1505TIP3    H126006   4.728   5.551  16.887 -0.3973 -0.3612  0.6461
 1505TIP3    H226007   4.767   5.555  17.033  0.6303 -0.4807  0.3814
 1506TIP3   OH226008   4.066   4.490  13.863 -0.3974 -0.2046 -0.4194
 1506TIP3    H126009   4.114   4.431  13.805 -1.0366  0.0251 -1.2010
 1506TIP3    H226010   3.981   4.447  13.876 -0.3607 -0.1210  0.1291
 1507TIP3   OH226011   6.116   1.636   2.303  0.0799  0.1745 -0.5855
 1507TIP3    H126012   6.131   1.548   2.338  0.1893 -0.4196 -2.0460
 1507TIP3    H226013   6.193   1.655   2.250  0.4158  1.5016  0.3340
 1508TIP3   OH226014   2.481   3.107   1.055 -0.0070 -0.1429 -0.4122
 1508TIP3    H126015   2.570   3.077   1.040 -0.4717 -2.2269  0.6360
 1508TIP3    H226016   2.439   3.102   0.969  0.0364 -2.3079 -0.3509
 1509TIP3   OH226017   4.807   3.640   1.141  0.1500 -0.0406 -0.0075
 1509TIP3    H126018   4.748   3.572   1.173  1.0622 -0.4187  0.9126
 1509TIP3    H226019   4.750   3.716   1.126 -0.6540 -0.5748  0.3144
 1510TIP3   OH226020   2.147   0.024  12.348 -0.3190 -0.6104  0.6650
 1510TIP3    H126021   2.242   0.022  12.346 -0.2194  0.6511  2.1292
 1510TIP3    H226022   2.120  -0.004  12.260  1.4053 -0.2729 -0.0040
 1511TIP3   OH226023   5.074   1.239   5.797 -0.4694 -0.6555 -0.5779
 1511TIP3    H126024   5.107   1.226   5.708  0.4968 -0.6580 -0.2399
 1511TIP3    H226025   5.134   1.303   5.835 -0.3890 -1.2413  0.3178
 1512TIP3   OH226026   5.740   0.048  14.665  0.2306 -0.4929 -0.1255
 1512TIP3    H126027   5.661  -0.004  14.681  0.1507 -0.3779 -0.1443
 1512TIP3    H226028   5.707   0.135  14.641  0.3692  0.1557  1.8641
 1513TIP3   OH226029   2.171   6.580  16.118  0.0992 -0.1264  0.2202
 1513TIP3    H126030   2.077   6.590  16.135 -0.2531 -1.9158 -0.4492
 1513TIP3    H226031   2.212   6.582  16.204 -0.9782 -2.9809  0.8928
 1514TIP3   OH226032   2.577   4.218   5.998  0.1596  0.3766 -0.4508
 1514TIP3    H126033   2.492   4.224   5.955 -0.6479  1.3500  1.1995
 1514TIP3    H226034   2.635   4.274   5.946 -0.7969  1.5349 -0.2966
 1515TIP3   OH226035   4.919   1.710  11.345 -0.6440 -0.1174  0.0725
 1515TIP3    H126036   4.968   1.791  11.328 -3.2720  1.8616  1.1637
 1515TIP3    H226037   4.910   1.668  11.259  0.4306  0.9667 -0.5910
 1516TIP3   OH226038   3.903   2.925  14.091 -0.0481 -0.0268  0.0268
 1516TIP3    H126039   3.833   2.865  14.067 -2.3923  0.7978  3.8100
 1516TIP3    H226040   3.892   2.999  14.032  1.1235 -1.9875 -2.8627
 1517TIP3   OH226041   0.032   1.173  11.959 -0.5267  0.0828  0.2683
 1517TIP3    H126042   0.035   1.171  11.863 -0.1163 -0.5112  0.2915
 1517TIP3    H226043   0.063   1.261  11.982 -1.0626  0.3863 -0.1583
 1518TIP3   OH226044   1.562   5.686  13.765 -0.4073 -0.2400  0.2622
 1518TIP3    H126045   1.619   5.612  13.741 -0.6261 -0.1490 -0.5432
 1518TIP3    H226046   1.560   5.742  13.687 -0.5153  0.4502  0.7528
 1519TIP3   OH226047   4.886   3.915  12.493  0.4005 -0.7522 -0.1975
 1519TIP3    H126048   4.929   3.833  12.470 -0.3580 -0.1708 -4.3400
 1519TIP3    H226049   4.947   3.983  12.465 -0.9421  0.0682 -1.2427
 1520TIP3   OH226050   2.157   3.817   2.225 -0.1711 -0.1316  0.2836
 1520TIP3    H126051   2.227   3.758   2.253 -0.9845 -0.4712  1.6647
 1520TIP3    H226052   2.082   3.795   2.281 -0.3399  2.5916  1.2967
 1521TIP3   OH226053   3.572   1.801  16.199 -0.2390 -0.0611 -0.2310
 1521TIP3    H126054   3.541   1.879  16.153 -0.3107  0.2748  0.3737
 1521TIP3    H226055   3.654   1.830  16.240 -1.0533  0.1804  1.3023
 1522TIP3   OH226056   5.112   2.209   5.812  0.0882  0.1809  0.4423
 1522TIP3    H126057   5.088   2.294   5.849 -0.8458 -0.0014  0.2758
 1522TIP3    H226058   5.053   2.196   5.738  1.1716  0.0149 -0.4205
 1523TIP3   OH226059   3.490   5.044  16.358 -0.1943  0.0473  0.1581
 1523TIP3    H126060   3.436   5.089  16.423 -0.7174 -1.3761  0.7323
 1523TIP3    H226061   3.485   4.952  16.382 -0.0114 -0.4542 -1.6306
 1524TIP3   OH226062   1.138   0.098  12.455  0.3202  1.1926 -0.1552
 1524TIP3    H126063   1.173   0.070  12.540 -0.6103  0.6929  0.0796
 1524TIP3    H226064   1.067   0.036  12.437  1.9912 -0.2279 -2.4380
 1525TIP3   OH226065   1.168   6.614   0.435  0.4427  0.3875  0.6141
 1525TIP3    H126066   1.126   6.580   0.514  1.1879 -0.2559  0.7455
 1525TIP3    H226067   1.261   6.595   0.448  0.3472 -2.0536 -1.5497
 1526TIP3   OH226068   1.036   2.230  13.102 -0.2419  1.0219  0.8668
 1526TIP3    H126069   1.054   2.299  13.039  1.3761 -0.6339 -0.6025
 1526TIP3    H226070   0.988   2.164  13.053 -1.0363  0.6955  2.0259
 1527TIP3   OH226071   1.055   4.208   4.151 -0.3549 -0.4557 -0.2694
 1527TIP3    H126072   1.054   4.304   4.155  0.4357 -0.4328 -0.5435
 1527TIP3    H226073   0.986   4.181   4.212 -1.7361  0.3221 -1.4075
 1528TIP3   OH226074   2.664   1.340   5.980  0.2974 -0.1504  0.5559
 1528TIP3    H126075   2.673   1.372   6.069  2.6217 -0.9836  0.7017
 1528TIP3    H226076   2.752   1.311   5.956 -0.2096  0.1992 -2.0833
 1529TIP3   OH226077   0.935   5.091   5.520  0.5906 -0.1361 -0.4892
 1529TIP3    H126078   0.904   5.072   5.609  1.3593 -1.6019 -0.5093
 1529TIP3    H226079   0.864   5.061   5.463  0.1352  0.7211 -0.3828
 1530TIP3   OH226080   5.610   4.269  15.564 -0.8169  0.2236  0.4874
 1530TIP3    H126081   5.581   4.178  15.565 -1.1072  0.3165  0.7552
 1530TIP3    H226082   5.683   4.270  15.503  0.4865 -0.5711  1.9730
 1531TIP3   OH226083   2.120   1.542  16.618 -0.0731  0.6126  0.5082
 1531TIP3    H126084   2.095   1.450  16.603 -0.8572  0.8847  0.0848
 1531TIP3    H226085   2.196   1.555  16.562 -1.1538  0.7589 -1.0042
 1532TIP3   OH226086   6.054   0.145  15.770  0.2893  0.1419  0.1748
 1532TIP3    H126087   6.125   0.135  15.707  0.5496  0.6790  0.3744
 1532TIP3    H226088   6.067   0.074  15.833  0.2439 -0.1733 -0.1741
 1533TIP3   OH226089   3.887   6.566   1.984  0.0784 -0.2122  0.2102
 1533TIP3    H126090   3.850   6.532   1.903  0.2840  0.1865 -0.0551
 1533TIP3    H226091   3.825   6.540   2.052 -0.9201  0.8055 -0.2789
 1534TIP3   OH226092   5.749   3.813   5.124 -0.2893 -0.2119  0.3981
 1534TIP3    H126093   5.830   3.846   5.085 -1.3608  2.0123 -0.0939
 1534TIP3    H226094   5.726   3.878   5.190 -2.4052 -0.0333 -0.4600
 1535TIP3   OH226095   4.871   3.834   0.609 -0.1415 -0.3401 -0.6767
 1535TIP3    H126096   4.916   3.789   0.680  0.3320  0.3269 -0.5458
 1535TIP3    H226097   4.829   3.909   0.650  0.2874  0.1549 -1.1272
 1536TIP3   OH226098   2.233   0.737  15.468  0.1195  0.4570 -0.5491
 1536TIP3    H126099   2.159   0.707  15.416 -0.4014  0.7008  0.0247
 1536TIP3    H226100   2.307   0.740  15.407  1.2930 -5.4936 -0.0440
 1537TIP3   OH226101   3.720   3.941   1.204 -0.7478  0.0995  0.2883
 1537TIP3    H126102   3.670   4.022   1.189 -0.0137  0.5630  0.2816
 1537TIP3    H226103   3.701   3.917   1.294  0.8866  1.6275  1.1023
 1538TIP3   OH226104   3.800   0.535  14.454 -0.5076  0.4091  0.0171
 1538TIP3    H126105   3.751   0.607  14.493 -0.7808  0.4026 -0.3105
 1538TIP3    H226106   3.848   0.496  14.527 -1.4536  0.0370  0.4448
 1539TIP3   OH226107   2.063   5.118  13.484  0.0528 -0.0259  0.6818
 1539TIP3    H126108   1.977   5.086  13.511  0.3547 -1.0244  0.4949
 1539TIP3    H226109   2.045   5.198  13.435 -0.7711 -0.2098  0.6759
 1540TIP3   OH226110   0.231   4.699   2.898  0.3176  0.1829 -0.0630
 1540TIP3    H126111   0.189   4.747   2.827  0.3796  1.1052  0.5137
 1540TIP3    H226112   0.300   4.649   2.855  0.3975  0.7786 -0.6471
 1541TIP3   OH226113   4.589   0.480   0.246 -0.0646  1.0288 -0.6356
 1541TIP3    H126114   4.674   0.523   0.259 -0.1631  0.8234  0.8078
 1541TIP3    H226115   4.549   0.530   0.175  0.8326  1.8051 -0.6271
 1542TIP3   OH226116   1.871   3.206   2.030  0.3875 -0.5900 -0.4346
 1542TIP3    H126117   1.945   3.258   2.061 -0.4279  0.3063  0.0779
 1542TIP3    H226118   1.835   3.166   2.110 -0.9309  0.6804 -0.3300
 1543TIP3   OH226119   0.654   2.438   0.162 -0.1332 -0.4426 -0.1383
 1543TIP3    H126120   0.677   2.378   0.091 -2.0142 -0.2510 -1.0002
 1543TIP3    H226121   0.728   2.499   0.168 -0.0381 -0.2715 -2.1841
 1544TIP3   OH226122   1.317   6.214  14.350 -0.1119 -0.2004  0.0456
 1544TIP3    H126123   1.334   6.152  14.421 -2.2477  0.6232  1.3938
 1544TIP3    H226124   1.243   6.176  14.302 -0.9518  0.8668  0.4335
 1545TIP3   OH226125   5.207   2.869  16.724  0.0389 -0.2996  0.0503
 1545TIP3    H126126   5.152   2.832  16.654 -0.2177 -0.4549  0.3298
 1545TIP3    H226127   5.200   2.805  16.796  1.1058 -0.6414 -0.1395
 1546TIP3   OH226128   4.093   0.501  16.774 -0.1829  0.6004  0.1347
 1546TIP3    H126129   4.000   0.515  16.795  0.0209 -0.0333  1.6126
 1546TIP3    H226130   4.140   0.559  16.835  0.4072  0.4910 -0.2112
 1547TIP3   OH226131   5.463   4.899  14.475 -0.3640 -0.0318 -0.2686
 1547TIP3    H126132   5.412   4.952  14.536  0.6147  0.2083  0.3554
 1547TIP3    H226133   5.481   4.957  14.401  1.8989  1.0413  1.0117
 1548TIP3   OH226134   0.936   3.391   5.270  0.3168 -0.4311  0.5038
 1548TIP3    H126135   0.853   3.436   5.253  0.5076 -0.6434 -1.2108
 1548TIP3    H226136   0.961   3.355   5.185  1.6949 -1.1862  1.1974
 1549TIP3   OH226137   0.364   5.969  12.530  0.2068 -0.0900  0.1669
 1549TIP3    H126138   0.386   6.004  12.616  0.8319  0.9191 -0.3761
 1549TIP3    H226139   0.343   6.047  12.478  0.5128 -0.6268 -0.7790
 1550TIP3   OH226140   5.692   0.107  11.906  0.3650 -0.6523 -0.1250
 1550TIP3    H126141   5.706   0.044  11.835  1.8775  0.3682 -0.7885
 1550TIP3    H226142   5.780   0.134  11.931 -0.1759  2.8304 -1.3842
 1551TIP3   OH226143   3.598   6.033   6.053  0.3676 -0.1302  0.5782
 1551TIP3    H126144   3.547   6.006   6.130  0.0541 -0.6425  0.1973
 1551TIP3    H226145   3.538   6.021   5.979 -0.9320  4.4220  0.5675
 1552TIP3   OH226146   2.600   4.868  12.521  0.0381 -0.2724 -0.3552
 1552TIP3    H126147   2.524   4.871  12.578  1.1308 -0.2081  1.1632
 1552TIP3    H226148   2.668   4.915  12.569  1.7044 -2.2603 -0.5863
 1553TIP3   OH226149   1.738   0.179   0.360 -0.0749  0.5981 -0.5860
 1553TIP3    H126150   1.762   0.191   0.268 -0.7520  0.6268 -0.7648
 1553TIP3    H226151   1.808   0.222   0.409  0.7699 -0.2105 -1.0561
 1554TIP3   OH226152   4.887   2.201   1.304  0.3518  0.4320  0.4739
 1554TIP3    H126153   4.975   2.221   1.337  0.8136 -0.1688 -0.3571
 1554TIP3    H226154   4.891   2.223   1.211 -0.6712  1.2864  0.6157
 1555TIP3   OH226155   6.316   0.700  13.287  1.0967  0.1146 -0.5662
 1555TIP3    H126156   6.318   0.658  13.373  0.6809  0.8325 -0.1886
 1555TIP3    H226157   6.249   0.652  13.238  2.4793 -1.3638 -1.0836
 1556TIP3   OH226158   2.478   4.501  12.998  0.4696  0.4725 -0.6868
 1556TIP3    H126159   2.441   4.517  13.084  0.8537 -0.5956 -0.3151
 1556TIP3    H226160   2.437   4.419  12.969  1.5610 -0.0355 -0.8146
 1557TIP3   OH226161   2.515   3.358  12.641  0.3739  0.3849 -0.2743
 1557TIP3    H126162   2.435   3.409  12.624  1.3081  1.4967 -1.5743
 1557TIP3    H226163   2.534   3.317  12.557  0.5180 -0.8653  0.3576
 1558TIP3   OH226164   6.672   0.112  14.647  0.0136 -0.0540 -0.0810
 1558TIP3    H126165   6.668   0.037  14.588 -2.5449  0.8540 -1.2074
 1558TIP3    H226166   6.731   0.174  14.604  0.0004 -0.3328 -0.5030
 1559TIP3   OH226167   1.235   0.674   3.083 -0.7868  0.5190 -0.3933
 1559TIP3    H126168   1.202   0.673   3.173 -1.0103  0.2861 -0.4767
 1559TIP3    H226169   1.326   0.703   3.091 -0.7553  0.3337 -0.0742
 1560TIP3   OH226170   1.082   1.332   3.412 -0.3023 -0.6727  0.2705
 1560TIP3    H126171   1.032   1.393   3.359  0.1506 -0.6016 -0.0880
 1560TIP3    H226172   1.119   1.385   3.482 -0.9081 -0.7679  0.6688
 1561TIP3   OH226173   5.351   3.186   0.296  0.5559  0.2337  0.3794
 1561TIP3    H126174   5.423   3.136   0.334 -0.5458 -1.2175  0.6820
 1561TIP3    H226175   5.291   3.201   0.369 -1.4815 -2.3871 -0.5449
 1562TIP3   OH226176   0.535   1.470  16.469  0.5896  0.6401  0.2618
 1562TIP3    H126177   0.450   1.426  16.478  1.6338 -1.2615  1.7061
 1562TIP3    H226178   0.574   1.429  16.392  0.4872  1.0062  0.0152
 1563TIP3   OH226179   0.320   5.658  17.202 -0.4950 -0.0962 -1.0381
 1563TIP3    H126180   0.292   5.584  17.148  0.3352 -0.5020 -0.9407
 1563TIP3    H226181   0.399   5.626  17.246 -0.2949  0.7509 -0.7637
 1564TIP3   OH226182   4.796   1.422   5.131  0.4890 -0.6006  0.4619
 1564TIP3    H126183   4.736   1.493   5.109  0.5247 -0.5625  0.4889
 1564TIP3    H226184   4.758   1.381   5.208  1.3837  0.4864  1.5124
 1565TIP3   OH226185   2.176   0.009   4.969  0.4095 -0.0512  0.5643
 1565TIP3    H126186   2.218   0.080   4.920  1.7885 -1.7865 -0.9667
 1565TIP3    H226187   2.089   0.001   4.930  0.4149  0.4907  0.4343
 1566TIP3   OH226188   1.419   1.355  16.960 -0.3799 -0.4046 -0.0538
 1566TIP3    H126189   1.508   1.352  16.927 -0.0590  0.2419  0.6985
 1566TIP3    H226190   1.372   1.287  16.913 -0.4610  1.6590 -3.2340
 1567TIP3   OH226191   3.049   3.642  14.265 -0.2101  0.4486 -0.6772
 1567TIP3    H126192   2.961   3.649  14.302 -0.3281 -0.7269 -0.6701
 1567TIP3    H226193   3.106   3.629  14.341 -0.3811 -1.3854 -0.8028
 1568TIP3   OH226194   1.719   4.878  12.371 -0.0380 -0.2394 -0.2952
 1568TIP3    H126195   1.710   4.803  12.429  3.1641  0.4834  1.3637
 1568TIP3    H226196   1.629   4.898  12.344 -1.3656 -2.4685  1.9902
 1569TIP3   OH226197   1.408   0.939   5.692 -0.0605 -0.2280  0.1872
 1569TIP3    H126198   1.416   0.918   5.599  0.4579 -0.5156  0.2929
 1569TIP3    H226199   1.483   0.995   5.711 -2.6101  3.8671 -0.6216
 1570TIP3   OH226200   2.646   1.769  14.921 -0.5191  0.0007  0.0138
 1570TIP3    H126201   2.662   1.861  14.901  2.6616 -0.8030 -1.5873
 1570TIP3    H226202   2.557   1.754  14.890 -0.1234  1.8587 -2.2991
 1571TIP3   OH226203   6.390   5.813  16.230  0.0214 -0.2530 -0.4479
 1571TIP3    H126204   6.314   5.836  16.283 -0.8770  1.5901 -2.4114
 1571TIP3    H226205   6.361   5.738  16.178 -0.6545  0.7318 -1.5245
 1572TIP3   OH226206   4.658   5.191  16.859  0.2130 -0.2413 -0.7218
 1572TIP3    H126207   4.646   5.120  16.796  3.6907 -1.8270  0.1470
 1572TIP3    H226208   4.603   5.167  16.933  1.7130 -2.4556 -0.2296
 1573TIP3   OH226209   3.583   2.421  13.182 -0.5093 -0.4063  0.3356
 1573TIP3    H126210   3.603   2.406  13.275 -0.8855 -0.1792  0.4560
 1573TIP3    H226211   3.523   2.495  13.183 -1.5853 -1.2397  0.0089
 1574TIP3   OH226212   3.834   0.746  16.001  0.4264 -0.1412  0.2260
 1574TIP3    H126213   3.812   0.826  16.048  0.2941  0.5106 -0.9081
 1574TIP3    H226214   3.752   0.697  15.998  0.6927 -0.7178  1.6257
 1575TIP3   OH226215   1.083   2.000  15.502 -0.3459 -0.1858 -0.2217
 1575TIP3    H126216   1.066   1.908  15.482  0.4819 -0.4144  0.0907
 1575TIP3    H226217   1.090   2.003  15.598 -0.5195  0.2358 -0.2164
 1576TIP3   OH226218   5.099   0.052  14.076  0.1455  0.1560  0.1011
 1576TIP3    H126219   5.124  -0.016  14.139 -0.2201 -0.5263 -0.4827
 1576TIP3    H226220   5.100   0.008  13.991 -2.0444  0.3369 -0.0632
 1577TIP3   OH226221   5.104   3.173  15.956 -0.5429  0.1370  0.6358
 1577TIP3    H126222   5.014   3.173  15.989 -1.3024  0.5752 -1.2987
 1577TIP3    H226223   5.154   3.221  16.023 -1.4110 -1.3550  2.4579
 1578TIP3   OH226224   3.005   5.643  12.992  0.2196  0.0126 -0.5304
 1578TIP3    H126225   3.068   5.704  13.031  0.6267 -0.8832  0.2370
 1578TIP3    H226226   2.984   5.682  12.907  1.1429  0.7645 -0.4281
 1579TIP3   OH226227   3.964   3.524  13.595  0.2224 -0.3516 -0.0965
 1579TIP3    H126228   3.889   3.552  13.647  0.8765  0.7520  0.3088
 1579TIP3    H226229   3.927   3.480  13.519 -0.7801 -1.3520  0.9352
 1580TIP3   OH226230   5.369   4.371   1.449  0.1511 -0.1490 -0.4183
 1580TIP3    H126231   5.461   4.374   1.475 -0.2616 -2.7223  1.7871
 1580TIP3    H226232   5.331   4.452   1.484  1.3431  0.4510 -0.4650
 1581TIP3   OH226233   4.676   4.301   5.206  0.0171  0.0014 -0.3730
 1581TIP3    H126234   4.699   4.273   5.294 -0.1454  0.2350 -0.2540
 1581TIP3    H226235   4.636   4.225   5.165 -0.0447 -0.0619 -0.1941
 1582TIP3   OH226236   3.169   1.828   0.141 -0.1722 -0.0694  0.7197
 1582TIP3    H126237   3.148   1.796   0.053 -1.4807  1.3728  0.4677
 1582TIP3    H226238   3.088   1.819   0.191  1.0882 -2.9162  2.5082
 1583TIP3   OH226239   2.343   2.846  12.436  0.5489  0.4327 -0.4590
 1583TIP3    H126240   2.392   2.837  12.354  0.2682  2.1935 -0.8596
 1583TIP3    H226241   2.381   2.780  12.494  2.2691  0.6173 -1.3051
 1584TIP3   OH226242   5.307   4.954   0.662 -0.3340 -0.3583 -0.0088
 1584TIP3    H126243   5.256   4.884   0.621 -0.2908 -0.8450  0.7616
 1584TIP3    H226244   5.254   4.982   0.737 -0.5530  0.7287 -0.5516
 1585TIP3   OH226245   3.574   0.635  15.508  0.2403  0.3752 -0.2202
 1585TIP3    H126246   3.645   0.689  15.542 -1.0506  0.8689  1.8478
 1585TIP3    H226247   3.594   0.547  15.540  1.8883 -0.3313 -2.8790
 1586TIP3   OH226248   5.449   6.740  14.726 -0.2329  0.4990  0.1933
 1586TIP3    H126249   5.494   6.767  14.806  0.6913 -3.7495  1.3300
 1586TIP3    H226250   5.374   6.691  14.756 -0.2798 -0.5768 -1.5533
 1587TIP3   OH226251   1.633   0.454  12.801 -0.1440 -0.4233 -0.2148
 1587TIP3    H126252   1.559   0.404  12.837 -0.2937 -0.7730 -0.9914
 1587TIP3    H226253   1.609   0.470  12.710  0.2762  0.3675 -0.1951
 1588TIP3   OH226254   0.399   3.715   4.292  0.7324 -0.0646  0.0902
 1588TIP3    H126255   0.355   3.800   4.292  0.3267 -0.2677  0.8718
 1588TIP3    H226256   0.488   3.735   4.261  0.0599  0.3058 -1.7044
 1589TIP3   OH226257   4.905   0.520   2.408  0.5895  0.3202 -0.3122
 1589TIP3    H126258   4.920   0.615   2.407 -2.7085  0.9902  0.1982
 1589TIP3    H226259   4.982   0.484   2.452  1.4217  2.8951  0.5302
 1590TIP3   OH226260   2.113   0.597   4.269 -0.0578  0.3784 -0.3603
 1590TIP3    H126261   2.079   0.582   4.181 -0.4915  2.9004 -0.7007
 1590TIP3    H226262   2.124   0.692   4.275  1.9388  0.1103  1.5998
 1591TIP3   OH226263   4.135   6.246   2.000  0.2011  0.2502  0.1422
 1591TIP3    H126264   4.063   6.219   1.942  0.8577  1.8552 -1.5027
 1591TIP3    H226265   4.191   6.169   2.005 -0.6127 -0.3844 -0.1746
 1592TIP3   OH226266   6.744   2.276  13.578 -0.7688 -0.2330 -0.5191
 1592TIP3    H126267   6.679   2.273  13.648  2.3228  2.0761  2.8198
 1592TIP3    H226268   6.798   2.199  13.591  1.2312  1.3679  1.3861
 1593TIP3   OH226269   1.296   0.693  10.749 -0.2940 -0.5748  0.1299
 1593TIP3    H126270   1.345   0.767  10.785 -1.4273 -0.4910  1.5691
 1593TIP3    H226271   1.209   0.727  10.732 -0.3792 -1.1836 -0.7138
 1594TIP3   OH226272   4.361   0.141  14.391  0.5591  0.2162 -0.0324
 1594TIP3    H126273   4.399   0.098  14.314  0.5316 -0.1061  0.1330
 1594TIP3    H226274   4.404   0.227  14.394  1.5504 -0.2719  0.3466
 1595TIP3   OH226275   0.169   0.619  17.021  0.0761  0.3979 -0.0742
 1595TIP3    H126276   0.078   0.626  17.050  0.2125  0.6287  0.3218
 1595TIP3    H226277   0.205   0.707  17.037  0.4870  0.1809  0.2016
 1596TIP3   OH226278   5.331   5.503   5.853 -0.0708  0.2711 -0.6652
 1596TIP3    H126279   5.269   5.441   5.815 -0.1367 -0.6072  0.7960
 1596TIP3    H226280   5.382   5.451   5.915  0.5771  1.4631 -0.1674
 1597TIP3   OH226281   0.705   5.160   2.599 -0.0036  0.8067 -0.2142
 1597TIP3    H126282   0.666   5.079   2.632  0.0563  0.8749  0.0234
 1597TIP3    H226283   0.630   5.218   2.582 -0.1408  0.2767 -1.5495
 1598TIP3   OH226284   6.038   2.389   6.275  0.2062 -0.3856  0.4690
 1598TIP3    H126285   6.075   2.432   6.198 -2.8024 -1.3914 -1.7161
 1598TIP3    H226286   6.033   2.296   6.252 -0.6591 -0.7461  1.9389
 1599TIP3   OH226287   1.697   4.700  16.868 -0.2626 -0.0439  0.2227
 1599TIP3    H126288   1.761   4.762  16.833  0.0598 -0.0611  0.7576
 1599TIP3    H226289   1.721   4.692  16.961 -1.4150  0.4227  0.5817
 1600TIP3   OH226290   1.517   3.322  16.587  0.6781  0.5671  0.8509
 1600TIP3    H126291   1.538   3.348  16.677  1.0270 -0.1064  0.9715
 1600TIP3    H226292   1.461   3.244  16.598  1.8883 -0.3765  0.4795
 1601TIP3   OH226293   6.149   2.743   2.280  0.7413 -0.2310  0.0457
 1601TIP3    H126294   6.111   2.710   2.362  3.1227  0.7927  1.6521
 1601TIP3    H226295   6.125   2.676   2.215 -3.0808 -0.0216  0.9949
 1602TIP3   OH226296   4.733   2.587   1.830 -0.3076 -0.0485 -0.0444
 1602TIP3    H126297   4.751   2.516   1.768  2.1185  1.9139 -1.7916
 1602TIP3    H226298   4.671   2.643   1.784 -1.3298 -0.3856  0.8714
 1603TIP3   OH226299   5.747   0.405  14.737 -0.6683 -0.6808 -0.0677
 1603TIP3    H126300   5.741   0.449  14.652 -3.0024 -0.2311  0.2659
 1603TIP3    H226301   5.841   0.402  14.756 -0.1592  0.0712 -2.2048
 1604TIP3   OH226302   5.372   3.747   0.530  0.2362  0.9045 -0.4163
 1604TIP3    H126303   5.347   3.785   0.615  2.0369 -0.5953  0.8843
 1604TIP3    H226304   5.293   3.703   0.499 -0.3288  1.0614  0.7413
 1605TIP3   OH226305   5.995   4.976  13.508 -0.2261  0.0589 -0.4898
 1605TIP3    H126306   6.084   4.951  13.532 -0.3836 -0.5755 -0.5297
 1605TIP3    H226307   6.005   5.056  13.457  0.2867  0.2035 -0.1676
 1606TIP3   OH226308   4.487   1.854  13.655 -0.0602 -0.1495  0.2924
 1606TIP3    H126309   4.529   1.794  13.716 -0.4726 -0.3721  0.3601
 1606TIP3    H226310   4.487   1.807  13.572  1.3269  0.5077 -0.1176
 1607TIP3   OH226311   4.516   3.601   4.314  0.0005 -0.5130  0.7391
 1607TIP3    H126312   4.558   3.665   4.256  0.4927 -0.9558  0.5989
 1607TIP3    H226313   4.444   3.650   4.355  1.4500  0.6536  1.9918
 1608TIP3   OH226314   4.998   6.519   4.656 -0.3201  0.3319 -0.4937
 1608TIP3    H126315   4.944   6.587   4.615 -1.1051  0.4760  0.7460
 1608TIP3    H226316   5.085   6.559   4.662 -0.8078  1.3084  0.3708
 1609TIP3   OH226317   2.134   6.622   2.716 -1.0409  0.6081  0.1207
 1609TIP3    H126318   2.077   6.650   2.788  2.0501  2.3918  2.0911
 1609TIP3    H226319   2.162   6.534   2.741  0.3744  1.3849  1.4716
 1610TIP3   OH226320   0.214   3.309  10.773 -0.2340  0.3974  0.0816
 1610TIP3    H126321   0.286   3.333  10.714  1.4697  1.3377  2.3868
 1610TIP3    H226322   0.165   3.390  10.785  0.8335  0.8631  1.6939
 1611TIP3   OH226323   1.784   0.582  16.516 -0.6101 -0.0909 -0.5789
 1611TIP3    H126324   1.739   0.523  16.577 -0.7008 -0.1017 -0.6550
 1611TIP3    H226325   1.774   0.668  16.555 -0.5584 -0.1147 -0.5130
 1612TIP3   OH226326   6.641   5.961  13.546  0.0134  0.8027 -0.0763
 1612TIP3    H126327   6.736   5.976  13.551  0.2169 -0.0649 -1.0172
 1612TIP3    H226328   6.604   6.022  13.610  1.1340  1.8686 -0.3895
 1613TIP3   OH226329   0.371   6.773  12.042 -0.5167 -0.9196 -0.6682
 1613TIP3    H126330   0.377   6.866  12.020  2.2717 -1.0751 -0.9658
 1613TIP3    H226331   0.353   6.771  12.136 -0.6622 -0.0977 -0.6742
 1614TIP3   OH226332   4.060   4.016   0.167 -0.5583 -0.2435  0.2212
 1614TIP3    H126333   4.126   3.947   0.157 -0.3017  0.0718 -0.3153
 1614TIP3    H226334   4.067   4.067   0.086 -2.4932 -1.1122 -0.5465
 1615TIP3   OH226335   0.552   0.437  11.015 -0.0185 -0.2095 -0.2802
 1615TIP3    H126336   0.503   0.489  11.078  1.9508 -0.1579  1.3127
 1615TIP3    H226337   0.617   0.391  11.067  1.6241 -0.2770 -2.2428
 1616TIP3   OH226338   4.847   5.960  16.257  0.4019 -0.0849 -0.1285
 1616TIP3    H126339   4.885   5.989  16.340  1.0141  0.3949 -0.5646
 1616TIP3    H226340   4.857   5.864  16.258  0.3984 -0.0810  0.3520
 1617TIP3   OH226341   0.119   5.762  15.418 -0.1478  0.0333  0.0320
 1617TIP3    H126342   0.166   5.679  15.416  0.7581  0.4861  1.2622
 1617TIP3    H226343   0.093   5.773  15.509 -2.1010  0.1278 -0.4975
 1618TIP3   OH226344   4.227   1.272  11.995 -0.1141  0.4682 -0.2853
 1618TIP3    H126345   4.320   1.262  11.972 -0.6302 -0.6847 -2.0074
 1618TIP3    H226346   4.190   1.185  11.981 -1.6367  1.1233 -0.4139
 1619TIP3   OH226347   6.249   6.253   4.008 -0.3220  0.5368  0.1949
 1619TIP3    H126348   6.267   6.210   3.924  1.4081 -2.5085  1.9207
 1619TIP3    H226349   6.294   6.337   4.003 -1.7636  1.2397 -2.5021
 1620TIP3   OH226350   5.264   2.717  11.630 -0.4920 -0.2892  0.0796
 1620TIP3    H126351   5.342   2.662  11.619  0.5079  1.0045  0.4409
 1620TIP3    H226352   5.299   2.806  11.636 -2.0547  0.3651 -0.2616
 1621TIP3   OH226353   6.608   2.888  16.122 -0.0621  0.2031  0.3509
 1621TIP3    H126354   6.678   2.864  16.061 -1.4631 -0.4680 -1.0939
 1621TIP3    H226355   6.587   2.979  16.099  1.3837  0.9659  1.8966
 1622TIP3   OH226356   0.499   6.322   0.315 -0.3044 -0.1356  0.1079
 1622TIP3    H126357   0.445   6.392   0.351 -1.7159 -0.7458 -0.7248
 1622TIP3    H226358   0.585   6.361   0.305 -0.2841  0.5518  2.4537
 1623TIP3   OH226359   1.000   2.737   3.090 -0.1272  0.0846  0.4943
 1623TIP3    H126360   1.082   2.749   3.137 -0.4618  1.3510  0.7835
 1623TIP3    H226361   1.003   2.646   3.060  1.1549 -0.0321  0.9117
 1624TIP3   OH226362   4.637   4.588   5.234 -0.4609  0.2830  0.3109
 1624TIP3    H126363   4.614   4.535   5.158 -1.8350  0.4727  0.5632
 1624TIP3    H226364   4.611   4.536   5.309  0.0500  0.4741  0.6242
 1625TIP3   OH226365   4.038   0.946  12.844 -0.1226 -0.3309 -0.0851
 1625TIP3    H126366   3.964   0.891  12.869 -0.7120  0.3743 -0.2330
 1625TIP3    H226367   4.070   0.907  12.762 -1.4500  0.3605 -0.9744
 1626TIP3   OH226368   2.129   1.217   1.474 -0.1866  0.3554 -0.4929
 1626TIP3    H126369   2.073   1.176   1.540 -0.3271 -0.2176 -0.9544
 1626TIP3    H226370   2.173   1.143   1.431  0.5962  0.7689 -0.4297
 1627TIP3   OH226371   5.149   2.203   4.014 -0.0379  0.3685 -0.0593
 1627TIP3    H126372   5.171   2.295   4.028 -2.5175  0.9632  0.3339
 1627TIP3    H226373   5.056   2.197   4.033  0.5128 -2.7601  2.4789
 1628TIP3   OH226374   4.146   0.087  11.977 -0.2813 -0.1967  0.2035
 1628TIP3    H126375   4.196   0.112  11.899 -1.4260 -1.0004 -0.8330
 1628TIP3    H226376   4.055   0.108  11.955 -0.8587 -2.0515  0.6024
 1629TIP3   OH226377   0.634   1.171  15.366  0.2066 -0.3619  0.6671
 1629TIP3    H126378   0.568   1.204  15.304 -0.6598 -2.7926  0.1743
 1629TIP3    H226379   0.583   1.123  15.431  1.1333  1.8568  3.1749
 1630TIP3   OH226380   1.739   5.112  12.809 -0.0917 -0.1540  0.1797
 1630TIP3    H126381   1.659   5.069  12.837 -0.1984 -0.4155 -0.5287
 1630TIP3    H226382   1.714   5.163  12.732  0.4484 -0.3513 -0.1337
 1631TIP3   OH226383   5.909   1.808  14.469 -0.0473  0.2802 -0.2068
 1631TIP3    H126384   5.969   1.789  14.396 -0.7822 -2.2298 -0.2642
 1631TIP3    H226385   5.966   1.837  14.540  0.8377  1.3473 -1.3101
 1632TIP3   OH226386   6.424   3.807  12.382 -0.4738  0.1615 -0.5760
 1632TIP3    H126387   6.476   3.830  12.305 -1.0174 -1.2274 -1.3866
 1632TIP3    H226388   6.336   3.792  12.347 -0.4195 -1.8984  0.0695
 1633TIP3   OH226389   5.513   1.754  16.326  0.4331  0.5216 -0.8285
 1633TIP3    H126390   5.457   1.678  16.342  1.4480 -0.4652 -1.7240
 1633TIP3    H226391   5.588   1.740  16.383  0.2984  1.2439 -0.4689
 1634TIP3   OH226392   1.257   1.169  12.091  0.4011  0.4071  0.0509
 1634TIP3    H126393   1.239   1.120  12.171  2.9149 -1.2017 -0.2512
 1634TIP3    H226394   1.347   1.146  12.068  0.5988  2.6976 -1.9475
 1635TIP3   OH226395   5.263   3.694   5.754 -0.1642 -0.0078 -0.2476
 1635TIP3    H126396   5.296   3.726   5.670 -1.5174 -0.2320 -0.9014
 1635TIP3    H226397   5.182   3.647   5.731  1.1434 -3.0035  0.7813
 1636TIP3   OH226398   4.109   5.342  11.299 -0.1287  0.6298 -0.2747
 1636TIP3    H126399   4.080   5.331  11.209  1.0303  0.6647 -0.6527
 1636TIP3    H226400   4.089   5.433  11.320  0.5589  0.9091 -0.8370
 1637TIP3   OH226401   5.523   4.117   2.408 -0.5634  0.1910  0.4510
 1637TIP3    H126402   5.456   4.092   2.471 -1.1058  2.7043  1.0097
 1637TIP3    H226403   5.502   4.208   2.386  1.2730  0.2851 -1.2111
 1638TIP3   OH226404   3.289   2.263   2.521  0.6716  0.0511 -0.0215
 1638TIP3    H126405   3.363   2.274   2.580  0.6613 -1.6933  0.3817
 1638TIP3    H226406   3.221   2.224   2.576 -0.1332  0.5048 -0.6768
 1639TIP3   OH226407   3.942   4.837  12.297  0.3525  0.4472  0.8010
 1639TIP3    H126408   3.857   4.822  12.256  0.0949  0.1364  1.4527
 1639TIP3    H226409   3.937   4.794  12.382  0.6563  1.6318  1.4485
 1640TIP3   OH226410   4.013   0.603  13.372 -0.2953  0.1843  0.2359
 1640TIP3    H126411   4.096   0.571  13.406 -1.6159 -1.5221  2.0888
 1640TIP3    H226412   4.022   0.699  13.373  1.7088  0.0412  0.0835
 1641TIP3   OH226413   3.548   6.210  15.256  0.2889  0.1107 -0.3341
 1641TIP3    H126414   3.490   6.259  15.314  1.5829  0.3418  0.8293
 1641TIP3    H226415   3.513   6.121  15.256  0.5549 -0.0317  1.2848
 1642TIP3   OH226416   5.729   2.573   6.057  0.0196  0.9214  0.8249
 1642TIP3    H126417   5.766   2.492   6.023 -0.7776  1.2847 -0.9997
 1642TIP3    H226418   5.771   2.584   6.143  1.1143 -0.7172  0.5470
 1643TIP3   OH226419   5.320   3.391   5.564  0.0492  0.2668  0.3756
 1643TIP3    H126420   5.271   3.428   5.491 -1.7436 -1.3067  0.6917
 1643TIP3    H226421   5.411   3.410   5.544 -0.0885 -2.2059 -3.5952
 1644TIP3   OH226422   6.690   3.811  14.962 -0.2941  0.3891  0.4551
 1644TIP3    H126423   6.776   3.807  14.922 -1.0055 -1.7765 -1.0360
 1644TIP3    H226424   6.660   3.901  14.944  0.2835  0.1608 -2.1244
 1645TIP3   OH226425   2.086   4.034   1.346  0.1624 -0.2386  0.4049
 1645TIP3    H126426   2.071   4.126   1.322 -0.3952 -0.0610  1.3742
 1645TIP3    H226427   2.176   4.033   1.379 -0.6676  0.5655  2.9462
 1646TIP3   OH226428   4.196   0.639   0.916  0.6988  0.6612 -0.3773
 1646TIP3    H126429   4.147   0.571   0.963  3.4151 -0.9179  0.3957
 1646TIP3    H226430   4.207   0.604   0.828 -0.3061  1.4474 -0.8351
 1647TIP3   OH226431   0.363   0.163   6.552  0.3534  0.5549 -0.0831
 1647TIP3    H126432   0.430   0.115   6.503  1.1949 -0.0284  1.5824
 1647TIP3    H226433   0.282   0.113   6.537  0.7242  0.0293 -0.3689
 1648TIP3   OH226434   5.417   5.046  13.217 -0.4404 -0.3254  0.1542
 1648TIP3    H126435   5.475   5.076  13.148 -1.2136  1.0915  0.0722
 1648TIP3    H226436   5.353   4.990  13.173 -1.3417  1.1202 -0.4382
 1649TIP3   OH226437   6.729   2.063   0.903  0.1592 -0.1094  0.2619
 1649TIP3    H126438   6.635   2.077   0.911 -0.1849 -2.6940  2.2250
 1649TIP3    H226439   6.769   2.136   0.951 -1.0424 -0.6759  2.2299
 1650TIP3   OH226440   4.629   0.809  12.033  0.0337 -0.3370 -0.0082
 1650TIP3    H126441   4.685   0.806  12.111 -0.5353 -0.5214  0.3956
 1650TIP3    H226442   4.581   0.727  12.035 -2.1173  0.8579  1.0499
 1651TIP3   OH226443   3.339   5.042   1.847  0.2106  0.2758  0.1056
 1651TIP3    H126444   3.414   5.086   1.806 -0.2756  1.5370  0.5053
 1651TIP3    H226445   3.289   5.113   1.886 -1.4838 -0.4735 -0.5914
 1652TIP3   OH226446   1.087   1.967   2.989  0.1992 -0.0777  0.0245
 1652TIP3    H126447   1.123   1.885   2.955 -1.8349 -0.6695 -0.8354
 1652TIP3    H226448   1.032   1.940   3.063  1.3242  0.7906  1.2304
 1653TIP3   OH226449   3.493   6.156   0.730 -0.0880 -0.2314 -0.7841
 1653TIP3    H126450   3.543   6.230   0.768  0.4219 -0.2547 -1.3933
 1653TIP3    H226451   3.510   6.162   0.636 -0.0470 -1.1263 -0.8401
 1654TIP3   OH226452   0.526   2.740  13.357  0.1090 -0.1109  0.5329
 1654TIP3    H126453   0.573   2.753  13.275  0.2745  0.6561  0.7390
 1654TIP3    H226454   0.433   2.736  13.332  0.2060 -0.5834  0.2395
 1655TIP3   OH226455   2.872   0.722   0.939 -0.6114  0.2988  0.0780
 1655TIP3    H126456   2.839   0.665   1.008 -0.1068  0.6529  0.6222
 1655TIP3    H226457   2.835   0.808   0.959  1.1880  0.8707  1.1255
 1656TIP3   OH226458   6.344   0.098   5.425 -0.2041 -0.2154 -0.3612
 1656TIP3    H126459   6.316   0.183   5.459 -0.7774  0.7742 -3.0545
 1656TIP3    H226460   6.432   0.115   5.390 -0.8645 -0.2961 -2.1646
 1657TIP3   OH226461   1.270   6.068   2.801  0.3955  0.2136 -0.5346
 1657TIP3    H126462   1.357   6.048   2.766  1.4484 -1.2938  2.5275
 1657TIP3    H226463   1.288   6.118   2.881 -1.4781 -0.9389  0.6824
 1658TIP3   OH226464   0.270   4.123  11.756  0.2869 -0.0859 -0.2365
 1658TIP3    H126465   0.354   4.167  11.757  0.1364  0.2786 -1.6450
 1658TIP3    H226466   0.207   4.190  11.730 -0.0118 -0.9560 -1.9335
 1659TIP3   OH226467   0.684   5.304   1.192  0.0800 -0.2674 -0.2758
 1659TIP3    H126468   0.599   5.333   1.159 -0.2285 -2.8770 -2.1134
 1659TIP3    H226469   0.721   5.252   1.121  3.2385  0.6803  0.4848
 1660TIP3   OH226470   5.502   6.259  16.599  0.3513  0.5678 -0.3690
 1660TIP3    H126471   5.482   6.169  16.624  0.0676  1.3033  2.3613
 1660TIP3    H226472   5.585   6.279  16.644  0.6719  1.5255 -1.3411
 1661TIP3   OH226473   1.622   5.629   1.006  0.1601 -0.2476 -0.2274
 1661TIP3    H126474   1.702   5.598   0.964  0.2335 -4.3068  2.3782
 1661TIP3    H226475   1.639   5.623   1.100 -2.5223  0.8586  0.4396
 1662TIP3   OH226476   1.465   3.946  12.671 -0.0699  0.3250  0.0304
 1662TIP3    H126477   1.518   3.897  12.608  1.9159  1.8720  0.4188
 1662TIP3    H226478   1.483   3.904  12.755  0.3723  0.7069  0.1288
 1663TIP3   OH226479   1.772   4.077   5.184 -0.0523 -0.2075 -0.0642
 1663TIP3    H126480   1.714   4.112   5.116  1.3669  0.9682 -0.7234
 1663TIP3    H226481   1.856   4.120   5.169  1.0805 -1.9935  0.7376
 1664TIP3   OH226482   3.700   0.361  12.563 -0.4980  0.0740  0.8782
 1664TIP3    H126483   3.672   0.295  12.626 -0.1203  0.2976  1.2823
 1664TIP3    H226484   3.622   0.413  12.546 -0.8077 -0.5000  0.5263
 1665TIP3   OH226485   3.450   2.015  15.725  0.2214  0.2452  0.3372
 1665TIP3    H126486   3.441   1.973  15.640 -0.5550 -0.2853  0.6684
 1665TIP3    H226487   3.540   2.048  15.726  0.0454  0.8099 -0.9259
 1666TIP3   OH226488   1.062   0.393   1.480  0.1661  0.0081  0.0667
 1666TIP3    H126489   1.055   0.423   1.570 -0.5793  1.3503 -0.4202
 1666TIP3    H226490   1.079   0.299   1.487  1.0820  0.2628  1.6067
 1667TIP3   OH226491   3.881   3.351   1.000 -0.5212 -0.1963  0.2845
 1667TIP3    H126492   3.814   3.298   1.043 -0.4764 -0.3803  0.1319
 1667TIP3    H226493   3.841   3.382   0.920 -0.7169  0.4261  0.6146
 1668TIP3   OH226494   3.277   6.762   0.761 -0.7516 -0.4173  0.7884
 1668TIP3    H126495   3.241   6.687   0.714  0.9551 -1.0144  0.3545
 1668TIP3    H226496   3.282   6.832   0.695 -0.5662 -0.5202  0.6928
 1669TIP3   OH226497   2.069   2.895   5.594  0.7401 -0.4102 -0.2038
 1669TIP3    H126498   2.053   2.872   5.502 -0.0804  1.9146 -0.6848
 1669TIP3    H226499   1.983   2.892   5.635  0.9828 -0.5788  0.3002
 1670TIP3   OH226500   2.939   5.029  16.253 -0.5153  0.2233 -0.7422
 1670TIP3    H126501   2.914   5.120  16.268 -2.2110 -0.3156 -0.0220
 1670TIP3    H226502   2.885   4.979  16.315  0.6910 -1.2387 -0.8193
 1671TIP3   OH226503   6.678   4.122   2.962  0.1146 -0.4765  0.5253
 1671TIP3    H126504   6.769   4.140   2.986 -0.4373  0.1680  2.3323
 1671TIP3    H226505   6.639   4.208   2.947  0.4209 -0.8331 -3.0706
 1672TIP3   OH226506   5.999   4.017  12.003 -0.2146 -0.0996 -0.8313
 1672TIP3    H126507   5.984   3.989  11.912  2.4089  3.1274 -2.4670
 1672TIP3    H226508   5.911   4.031  12.038 -1.3118 -1.2317 -2.9146
 1673TIP3   OH226509   2.185   1.414   3.014  0.1608 -0.6165  0.1180
 1673TIP3    H126510   2.130   1.411   2.935 -0.3236 -0.4012  0.4443
 1673TIP3    H226511   2.167   1.331   3.058  0.5540 -0.8075 -0.0747
 1674TIP3   OH226512   4.860   2.870   2.446 -0.1769  0.3033  0.1221
 1674TIP3    H126513   4.774   2.872   2.488 -0.3249  2.4710 -0.1931
 1674TIP3    H226514   4.909   2.805   2.496 -1.4907  0.1497  1.2819
 1675TIP3   OH226515   5.259   6.161  11.857  0.3704 -0.2155 -0.2684
 1675TIP3    H126516   5.343   6.136  11.818  0.2429 -0.8474 -0.1490
 1675TIP3    H226517   5.196   6.100  11.819  0.0705 -0.1530  0.1260
 1676TIP3   OH226518   3.805   2.795   4.321 -0.2852 -0.5043  0.0500
 1676TIP3    H126519   3.720   2.767   4.355 -0.4594 -0.3285 -0.2382
 1676TIP3    H226520   3.784   2.842   4.241 -0.1865  2.1814  1.4946
 1677TIP3   OH226521   0.111   5.091  16.824 -0.3527 -0.0810 -0.2538
 1677TIP3    H126522   0.083   5.026  16.888  0.0853 -2.0806 -1.9746
 1677TIP3    H226523   0.043   5.089  16.756  0.4055  0.1912 -1.0411
 1678TIP3   OH226524   4.010   0.997   1.129  0.1130  0.0673 -0.1393
 1678TIP3    H126525   3.917   0.974   1.139  0.0803  1.1925  3.5922
 1678TIP3    H226526   4.009   1.083   1.088 -0.5580  0.5092  0.7763
 1679TIP3   OH226527   3.803   1.925   0.371  0.3774 -0.3615 -0.6946
 1679TIP3    H126528   3.891   1.961   0.381 -0.1432  1.0228 -0.9108
 1679TIP3    H226529   3.770   1.917   0.461 -0.1164  1.3350 -0.6933
 1680TIP3   OH226530   3.210   1.026  15.349 -0.0187  0.3134 -0.4711
 1680TIP3    H126531   3.258   1.102  15.380  0.4032  0.3955 -1.3016
 1680TIP3    H226532   3.221   1.027  15.254 -0.2873 -0.5957 -0.5280
 1681TIP3   OH226533   0.753   2.635  11.938  0.0989 -0.1782  0.2173
 1681TIP3    H126534   0.721   2.660  12.025  0.5855  0.1493  0.3030
 1681TIP3    H226535   0.789   2.547  11.950  0.8675  0.1687  0.5260
 1682TIP3   OH226536   6.253   6.363  10.676  0.3320  0.0565  0.0409
 1682TIP3    H126537   6.261   6.376  10.581  1.3148  1.5797  0.3041
 1682TIP3    H226538   6.284   6.273  10.690  1.1578  0.1619 -0.9640
 1683TIP3   OH226539   4.502   5.329  12.927  0.0239  0.3289  0.0220
 1683TIP3    H126540   4.540   5.386  12.860  0.9023 -0.1987  0.0580
 1683TIP3    H226541   4.505   5.242  12.888  0.1840  0.0777  0.5938
 1684TIP3   OH226542   6.481   3.222   2.168  0.4389 -0.0827 -0.3021
 1684TIP3    H126543   6.541   3.202   2.239 -0.8276 -0.1134  0.8056
 1684TIP3    H226544   6.466   3.316   2.176 -1.4618 -0.4274  0.9837
 1685TIP3   OH226545   5.938   2.099  13.589  0.0722  0.0302 -0.1583
 1685TIP3    H126546   5.851   2.139  13.589  0.2448  0.7042 -3.2758
 1685TIP3    H226547   5.931   2.026  13.650 -1.9897  1.3599  1.3228
 1686TIP3   OH226548   4.458   6.109  12.355 -0.5489  0.0683  0.0682
 1686TIP3    H126549   4.472   6.017  12.378 -1.3826 -0.0698  0.0492
 1686TIP3    H226550   4.426   6.107  12.265 -1.3899  0.3101  0.3508
 1687TIP3   OH226551   2.767   6.471   4.064  0.3166  0.0587  0.5068
 1687TIP3    H126552   2.844   6.516   4.030  0.4252 -0.0879  0.5545
 1687TIP3    H226553   2.693   6.517   4.026  0.4422 -0.5700 -0.5349
 1688TIP3   OH226554   0.589   6.506   2.639  0.1362 -0.2097 -0.2813
 1688TIP3    H126555   0.667   6.474   2.684  0.5700  0.6422 -0.4075
 1688TIP3    H226556   0.530   6.535   2.709  2.1821  4.4225 -0.1183
 1689TIP3   OH226557   4.387   4.379   1.379  0.4291 -0.0585 -0.2076
 1689TIP3    H126558   4.471   4.363   1.423  0.6750  1.6987  0.0243
 1689TIP3    H226559   4.321   4.362   1.447  0.6142 -0.7355 -0.1859
 1690TIP3   OH226560   4.702   4.744   4.973 -0.0307 -0.0275 -0.0828
 1690TIP3    H126561   4.643   4.679   5.011  0.1895 -0.1557  0.0395
 1690TIP3    H226562   4.757   4.693   4.913  1.7625 -0.4081  1.7635
 1691TIP3   OH226563   3.055   6.531   1.062  0.1708  0.1095 -0.2275
 1691TIP3    H126564   2.995   6.562   1.130  0.0476 -0.5709 -0.0241
 1691TIP3    H226565   3.114   6.605   1.047 -0.4183  0.6143 -0.0913
 1692TIP3   OH226566   2.228   6.780  17.284  0.1652 -0.0542  0.4861
 1692TIP3    H126567   2.186   6.785  17.198 -1.0825  0.4950  1.1036
 1692TIP3    H226568   2.319   6.804  17.267 -0.2485  0.8855 -0.5593
 1693TIP3   OH226569   3.001   1.390   5.902 -0.4343 -0.3041 -0.4397
 1693TIP3    H126570   3.039   1.306   5.875  0.4940 -0.1975  0.4619
 1693TIP3    H226571   2.977   1.377   5.994 -2.1005 -0.1798 -0.8201
 1694TIP3   OH226572   0.640   1.579   2.298  0.5397  0.5432 -0.2715
 1694TIP3    H126573   0.554   1.571   2.257 -0.1329  1.0740  0.9677
 1694TIP3    H226574   0.702   1.570   2.226 -0.5574  0.3696 -1.2232
 1695TIP3   OH226575   2.656   2.013   6.220 -0.3235  0.5175  0.0238
 1695TIP3    H126576   2.624   1.971   6.299 -1.5553 -0.7937 -1.1006
 1695TIP3    H226577   2.751   2.007   6.226 -0.4019  0.3783  1.3506
 1696TIP3   OH226578   3.466   4.548  15.228 -0.4027 -0.2053 -0.0450
 1696TIP3    H126579   3.525   4.617  15.197 -1.3953  0.5101 -0.3898
 1696TIP3    H226580   3.524   4.486  15.273  0.4811  1.0275  0.6124
 1697TIP3   OH226581   3.682   0.381  15.725 -0.0770  0.1596 -0.3650
 1697TIP3    H126582   3.755   0.438  15.700  0.1050  0.2702  0.3879
 1697TIP3    H226583   3.629   0.375  15.646  1.2548 -0.7352 -1.2332
 1698TIP3   OH226584   5.628   5.506   4.728  0.0002  0.1546 -0.0439
 1698TIP3    H126585   5.628   5.510   4.632  1.0084  1.4371 -0.0105
 1698TIP3    H226586   5.719   5.522   4.753  0.2682 -2.6245  1.0824
 1699TIP3   OH226587   5.799   2.770  12.096  0.5579 -0.1857 -0.0811
 1699TIP3    H126588   5.873   2.828  12.116  2.0674 -2.0518  0.0456
 1699TIP3    H226589   5.733   2.792  12.161  0.4410  2.3829 -0.9520
 1700TIP3   OH226590   4.204   3.484   1.553 -0.1662 -0.8618  0.0282
 1700TIP3    H126591   4.237   3.508   1.639 -0.9959 -0.4832  0.2512
 1700TIP3    H226592   4.122   3.439   1.570 -0.2559 -0.9334 -0.5546
 1701TIP3   OH226593   2.017   6.766  11.634 -0.3695  0.1135  0.5887
 1701TIP3    H126594   2.048   6.779  11.544  1.2901  0.9044  1.2192
 1701TIP3    H226595   1.922   6.758  11.626 -0.1077 -2.3717 -1.4918
 1702TIP3   OH226596   2.313   0.747  14.064  0.0825 -1.0731 -0.6470
 1702TIP3    H126597   2.304   0.772  14.156  0.5741  0.2484 -0.9282
 1702TIP3    H226598   2.269   0.818  14.016  3.8952  0.8998 -1.6189
 1703TIP3   OH226599   2.026   0.993  15.716 -0.3179 -0.0837 -0.0710
 1703TIP3    H126600   2.045   1.084  15.736 -0.4936  0.0141 -0.3384
 1703TIP3    H226601   1.930   0.989  15.711 -0.2668  0.1384 -1.9579
 1704TIP3   OH226602   5.368   1.893  12.032 -0.5528 -0.0497  0.2955
 1704TIP3    H126603   5.373   1.961  12.099  0.5196 -2.2284  2.6215
 1704TIP3    H226604   5.285   1.849  12.048 -0.9559  0.3006 -0.7771
 1705TIP3   OH226605   4.881   1.623  16.383  0.6765  0.0792 -0.3610
 1705TIP3    H126606   4.849   1.699  16.433  2.2794  0.5866 -0.0512
 1705TIP3    H226607   4.857   1.548  16.437  0.5154  0.4736  0.1268
 1706TIP3   OH226608   6.033   5.936   4.552 -0.2363  0.2468 -0.2570
 1706TIP3    H126609   6.057   5.882   4.477 -0.3094 -0.5902  0.3040
 1706TIP3    H226610   6.051   5.880   4.628  0.5260  1.3322  0.3928
 1707TIP3   OH226611   1.351   4.672   4.172  0.8403 -0.1931 -0.1989
 1707TIP3    H126612   1.423   4.618   4.141  0.0320 -1.0411 -0.6239
 1707TIP3    H226613   1.384   4.709   4.255  1.6141 -0.8663 -0.1872
 1708TIP3   OH226614   3.733   1.924   4.588 -0.5846 -0.2512 -0.0563
 1708TIP3    H126615   3.659   1.889   4.638  0.6979  0.8838  2.8777
 1708TIP3    H226616   3.781   1.977   4.651  1.9899  0.1740 -2.2112
 1709TIP3   OH226617   4.595   6.053  15.995 -0.0509  0.5753 -0.2424
 1709TIP3    H126618   4.542   6.049  16.075 -0.0485 -1.9531 -0.2830
 1709TIP3    H226619   4.555   5.988  15.937  2.4745 -0.7543 -0.6345
 1710TIP3   OH226620   5.508   5.983  15.207  0.3506  1.0207  0.1805
 1710TIP3    H126621   5.526   5.963  15.115  0.9306  0.8019  0.3410
 1710TIP3    H226622   5.417   5.957  15.220  0.5055  0.3143 -0.1271
 1711TIP3   OH226623   4.359   1.219   1.283 -0.0792  0.3747  0.5858
 1711TIP3    H126624   4.380   1.206   1.190 -0.9369  2.2566  0.0930
 1711TIP3    H226625   4.339   1.131   1.315 -0.0713 -0.2775 -1.0903
 1712TIP3   OH226626   6.295   4.855   2.135  0.0521  0.7548 -0.3622
 1712TIP3    H126627   6.335   4.928   2.182 -0.3986  0.4602  0.4903
 1712TIP3    H226628   6.351   4.780   2.154  1.1898  1.0649 -2.1774
 1713TIP3   OH226629   0.679   4.841  16.797 -0.4081 -0.1151  0.0635
 1713TIP3    H126630   0.677   4.933  16.824  0.4039 -0.5582  1.8117
 1713TIP3    H226631   0.708   4.843  16.706  1.0467  1.3018  0.5152
 1714TIP3   OH226632   1.906   1.245   3.780 -0.1674  0.0253 -0.2815
 1714TIP3    H126633   1.878   1.247   3.871 -1.0338  1.4635 -0.5463
 1714TIP3    H226634   1.900   1.337   3.751 -0.4380 -0.4743 -1.9239
 1715TIP3   OH226635   6.795   3.916   1.931 -0.2816  0.2309 -0.5645
 1715TIP3    H126636   6.863   3.851   1.913  0.3129  1.0515 -1.4104
 1715TIP3    H226637   6.764   3.942   1.844 -0.0204  1.5746 -0.2753
 1716TIP3   OH226638   0.613   1.943   0.140  0.1991  0.1258 -0.4038
 1716TIP3    H126639   0.629   1.866   0.086  0.2185 -0.6198  0.6379
 1716TIP3    H226640   0.524   1.930   0.175  0.6474 -0.0382  0.7254
 1717TIP3   OH226641   1.509   3.763  16.158  0.0299 -0.3415 -0.6945
 1717TIP3    H126642   1.566   3.753  16.083 -0.3041 -0.8241 -0.8866
 1717TIP3    H226643   1.554   3.718  16.230 -0.8164 -2.0914 -1.2211
 1718TIP3   OH226644   0.062   1.371  15.951 -0.2146  0.2913 -0.4790
 1718TIP3    H126645   0.155   1.354  15.970  0.0199  0.5646 -1.3545
 1718TIP3    H226646   0.021   1.285  15.961 -0.2119  0.4936  1.7300
 1719TIP3   OH226647   1.647   6.095   3.591 -0.3305  0.1354  0.0567
 1719TIP3    H126648   1.567   6.075   3.638  0.3901 -3.1658  0.1418
 1719TIP3    H226649   1.709   6.028   3.620  0.8933 -0.6117 -3.7204
 1720TIP3   OH226650   6.335   1.348  14.846 -0.1917  0.5941 -0.5625
 1720TIP3    H126651   6.345   1.318  14.936 -1.6009  0.2750 -0.4931
 1720TIP3    H226652   6.323   1.443  14.854 -0.9352  0.4857 -0.3583
 1721TIP3   OH226653   2.553   4.296   1.975 -0.3014  0.6139  0.0535
 1721TIP3    H126654   2.589   4.252   2.052  0.1518 -0.1583 -0.5787
 1721TIP3    H226655   2.582   4.386   1.982  0.8085  0.2611  0.1462
 1722TIP3   OH226656   1.919   4.848  10.939  0.6013 -0.3261  0.2402
 1722TIP3    H126657   1.954   4.823  10.854  2.4142  1.8578  0.2490
 1722TIP3    H226658   1.985   4.819  11.002  0.2523 -0.1164  0.7077
 1723TIP3   OH226659   3.180   6.469  13.753 -0.2301 -0.0228  0.2242
 1723TIP3    H126660   3.120   6.510  13.692  0.6367 -0.2521 -0.8066
 1723TIP3    H226661   3.241   6.539  13.778  0.0453 -0.1858  0.0141
 1724TIP3   OH226662   3.668   4.417  15.346 -0.1212 -0.0692  0.0237
 1724TIP3    H126663   3.736   4.396  15.282 -0.2867 -0.2345 -0.0999
 1724TIP3    H226664   3.715   4.452  15.421  0.1800 -1.0008  0.2882
 1725TIP3   OH226665   5.105   3.062  13.857 -0.9297  0.3536 -0.5979
 1725TIP3    H126666   5.128   3.155  13.858  1.4538 -0.1796 -1.0913
 1725TIP3    H226667   5.100   3.039  13.764  1.9355 -0.7134 -0.5922
 1726TIP3   OH226668   6.436   0.084   5.112  0.6324 -0.4135  0.0720
 1726TIP3    H126669   6.443  -0.004   5.077  0.6692 -0.1369 -0.6285
 1726TIP3    H226670   6.348   0.087   5.150  0.6780 -0.7892  0.2133
 1727TIP3   OH226671   1.606   2.667   4.618  0.2086  0.2413 -1.0185
 1727TIP3    H126672   1.641   2.637   4.702  0.0706  2.3115 -0.1464
 1727TIP3    H226673   1.513   2.684   4.637 -0.0226 -0.1048 -1.8348
 1728TIP3   OH226674   2.187   1.463  12.372 -0.7098  0.0966 -0.2238
 1728TIP3    H126675   2.134   1.543  12.362  0.0775  0.4248 -2.1827
 1728TIP3    H226676   2.271   1.495  12.404 -0.8681 -0.1298  0.4221
 1729TIP3   OH226677   5.543   3.284   5.146  0.2029  0.4182 -0.1868
 1729TIP3    H126678   5.532   3.298   5.240 -2.6078 -1.0611 -0.1678
 1729TIP3    H226679   5.602   3.353   5.117  3.0915 -0.4544  2.9878
 1730TIP3   OH226680   0.052   2.334  12.791 -0.0513  0.0832  0.0614
 1730TIP3    H126681   0.063   2.269  12.860  1.5509 -0.8794 -1.0270
 1730TIP3    H226682   0.125   2.395  12.804 -0.2580  0.4042 -0.2579
 1731TIP3   OH226683   6.473   3.562  12.782  0.0381 -0.2453  0.1611
 1731TIP3    H126684   6.414   3.508  12.835  0.3347  0.2492  1.0014
 1731TIP3    H226685   6.558   3.519  12.789  0.4356  0.7153  1.4209
 1732TIP3   OH226686   4.925   5.048  15.096  0.5697 -0.0822  0.7345
 1732TIP3    H126687   4.956   5.023  15.183 -0.8164 -1.3545  0.9212
 1732TIP3    H226688   4.973   5.127  15.074  3.2233 -1.4296  1.3283
 1733TIP3   OH226689   1.416   0.091   1.206 -0.6100 -0.0232  0.2816
 1733TIP3    H126690   1.484   0.149   1.172 -0.8005 -1.1363 -2.2318
 1733TIP3    H226691   1.464   0.018   1.245 -0.3513 -0.0781 -0.1303
 1734TIP3   OH226692   1.050   3.746  15.622  0.2689  0.1499  0.6524
 1734TIP3    H126693   1.097   3.813  15.672  2.2514 -1.1372  0.6128
 1734TIP3    H226694   1.008   3.691  15.687  1.3613 -0.4711  0.8456
 1735TIP3   OH226695   5.192   6.802   1.656 -0.5611 -0.2745 -0.7606
 1735TIP3    H126696   5.190   6.737   1.586 -0.7566 -0.3495 -0.6847
 1735TIP3    H226697   5.160   6.755   1.733 -0.9133 -0.0264 -0.7569
 1736TIP3   OH226698   0.438   4.699   6.237  0.3341  0.3397  0.3625
 1736TIP3    H126699   0.366   4.747   6.277  0.9186  0.3015  1.4986
 1736TIP3    H226700   0.442   4.616   6.284  1.7893  0.7772  1.0950
 1737TIP3   OH226701   3.038   1.897  13.475 -0.3389  0.4957  0.0007
 1737TIP3    H126702   3.075   1.936  13.554 -0.1698 -0.9584  0.6659
 1737TIP3    H226703   3.093   1.821  13.458 -0.6284  0.5475 -1.2906
 1738TIP3   OH226704   1.700   5.797   5.567 -0.0368  0.5058 -0.2191
 1738TIP3    H126705   1.718   5.703   5.575 -0.8968  0.3230 -0.2510
 1738TIP3    H226706   1.745   5.836   5.642  0.6367  0.1159 -0.4149
 1739TIP3   OH226707   3.510   3.809  12.334  0.5770 -0.4199 -0.0954
 1739TIP3    H126708   3.507   3.837  12.243  1.7773  1.1227  0.2949
 1739TIP3    H226709   3.603   3.816  12.358  0.3794 -1.3993  1.0836
 1740TIP3   OH226710   2.815   5.269  13.562 -0.4280  0.1346  0.2246
 1740TIP3    H126711   2.816   5.179  13.594 -0.3183  0.0037 -0.1434
 1740TIP3    H226712   2.887   5.274  13.500 -0.8181  0.2971 -0.2276
 1741TIP3   OH226713   1.938   0.511  11.303 -0.2372 -0.9088 -0.2451
 1741TIP3    H126714   1.936   0.525  11.208  1.3543  0.0554 -0.1704
 1741TIP3    H226715   1.854   0.468  11.322 -0.6106 -1.0983 -2.0684
 1742TIP3   OH226716   4.168   2.174  14.355 -0.5083  0.3478  0.3602
 1742TIP3    H126717   4.251   2.128  14.344 -0.2570  0.8912 -0.0865
 1742TIP3    H226718   4.101   2.108  14.337 -0.2510 -0.6263  2.5968
 1743TIP3   OH226719   2.937   2.183  13.020 -0.4663  0.5008 -0.1341
 1743TIP3    H126720   2.995   2.126  13.071  0.7818  2.1101  0.3076
 1743TIP3    H226721   2.855   2.133  13.013  0.8452 -1.7576 -0.5932
 1744TIP3   OH226722   3.609   5.723   1.212  0.1381 -0.0646  0.1976
 1744TIP3    H126723   3.597   5.684   1.126  0.0993  0.9834 -0.2902
 1744TIP3    H226724   3.704   5.724   1.225  0.2043  0.6878 -0.2817
 1745TIP3   OH226725   1.175   6.014  16.242 -0.1464  0.4555 -0.7732
 1745TIP3    H126726   1.100   6.071  16.226  0.4125  1.6772  0.7258
 1745TIP3    H226727   1.149   5.962  16.318 -0.3820 -0.8529 -1.7102
 1746TIP3   OH226728   2.318   5.967  11.570 -0.4197  0.2027  0.6148
 1746TIP3    H126729   2.346   5.889  11.618  1.9263  1.7139  1.9037
 1746TIP3    H226730   2.323   5.942  11.478 -1.0265 -1.5294  1.0165
 1747TIP3   OH226731   3.835   3.782  14.946  0.1534 -0.1417 -0.0312
 1747TIP3    H126732   3.842   3.690  14.917 -0.4111  0.2145 -1.3886
 1747TIP3    H226733   3.744   3.806  14.926  0.3834  0.8064  0.0275
 1748TIP3   OH226734   6.287   0.976   0.741 -0.2599 -0.4498 -0.5097
 1748TIP3    H126735   6.319   1.062   0.768  0.2493 -0.8288  0.1321
 1748TIP3    H226736   6.366   0.928   0.715 -0.6114 -0.5143 -1.4859
 1749TIP3   OH226737   1.167   5.390   0.648  0.2153 -0.0444 -0.1109
 1749TIP3    H126738   1.230   5.339   0.700 -1.3680 -1.5985  0.3733
 1749TIP3    H226739   1.161   5.474   0.693  0.8210 -0.4261  0.7024
 1750TIP3   OH226740   3.629   6.568   4.353 -0.2530 -0.6599  0.1548
 1750TIP3    H126741   3.584   6.636   4.303 -0.1352  0.4346  1.4669
 1750TIP3    H226742   3.718   6.601   4.364  0.1679 -1.6201 -0.2366
 1751TIP3   OH226743   6.327   1.342   5.883 -0.4796 -0.1043  0.4536
 1751TIP3    H126744   6.372   1.322   5.965  0.3887  0.2019  0.0632
 1751TIP3    H226745   6.397   1.351   5.818 -1.2498 -2.1597 -0.7454
 1752TIP3   OH226746   0.528   1.686   4.495  0.3300  0.2838 -0.4505
 1752TIP3    H126747   0.442   1.649   4.475 -0.1674  1.1290  0.0590
 1752TIP3    H226748   0.576   1.679   4.413  1.1022 -3.5629  0.1105
 1753TIP3   OH226749   5.046   2.041  15.135  0.1105 -0.4319  0.1091
 1753TIP3    H126750   4.976   2.024  15.197  0.6493 -1.2249  0.5201
 1753TIP3    H226751   5.095   2.114  15.173  1.9384 -2.4761  1.9914
 1754TIP3   OH226752   5.400   3.374   4.451 -0.1989 -0.1727  0.0454
 1754TIP3    H126753   5.378   3.387   4.358  1.3757  2.4372 -0.0838
 1754TIP3    H226754   5.316   3.377   4.496 -0.8544  0.4132 -1.1517
 1755TIP3   OH226755   5.807   1.572   2.840 -0.3013 -0.0137  0.0149
 1755TIP3    H126756   5.870   1.613   2.781  1.5643  0.0073  1.8856
 1755TIP3    H226757   5.858   1.508   2.889 -2.0916 -1.0811  0.5741
 1756TIP3   OH226758   5.446   3.350  14.799  0.4821  0.1035 -0.5060
 1756TIP3    H126759   5.510   3.324  14.865 -0.9204 -1.0721  0.4484
 1756TIP3    H226760   5.482   3.429  14.760  2.3320 -0.3219  0.2386
 1757TIP3   OH226761   3.518   6.059   2.934 -0.0273  0.3389  0.2132
 1757TIP3    H126762   3.563   6.118   2.994  0.0909  1.9819 -1.4249
 1757TIP3    H226763   3.426   6.080   2.944  0.0385  1.0278 -0.5916
 1758TIP3   OH226764   4.705   2.015  16.067  0.1889 -0.3675  0.1364
 1758TIP3    H126765   4.716   1.920  16.060  0.0127 -0.4373  0.8096
 1758TIP3    H226766   4.631   2.034  16.008  0.4018 -0.6039 -0.2162
 1759TIP3   OH226767   3.015   6.530   3.444  0.1018 -0.0945  0.1605
 1759TIP3    H126768   2.994   6.446   3.486 -3.5160  1.6591  2.4534
 1759TIP3    H226769   3.036   6.588   3.517 -0.9714  1.8046 -0.9593
 1760TIP3   OH226770   5.054   2.630  14.455 -0.2094  0.0174 -0.1012
 1760TIP3    H126771   5.024   2.720  14.468  0.7800  1.1099 -3.8901
 1760TIP3    H226772   4.986   2.576  14.496 -0.7093  2.3965  2.5566
 1761TIP3   OH226773   5.934   4.918   4.318  0.0001 -0.6270 -0.8602
 1761TIP3    H126774   5.853   4.915   4.266 -1.1558  1.0343  0.6975
 1761TIP3    H226775   5.908   4.885   4.404  0.2798  2.1303  0.3954
 1762TIP3   OH226776   5.908   1.562  10.418 -0.2383 -0.0895  0.1030
 1762TIP3    H126777   5.920   1.627  10.487  1.5214  2.2297 -2.2118
 1762TIP3    H226778   5.994   1.551  10.379 -1.0870 -1.5801 -1.5264
 1763TIP3   OH226779   6.121   3.516  12.509 -0.3045 -0.2526  0.3373
 1763TIP3    H126780   6.151   3.492  12.421  0.3829 -1.5256  0.8935
 1763TIP3    H226781   6.137   3.438  12.562 -0.5691  0.5441  1.6338
 1764TIP3   OH226782   0.654   2.933   2.179 -0.0244  0.4719 -0.8446
 1764TIP3    H126783   0.695   2.859   2.222 -0.1131  0.5693 -0.5905
 1764TIP3    H226784   0.642   2.998   2.249 -0.5523  0.4660 -0.9263
 1765TIP3   OH226785   4.085   6.207   1.577  0.0381  0.1782 -0.1780
 1765TIP3    H126786   4.084   6.160   1.661 -0.4014 -1.1548 -0.8942
 1765TIP3    H226787   4.034   6.286   1.593  1.0569  0.5919  1.1536
 1766TIP3   OH226788   3.993   6.157  13.099  0.4060 -0.0196 -0.2751
 1766TIP3    H126789   3.983   6.252  13.105  1.3691  0.0231  1.0135
 1766TIP3    H226790   4.079   6.144  13.059 -0.3784 -0.3878 -1.9696
 1767TIP3   OH226791   5.977   4.999   5.080  0.4718 -0.2334  0.1083
 1767TIP3    H126792   6.025   4.925   5.042  0.0767  0.2621 -1.4113
 1767TIP3    H226793   5.887   4.966   5.090  0.0878  0.2960 -1.4084
 1768TIP3   OH226794   6.767   4.957  17.058  0.4028 -0.0841  0.4477
 1768TIP3    H126795   6.802   4.868  17.060  0.4189 -0.1245 -0.8775
 1768TIP3    H226796   6.672   4.946  17.058  0.4007 -0.1583 -0.9961
 1769TIP3   OH226797   6.683   1.202  13.685 -0.0205  0.3261  0.0529
 1769TIP3    H126798   6.704   1.230  13.596  0.3339  1.9940  0.6426
 1769TIP3    H226799   6.711   1.274  13.741  1.4951 -1.4522  1.7197
 1770TIP3   OH226800   4.127   1.881  14.947 -0.1488  0.2624  0.2102
 1770TIP3    H126801   4.150   1.788  14.943 -0.6940  0.0934  0.9273
 1770TIP3    H226802   4.032   1.881  14.958 -0.0548  0.8996  1.0088
 1771TIP3   OH226803   0.436   6.620   5.060 -0.0785 -0.2845 -0.1249
 1771TIP3    H126804   0.519   6.656   5.093 -0.2680  2.5169 -2.3942
 1771TIP3    H226805   0.373   6.639   5.129  0.6630 -0.0647  0.5132
 1772TIP3   OH226806   5.519   0.773  14.881  0.3295 -0.0312 -0.3728
 1772TIP3    H126807   5.561   0.716  14.945  1.3374  0.8693 -0.1954
 1772TIP3    H226808   5.434   0.795  14.919 -0.4906 -2.1188 -0.8631
 1773TIP3   OH226809   5.362   3.373   3.594 -0.0956  0.0966  0.4019
 1773TIP3    H126810   5.352   3.278   3.595  0.4767 -0.0183 -1.3371
 1773TIP3    H226811   5.282   3.405   3.551 -0.7913  0.5206  1.9275
 1774TIP3   OH226812   6.460   3.403   0.598  0.6058  0.3859 -0.4451
 1774TIP3    H126813   6.476   3.497   0.601  2.1775  0.1367  0.4450
 1774TIP3    H226814   6.492   3.375   0.512  1.4025  0.4829 -0.1873
 1775TIP3   OH226815   3.074   4.859  12.372 -0.1301 -0.0949 -0.6997
 1775TIP3    H126816   3.078   4.823  12.283  0.7489  0.3951 -0.8659
 1775TIP3    H226817   3.139   4.930  12.372  1.1760 -1.2188  0.8342
 1776TIP3   OH226818   2.608   3.809  11.597 -0.6778  0.1888  0.2965
 1776TIP3    H126819   2.648   3.814  11.684 -1.3142 -0.3821  0.6333
 1776TIP3    H226820   2.517   3.786  11.614 -0.7003 -0.3804 -0.5395
 1777TIP3   OH226821   1.683   4.743   4.479 -0.4871  0.4440  0.1101
 1777TIP3    H126822   1.778   4.752   4.472 -0.7423  2.8993 -1.4085
 1777TIP3    H226823   1.666   4.652   4.453  1.4235 -0.1589  0.7605
 1778TIP3   OH226824   5.928   1.026   5.707 -0.1456  0.0978  0.6646
 1778TIP3    H126825   5.907   0.934   5.691  0.0984  0.1226  0.1703
 1778TIP3    H226826   5.947   1.062   5.620  0.0330  0.5463  0.8827
 1779TIP3   OH226827   1.190   6.418  11.923  0.6701  0.8003 -0.2799
 1779TIP3    H126828   1.272   6.421  11.973 -0.0773  0.3237  1.0386
 1779TIP3    H226829   1.185   6.328  11.891  0.0316  0.4283  0.8029
 1780TIP3   OH226830   3.199   2.668  15.541 -0.1838 -0.0690  0.0171
 1780TIP3    H126831   3.153   2.698  15.462 -1.1886 -0.6926  0.3506
 1780TIP3    H226832   3.129   2.654  15.605  0.7610  2.6793  1.8115
 1781TIP3   OH226833   0.583   1.674   3.444  0.0165 -0.3253 -0.0276
 1781TIP3    H126834   0.554   1.742   3.504  0.7062  0.0987 -0.1601
 1781TIP3    H226835   0.679   1.675   3.451  0.1959  0.4647 -1.9085
 1782TIP3   OH226836   3.258   0.039   1.846  0.7225 -0.2410 -0.1806
 1782TIP3    H126837   3.232   0.009   1.933  1.0063 -1.1310 -0.3966
 1782TIP3    H226838   3.217   0.125   1.838  0.4070 -0.2946  0.6955
 1783TIP3   OH226839   5.849   4.911   3.316  0.3229  0.1678 -0.3677
 1783TIP3    H126840   5.815   4.945   3.399  0.8156 -2.0169  0.8065
 1783TIP3    H226841   5.943   4.924   3.322  0.3044  0.5626 -0.8791
 1784TIP3   OH226842   5.831   6.703  16.011  0.0530 -0.4606  0.3565
 1784TIP3    H126843   5.875   6.653  15.941  0.3025 -1.3783  1.1355
 1784TIP3    H226844   5.792   6.635  16.067  0.6664  0.1953  1.6233
 1785TIP3   OH226845   1.296   2.860   5.637  0.3493 -0.0607  0.0683
 1785TIP3    H126846   1.239   2.920   5.685 -3.4913 -1.7332 -1.9922
 1785TIP3    H226847   1.383   2.901   5.641 -0.9733  2.8755  3.0980
 1786TIP3   OH226848   3.586   4.788   1.749 -0.2035 -0.0559 -0.0892
 1786TIP3    H126849   3.671   4.761   1.784 -0.8860  0.7264  2.3752
 1786TIP3    H226850   3.547   4.707   1.716  0.1383 -1.0590  1.8619
 1787TIP3   OH226851   0.391   3.486   4.816  0.1147 -0.0941 -0.1492
 1787TIP3    H126852   0.383   3.489   4.911 -0.5485 -0.7265 -0.1763
 1787TIP3    H226853   0.301   3.501   4.784  0.2182 -0.5342 -0.6548
 1788TIP3   OH226854   1.195   0.374  11.376 -0.4232  0.4203 -0.4542
 1788TIP3    H126855   1.257   0.355  11.446 -2.4959  0.2313  1.4111
 1788TIP3    H226856   1.197   0.296  11.321 -0.9184 -0.7199  1.0837
 1789TIP3   OH226857   1.195   2.638  16.607 -0.2954  0.0569  0.3589
 1789TIP3    H126858   1.155   2.707  16.660 -1.1523 -1.0400  1.1778
 1789TIP3    H226859   1.289   2.657  16.610 -0.4817  0.9477  0.9138
 1790TIP3   OH226860   0.279   2.168   0.258  0.0995  0.3134  0.4057
 1790TIP3    H126861   0.210   2.149   0.194 -0.5305 -0.2116  1.2185
 1790TIP3    H226862   0.235   2.166   0.343  1.5194 -2.4804  1.1994
 1791TIP3   OH226863   4.432   3.164  14.549  0.1896  0.0527  0.0766
 1791TIP3    H126864   4.414   3.130  14.637  0.2283 -2.3145 -0.7567
 1791TIP3    H226865   4.481   3.094  14.506  0.7578  1.4279 -1.6425
 1792TIP3   OH226866   1.126   5.072  13.543 -0.2452 -0.5077 -0.1662
 1792TIP3    H126867   1.114   5.101  13.633 -1.8304 -0.0903 -0.4831
 1792TIP3    H226868   1.037   5.056  13.511  0.2729 -0.4043 -1.7301
 1793TIP3   OH226869   0.843   4.325  12.591 -0.0618  0.2682  0.3428
 1793TIP3    H126870   0.769   4.385  12.584  0.1041  0.4652  0.2601
 1793TIP3    H226871   0.864   4.303  12.500 -0.9749 -0.9731  0.4107
 1794TIP3   OH226872   3.352   5.572  16.413 -0.4420  0.1303  0.2691
 1794TIP3    H126873   3.432   5.623  16.408  0.4660 -1.1595  1.0289
 1794TIP3    H226874   3.286   5.633  16.446  0.3968  1.0135  0.3329
 1795TIP3   OH226875   1.405   2.690  12.694  0.0505 -0.4791 -0.1357
 1795TIP3    H126876   1.340   2.760  12.701 -0.0559 -0.7286  2.1681
 1795TIP3    H226877   1.470   2.711  12.761  1.9426 -0.6940 -1.8161
 1796TIP3   OH226878   3.047   4.665   6.399  0.3824 -0.9509 -0.2458
 1796TIP3    H126879   3.007   4.635   6.480  1.0953  1.8081  1.2752
 1796TIP3    H226880   3.139   4.677   6.420  0.5419  0.0590 -1.3816
 1797TIP3   OH226881   6.270   2.267   6.441  0.4360 -0.0675 -0.5337
 1797TIP3    H126882   6.339   2.322   6.403  1.1628 -1.5997 -1.5353
 1797TIP3    H226883   6.205   2.258   6.372  0.0551 -0.0045 -0.1855
 1798TIP3   OH226884   4.432   5.148  10.756  0.1764 -0.7966 -0.1258
 1798TIP3    H126885   4.454   5.234  10.791 -0.0859 -0.4869 -0.7112
 1798TIP3    H226886   4.398   5.100  10.831 -1.7085  0.3192 -0.2076
 1799TIP3   OH226887   5.488   6.389  12.093 -0.6977 -0.1686 -0.3336
 1799TIP3    H126888   5.520   6.456  12.033 -1.5093 -0.1833 -0.8082
 1799TIP3    H226889   5.459   6.318  12.035 -2.1874  0.1166  0.0003
 1800TIP3   OH226890   6.666   4.491   0.996  0.1800 -0.1854 -0.1742
 1800TIP3    H126891   6.642   4.488   0.903  0.0722 -0.6774 -0.1375
 1800TIP3    H226892   6.748   4.442   1.001  1.0985  1.2877 -0.2617
 1801TIP3   OH226893   4.912   5.970   0.373  0.3461  0.2065 -0.1743
 1801TIP3    H126894   4.883   5.911   0.303 -0.9906  2.0681 -1.2712
 1801TIP3    H226895   4.894   5.921   0.454  0.9489 -1.5771 -1.0619
 1802TIP3   OH226896   5.430   0.537   4.871  0.1231 -0.5644  0.1462
 1802TIP3    H126897   5.424   0.605   4.938 -2.6729  0.3849 -0.9054
 1802TIP3    H226898   5.515   0.550   4.829  0.0393  1.7152  0.5820
 1803TIP3   OH226899   0.087   2.025   2.681 -0.3750 -0.2231 -0.3045
 1803TIP3    H126900   0.164   1.968   2.682 -0.8505 -0.8754  0.1600
 1803TIP3    H226901   0.062   2.030   2.589 -1.0618 -1.8164 -0.2397
 1804TIP3   OH226902   1.769   0.895  13.873  0.1202  0.1885  0.0884
 1804TIP3    H126903   1.841   0.884  13.935 -0.0806  1.8087  0.6398
 1804TIP3    H226904   1.742   0.986  13.883 -3.7036 -0.9239  1.7913
 1805TIP3   OH226905   2.364   5.771  17.264  0.4778  0.0163 -0.4612
 1805TIP3    H126906   2.338   5.682  17.287  2.3491 -0.7217 -0.9950
 1805TIP3    H226907   2.282   5.821  17.263 -0.7193 -1.8650 -0.9695
 1806TIP3   OH226908   4.857   6.093  10.814  0.0271 -0.9143 -0.2748
 1806TIP3    H126909   4.841   6.019  10.755 -1.1643 -1.1052  0.2519
 1806TIP3    H226910   4.952   6.100  10.818  0.1602 -0.3833 -2.8344
 1807TIP3   OH226911   5.365   3.142  13.572  0.7683  0.2918  0.3852
 1807TIP3    H126912   5.410   3.192  13.504 -0.1548 -0.4379 -0.8279
 1807TIP3    H226913   5.426   3.073  13.596  0.9399  0.2946 -0.0349
 1808TIP3   OH226914   1.124   3.908   3.881 -0.3994 -0.0033 -0.5264
 1808TIP3    H126915   1.075   3.989   3.868 -0.9868  0.1943  2.2628
 1808TIP3    H226916   1.069   3.840   3.840 -0.3410  0.8545 -2.0811
 1809TIP3   OH226917   2.466   3.716   1.428  0.0955  0.4253 -0.5301
 1809TIP3    H126918   2.532   3.783   1.447 -0.0430 -0.0773  2.0757
 1809TIP3    H226919   2.477   3.651   1.497 -2.4311 -0.1979 -0.6244
 1810TIP3   OH226920   0.196   3.434  12.791 -0.4078 -0.3925  0.1895
 1810TIP3    H126921   0.240   3.518  12.805  2.6242 -1.6575 -0.7942
 1810TIP3    H226922   0.220   3.380  12.866  1.3671 -1.6738 -1.2013
 1811TIP3   OH226923   5.875   0.334  10.669  0.3762  0.3276 -0.0688
 1811TIP3    H126924   5.856   0.258  10.725  3.1069  1.0314  2.0593
 1811TIP3    H226925   5.933   0.299  10.601  0.5719  0.2468  0.1373
 1812TIP3   OH226926   3.122   5.244  11.271 -0.0369 -0.0604 -0.1119
 1812TIP3    H126927   3.212   5.212  11.266 -0.5709 -1.7344  0.3989
 1812TIP3    H226928   3.129   5.338  11.251  1.9707  0.1358  1.2451
 1813TIP3   OH226929   6.463   2.411  16.865 -0.1719  0.0646  0.2560
 1813TIP3    H126930   6.477   2.444  16.777  0.0172  1.0889  0.6498
 1813TIP3    H226931   6.467   2.316  16.857 -1.9020  0.0649 -1.1220
 1814TIP3   OH226932   0.939   2.071   1.184  0.4166 -0.0303 -0.2450
 1814TIP3    H126933   0.844   2.077   1.193  0.2072  2.5199 -2.7339
 1814TIP3    H226934   0.968   2.161   1.176  3.1625 -0.7139  0.8840
 1815TIP3   OH226935   2.496   2.783  11.496  0.0157  0.0082 -0.1201
 1815TIP3    H126936   2.575   2.821  11.536  0.9407 -1.3165 -0.6421
 1815TIP3    H226937   2.432   2.782  11.568  0.2664  1.5917  0.1726
 1816TIP3   OH226938   4.751   0.608  14.620  0.1447 -0.5682 -0.2425
 1816TIP3    H126939   4.805   0.529  14.631  0.7163  0.1725  4.5515
 1816TIP3    H226940   4.813   0.680  14.630 -1.0502  0.3355  1.1455
 1817TIP3   OH226941   5.147   0.193  16.001 -0.0836  0.1608  0.2601
 1817TIP3    H126942   5.148   0.190  16.097  0.0660  1.5603  0.3297
 1817TIP3    H226943   5.209   0.262  15.979 -0.0485 -0.2087 -0.8604
 1818TIP3   OH226944   6.740   4.322  11.243  0.3413  0.2881 -1.0550
 1818TIP3    H126945   6.689   4.327  11.162  0.6180  0.1626 -1.2404
 1818TIP3    H226946   6.758   4.414  11.265 -1.9354  0.4851  0.2967
 1819TIP3   OH226947   4.395   1.445  13.564 -0.1973  0.2100  0.2170
 1819TIP3    H126948   4.342   1.442  13.484 -1.1469  0.5193  0.8209
 1819TIP3    H226949   4.427   1.355  13.574 -0.8548 -0.0618  0.0014
 1820TIP3   OH226950   3.093   5.606   5.626 -0.8534  0.0481 -0.0988
 1820TIP3    H126951   2.999   5.618   5.612 -1.6543 -0.4130  3.8771
 1820TIP3    H226952   3.103   5.512   5.637 -0.0869  0.1817  0.3717
 1821TIP3   OH226953   4.552   0.466   4.702 -0.2519  0.1898  0.2728
 1821TIP3    H126954   4.559   0.460   4.797 -1.5117 -0.4129  0.3352
 1821TIP3    H226955   4.560   0.560   4.683 -0.7614  0.3934  1.0406
 1822TIP3   OH226956   4.237   6.738   1.809 -0.2135 -0.0672  0.2654
 1822TIP3    H126957   4.204   6.669   1.752 -0.0668  0.2205 -0.1736
 1822TIP3    H226958   4.332   6.730   1.806 -0.2189 -0.6028  1.1665
 1823TIP3   OH226959   1.663   3.713  12.793  0.0898  0.1763 -0.2062
 1823TIP3    H126960   1.607   3.665  12.854  1.5099 -0.9481  0.2694
 1823TIP3    H226961   1.733   3.651  12.771  0.9542  1.4100 -1.0681
 1824TIP3   OH226962   3.641   0.169   0.853  0.0720  0.2086  0.2229
 1824TIP3    H126963   3.720   0.221   0.866  0.8377 -0.5536 -1.1244
 1824TIP3    H226964   3.605   0.157   0.941  1.1473  1.0470  0.7972
 1825TIP3   OH226965   0.552   4.394  11.565 -0.5932  0.1296 -0.2828
 1825TIP3    H126966   0.561   4.450  11.643 -3.6245  1.1360 -0.5105
 1825TIP3    H226967   0.641   4.375  11.539  0.6478  3.8137  0.6066
 1826TIP3   OH226968   2.166   5.358   4.178  0.2216 -0.0391 -0.3103
 1826TIP3    H126969   2.111   5.354   4.100 -0.3391 -0.3484  0.0924
 1826TIP3    H226970   2.116   5.312   4.245  0.7180  0.1798  0.2211
 1827TIP3   OH226971   0.146   1.440  11.462 -0.3098  0.2189  0.1987
 1827TIP3    H126972   0.212   1.508  11.472  0.0713 -0.2532  0.9780
 1827TIP3    H226973   0.063   1.487  11.471 -0.0642  0.6642  0.1806
 1828TIP3   OH226974   0.677   4.647   0.953  0.0816 -0.1026  0.0433
 1828TIP3    H126975   0.722   4.584   1.009  0.3304  0.4758  0.4994
 1828TIP3    H226976   0.615   4.691   1.011  0.7082  0.8696  0.0010
 1829TIP3   OH226977   5.769   4.335  11.870 -0.1623  0.9594 -0.2739
 1829TIP3    H126978   5.851   4.364  11.830  1.9159 -1.5539  1.7107
 1829TIP3    H226979   5.765   4.383  11.953  0.8568 -0.7898  0.8732
 1830TIP3   OH226980   1.773   3.493   1.613 -0.1098  0.3079  0.9466
 1830TIP3    H126981   1.810   3.419   1.660 -2.5768  0.3166  3.1418
 1830TIP3    H226982   1.826   3.568   1.640  2.3795 -0.5034 -1.2578
 1831TIP3   OH226983   4.999   0.994  11.856 -0.3699 -0.0862  0.2389
 1831TIP3    H126984   4.978   0.900  11.861 -0.6481 -0.1542 -1.6848
 1831TIP3    H226985   5.082   1.002  11.902  0.3813 -1.5319 -0.7854
 1832TIP3   OH226986   3.691   5.566   2.714 -0.1702  0.0702 -0.5859
 1832TIP3    H126987   3.627   5.592   2.781 -1.3497 -1.1416 -1.1939
 1832TIP3    H226988   3.740   5.646   2.696  1.0065  0.2096  2.5357
 1833TIP3   OH226989   0.204   3.868  14.134  0.5457  0.3094  0.1143
 1833TIP3    H126990   0.193   3.963  14.139  0.9495  0.4570 -1.3602
 1833TIP3    H226991   0.116   3.834  14.123  0.4615  0.5619  0.0004
 1834TIP3   OH226992   6.330   4.192  16.482  0.5320 -0.2722  0.2842
 1834TIP3    H126993   6.393   4.262  16.473  0.3974 -0.0510  0.9953
 1834TIP3    H226994   6.383   4.112  16.484  1.0591  0.0335  3.2999
 1835TIP3   OH226995   3.771   3.019   2.676 -0.1127  0.2232  0.1255
 1835TIP3    H126996   3.779   2.957   2.603  0.7369 -1.1307  1.3053
 1835TIP3    H226997   3.853   3.070   2.672  0.6768 -0.9234  1.0345
 1836TIP3   OH226998   3.306   1.943   5.651 -0.3577 -0.1897 -0.1785
 1836TIP3    H126999   3.250   1.997   5.707 -0.4122 -0.3877 -0.0409
 1836TIP3    H227000   3.299   1.982   5.564  0.2709  0.5469  0.0868
 1837TIP3   OH227001   1.300   4.989  13.343  0.1403 -0.6926  0.0253
 1837TIP3    H127002   1.233   4.920  13.339  0.0503 -0.6312  0.4605
 1837TIP3    H227003   1.267   5.050  13.408  0.3102 -0.3261 -0.2302
 1838TIP3   OH227004   4.059   2.115   4.352 -0.7380 -0.5079  0.5467
 1838TIP3    H127005   3.967   2.130   4.370 -1.3365 -2.7319 -0.3123
 1838TIP3    H227006   4.061   2.067   4.269  1.1917 -0.4080  0.4777
 1839TIP3   OH227007   0.707   3.404  13.328 -0.0293 -0.3738  0.4059
 1839TIP3    H127008   0.722   3.481  13.274 -0.2851  0.1668  1.0827
 1839TIP3    H227009   0.748   3.425  13.412 -1.2785 -0.3918  1.0545
 1840TIP3   OH227010   3.928   4.472  15.753  0.2525 -0.6572 -0.8420
 1840TIP3    H127011   3.849   4.436  15.795 -0.0529 -0.9627 -1.6651
 1840TIP3    H227012   3.979   4.395  15.727 -0.5730 -0.5616 -2.9366
 1841TIP3   OH227013   3.705   0.442   2.635  0.6229 -0.0740 -0.5791
 1841TIP3    H127014   3.714   0.505   2.707 -0.7567 -0.9218  0.3887
 1841TIP3    H227015   3.685   0.359   2.678 -0.3657 -0.5793 -1.9435
 1842TIP3   OH227016   6.756   6.014  16.452 -0.3997  0.3423  0.2386
 1842TIP3    H127017   6.681   6.071  16.473 -2.3288 -1.2780 -1.7488
 1842TIP3    H227018   6.790   6.050  16.370  0.8036  0.8190  0.9239
 1843TIP3   OH227019   2.103   0.546  11.788 -0.7648  0.3148 -0.5434
 1843TIP3    H127020   2.071   0.459  11.810 -0.1929  0.1991 -0.1457
 1843TIP3    H227021   2.075   0.560  11.697 -1.2648 -0.0882 -0.4506
 1844TIP3   OH227022   4.908   3.417  13.286  0.2926 -0.0351 -0.1837
 1844TIP3    H127023   4.850   3.479  13.242 -1.9792 -1.1208  1.0733
 1844TIP3    H227024   4.950   3.368  13.215 -0.9359  0.2865 -1.1601
 1845TIP3   OH227025   4.059   4.703  11.865  0.0746 -0.4466 -0.3752
 1845TIP3    H127026   3.975   4.699  11.818  0.6658  0.0324 -1.4992
 1845TIP3    H227027   4.046   4.771  11.931 -1.4679 -2.5588  1.6437
 1846TIP3   OH227028   3.170   4.879  13.112 -0.0711  0.4683  0.4231
 1846TIP3    H127029   3.161   4.830  13.194 -0.1491 -0.5472 -0.1717
 1846TIP3    H227030   3.101   4.945  13.115 -1.3865 -0.8554  0.2999
 1847TIP3   OH227031   6.328   3.367   1.875  0.5765 -0.2001 -0.0449
 1847TIP3    H127032   6.247   3.336   1.836  0.4083 -0.4272  0.4687
 1847TIP3    H227033   6.301   3.434   1.938  0.6677 -1.1023  0.9831
 1848TIP3   OH227034   3.350   0.554  12.255  0.2757 -0.0267  0.2557
 1848TIP3    H127035   3.308   0.468  12.250  1.0391 -0.3291 -1.9042
 1848TIP3    H227036   3.340   0.590  12.167  0.1885  2.0221  1.0568
 1849TIP3   OH227037   1.595   0.836  13.286  0.3854 -0.4521  0.0666
 1849TIP3    H127038   1.555   0.831  13.373 -0.6863 -0.3319 -0.3985
 1849TIP3    H227039   1.633   0.750  13.272  2.0569  0.0439  1.3287
 1850TIP3   OH227040   3.574   3.537   5.315  0.2641 -0.0292  0.1332
 1850TIP3    H127041   3.491   3.497   5.289 -0.2748  1.2446 -0.1915
 1850TIP3    H227042   3.549   3.614   5.365  1.2051  1.1990 -1.2134
 1851TIP3   OH227043   2.583   2.952   4.727 -0.3799 -0.3352 -0.4160
 1851TIP3    H127044   2.549   2.927   4.642 -2.0458 -1.1284  0.4417
 1851TIP3    H227045   2.538   2.895   4.789 -0.5189  1.3971  1.1666
 1852TIP3   OH227046   4.348   5.249   0.602  0.2465 -0.4089 -0.1161
 1852TIP3    H127047   4.335   5.163   0.563  0.6641  0.1568 -1.5337
 1852TIP3    H227048   4.345   5.310   0.529 -1.1094  0.9178  0.9734
 1853TIP3   OH227049   2.900   1.579  13.438 -0.0210  0.2721 -0.4329
 1853TIP3    H127050   2.978   1.525  13.427 -1.0858 -1.1582 -1.2784
 1853TIP3    H227051   2.911   1.651  13.375  0.5745  0.0568 -0.5776
 1854TIP3   OH227052   1.082   1.078  14.660 -0.2162 -0.2149  0.0316
 1854TIP3    H127053   1.137   1.060  14.584  0.6009 -2.2906  1.0269
 1854TIP3    H227054   0.994   1.089  14.625  0.3330  0.0666 -1.3116
 1855TIP3   OH227055   2.732   6.550   5.746  0.0675  0.0310  0.4273
 1855TIP3    H127056   2.723   6.609   5.820  2.1189  2.2401 -0.9342
 1855TIP3    H227057   2.684   6.593   5.675  0.0024 -0.9232 -0.1255
 1856TIP3   OH227058   3.336   4.632  15.706  0.4047  0.3504  0.1602
 1856TIP3    H127059   3.426   4.651  15.734  1.2845 -1.2799 -1.3150
 1856TIP3    H227060   3.342   4.626  15.610 -1.5520  1.4314 -0.0654
 1857TIP3   OH227061   1.507   0.788   3.606  0.0479  0.2124 -0.6823
 1857TIP3    H127062   1.561   0.716   3.577  1.5414  0.7652  0.5941
 1857TIP3    H227063   1.537   0.807   3.695 -1.9787  0.8037 -0.0592
 1858TIP3   OH227064   5.744   5.208   5.102  0.0881  0.5655 -0.3160
 1858TIP3    H127065   5.758   5.132   5.045 -2.2656  0.3709 -0.7662
 1858TIP3    H227066   5.781   5.182   5.186  0.4063 -0.5964 -0.7909
 1859TIP3   OH227067   5.053   4.507   0.723  0.4757  0.0922 -0.0711
 1859TIP3    H127068   5.018   4.551   0.800  1.8971  0.9602  0.1237
 1859TIP3    H227069   4.991   4.526   0.653 -0.7878 -0.6392  0.8088
 1860TIP3   OH227070   3.181   4.904  16.227  0.0714 -0.5243 -0.1515
 1860TIP3    H127071   3.094   4.941  16.211 -0.2036 -0.8621  0.5182
 1860TIP3    H227072   3.237   4.980  16.246  0.0054 -0.2775 -0.9211
 1861TIP3   OH227073   6.753   3.968  15.654 -0.0753  0.0756  0.1418
 1861TIP3    H127074   6.735   4.049  15.606 -2.7199 -0.5286 -0.0504
 1861TIP3    H227075   6.720   3.985  15.743 -1.8266 -1.1042 -0.2162
 1862TIP3   OH227076   0.049   4.034  17.114  0.2329  0.4402 -0.2670
 1862TIP3    H127077   0.094   4.017  17.197  0.2713 -1.5410 -0.6272
 1862TIP3    H227078   0.077   4.121  17.088 -0.8436  1.7019  2.4540
 1863TIP3   OH227079   1.368   4.268  13.683 -0.4046 -0.7479  0.2478
 1863TIP3    H127080   1.359   4.317  13.765  1.9130 -1.1112  0.8021
 1863TIP3    H227081   1.453   4.295  13.648 -0.8697 -1.4046 -1.5005
 1864TIP3   OH227082   2.979   6.675  14.395  0.1455 -0.9372  0.2611
 1864TIP3    H127083   3.005   6.697  14.306 -2.4861  0.8957 -0.1727
 1864TIP3    H227084   2.892   6.638  14.387 -0.7075  0.4741  2.1225
 1865TIP3   OH227085   1.386   6.086  16.999  0.3605 -0.4278  0.2835
 1865TIP3    H127086   1.405   6.076  16.905  1.4278 -0.8175  0.5297
 1865TIP3    H227087   1.452   6.147  17.030 -1.6855  1.9767  0.2647
 1866TIP3   OH227088   1.213   1.647  13.856  0.2503  0.1192  0.2549
 1866TIP3    H127089   1.274   1.657  13.930  1.2844  1.2387 -0.7047
 1866TIP3    H227090   1.126   1.657  13.895  0.6278 -1.7278  1.6957
 1867TIP3   OH227091   6.450   1.123  12.864  0.2506  0.6590  0.0232
 1867TIP3    H127092   6.418   1.043  12.822  1.7500  1.0577 -2.0139
 1867TIP3    H227093   6.524   1.093  12.917  0.4416  0.6035 -0.2709
 1868TIP3   OH227094   5.587   0.906  16.338  0.5262 -0.1360  0.1576
 1868TIP3    H127095   5.501   0.948  16.331 -0.3952 -1.7812  1.0914
 1868TIP3    H227096   5.597   0.886  16.431  1.0406 -1.7300 -0.2117
 1869TIP3   OH227097   3.289   2.533  11.478  0.0892  0.6557  0.4285
 1869TIP3    H127098   3.204   2.539  11.523 -0.0243  1.3041  0.1302
 1869TIP3    H227099   3.291   2.609  11.420  0.5478  0.2248 -0.1356
 1870TIP3   OH227100   3.049   3.332  13.227 -0.1430 -0.5523  0.6079
 1870TIP3    H127101   2.970   3.279  13.232 -0.3586 -0.5806 -1.9013
 1870TIP3    H227102   3.022   3.419  13.256 -1.3372 -0.3675 -0.9383
 1871TIP3   OH227103   2.464   0.918   6.493  0.0021  0.1142 -0.5895
 1871TIP3    H127104   2.551   0.957   6.492  0.0812 -0.0421 -0.1801
 1871TIP3    H227105   2.480   0.824   6.501 -0.2093  0.2207  1.7716
 1872TIP3   OH227106   6.424   0.853  13.663 -0.1466 -0.5523 -0.0248
 1872TIP3    H127107   6.401   0.761  13.649 -2.3346 -0.0897  0.0241
 1872TIP3    H227108   6.353   0.901  13.619  1.9366  1.1603 -1.6945
 1873TIP3   OH227109   1.312   5.091   1.425 -0.4365  0.2122  0.4447
 1873TIP3    H127110   1.232   5.100   1.374  1.0531 -1.2258 -2.3767
 1873TIP3    H227111   1.283   5.063   1.512 -3.0494  1.9195  0.2255
 1874TIP3   OH227112   5.101   4.053  14.911 -0.3590 -0.5335 -0.2256
 1874TIP3    H127113   5.011   4.080  14.929 -0.3307 -0.0451 -0.7825
 1874TIP3    H227114   5.096   4.007  14.827  0.1148  0.8007 -1.0305
 1875TIP3   OH227115   0.107   2.659  10.956 -0.0259  0.7114 -0.4713
 1875TIP3    H127116   0.026   2.711  10.950  0.2717  1.1878 -0.3692
 1875TIP3    H227117   0.076   2.568  10.958 -0.6102  0.9214  0.5290
 1876TIP3   OH227118   3.678   0.173   4.012  0.4913  0.4324 -0.0504
 1876TIP3    H127119   3.609   0.161   4.077  1.1291 -0.0093  0.5622
 1876TIP3    H227120   3.665   0.262   3.979  0.4552  0.8469  1.0445
 1877TIP3   OH227121   0.519   5.333   3.608 -0.0688  0.4036 -0.5533
 1877TIP3    H127122   0.566   5.295   3.534  0.6148 -0.5300  0.3513
 1877TIP3    H227123   0.513   5.263   3.672  0.6235  1.6092  0.8843
 1878TIP3   OH227124   3.570   5.193  11.562  0.6055 -0.3407  0.3156
 1878TIP3    H127125   3.516   5.256  11.514  2.4322  0.5480 -0.7019
 1878TIP3    H227126   3.536   5.107  11.537  1.2900  0.1036 -2.4069
 1879TIP3   OH227127   5.940   2.120   3.868  0.4746 -0.5352 -0.4397
 1879TIP3    H127128   5.864   2.116   3.809  1.8992 -1.6887 -2.3016
 1879TIP3    H227129   6.013   2.144   3.811  1.5152  0.8403  1.3596
 1880TIP3   OH227130   0.592   3.013  11.437  0.2322 -0.5275  0.0164
 1880TIP3    H127131   0.510   2.994  11.481  0.5202 -0.7415  0.4632
 1880TIP3    H227132   0.575   2.994  11.344  0.2105 -1.9835  0.2972
 1881TIP3   OH227133   1.022   5.028   6.341  0.5034  0.2788  0.3664
 1881TIP3    H127134   0.954   4.994   6.399  1.3560  0.3044  1.4112
 1881TIP3    H227135   1.041   4.955   6.282 -1.9170  0.9565 -1.3865
 1882TIP3   OH227136   1.449   2.332  15.423  0.2550  0.2211 -0.4049
 1882TIP3    H127137   1.535   2.335  15.382  0.1497 -1.7546 -0.8984
 1882TIP3    H227138   1.387   2.342  15.351  0.0543  1.1952 -0.1113
 1883TIP3   OH227139   6.508   5.034   3.373 -0.5275  0.4445 -0.2834
 1883TIP3    H127140   6.600   5.050   3.350  0.0508  0.6993  1.9316
 1883TIP3    H227141   6.501   4.939   3.377 -0.8605  0.3656 -2.1716
 1884TIP3   OH227142   1.894   3.246   1.290  0.1572 -0.2228  0.2120
 1884TIP3    H127143   1.902   3.211   1.379  0.8954 -0.2405  0.1438
 1884TIP3    H227144   1.982   3.278   1.269 -0.3926  1.3158  0.1200
 1885TIP3   OH227145   3.957   0.425   6.088  0.1856 -0.0557  0.5154
 1885TIP3    H127146   3.865   0.408   6.068 -0.1220  1.5707  0.4286
 1885TIP3    H227147   3.974   0.371   6.165 -0.7250 -0.6770  0.3038
 1886TIP3   OH227148   2.556   5.222   1.217  0.5274 -0.4926 -0.1441
 1886TIP3    H127149   2.469   5.249   1.245 -1.0347 -1.5361 -3.5109
 1886TIP3    H227150   2.590   5.296   1.168  0.5524 -0.9051 -0.7605
 1887TIP3   OH227151   6.349   5.143  16.069 -0.1980  0.1385 -0.2670
 1887TIP3    H127152   6.279   5.123  16.006 -1.0976  0.1791  0.6866
 1887TIP3    H227153   6.414   5.191  16.018 -1.2222  0.7672 -1.0223
 1888TIP3   OH227154   1.558   6.123   2.898  0.1439 -0.0358 -0.3049
 1888TIP3    H127155   1.654   6.126   2.897  0.1823 -1.1369 -1.2747
 1888TIP3    H227156   1.535   6.142   2.989  1.2757  0.2718 -0.0659
 1889TIP3   OH227157   6.512   3.470   2.293 -0.3265 -0.0736  0.1202
 1889TIP3    H127158   6.488   3.561   2.276  0.2709  0.4518  1.8519
 1889TIP3    H227159   6.483   3.454   2.382  0.1386 -1.3902  0.0548
 1890TIP3   OH227160   6.006   2.383   2.769 -0.4433  0.3707  0.2519
 1890TIP3    H127161   6.052   2.403   2.687 -1.0023  1.2562  0.1438
 1890TIP3    H227162   6.075   2.348   2.826 -0.2177 -1.1144 -0.8715
 1891TIP3   OH227163   5.552   1.429  15.426  0.2883  0.4842 -0.0070
 1891TIP3    H127164   5.616   1.498  15.410 -0.5977  1.0625 -1.2408
 1891TIP3    H227165   5.588   1.352  15.382  0.2036  0.7844 -0.6229
 1892TIP3   OH227166   1.677   1.735   1.401 -0.2822 -0.2833 -0.3020
 1892TIP3    H127167   1.668   1.706   1.310  0.1332 -2.8897  0.4107
 1892TIP3    H227168   1.655   1.658   1.453 -0.1489  1.0402  1.8273
 1893TIP3   OH227169   4.385   3.181   1.925 -0.5510  0.4783  0.2295
 1893TIP3    H127170   4.412   3.236   1.998 -0.5119  1.0553 -0.2179
 1893TIP3    H227171   4.440   3.208   1.852  0.3564 -1.0281  0.3204
 1894TIP3   OH227172   3.631   4.783  16.441 -0.0599  0.0199  0.0269
 1894TIP3    H127173   3.707   4.823  16.483  0.4239 -1.8762  1.0859
 1894TIP3    H227174   3.573   4.760  16.514  0.8671 -3.5237 -0.1435
 1895TIP3   OH227175   6.520   4.969   2.849  0.3265 -0.1624  0.2125
 1895TIP3    H127176   6.612   4.993   2.862  0.3880 -1.4300  2.6559
 1895TIP3    H227177   6.477   4.997   2.929 -0.8039 -2.3424  0.4161
 1896TIP3   OH227178   2.684   3.690  16.999  0.2439 -0.3043 -0.1252
 1896TIP3    H127179   2.682   3.782  17.024  1.1872 -0.9288  2.5369
 1896TIP3    H227180   2.774   3.674  16.970 -0.3030 -0.0931 -2.0833
 1897TIP3   OH227181   5.006   5.516  16.733 -0.0025  0.1142  0.4010
 1897TIP3    H127182   4.911   5.505  16.736  0.0092  0.1197  1.0469
 1897TIP3    H227183   5.037   5.473  16.813  0.5227  0.2788  0.2912
 1898TIP3   OH227184   3.553   4.993   3.405 -0.0419  0.2999 -0.1952
 1898TIP3    H127185   3.495   4.917   3.405  1.2151 -0.6929  0.3140
 1898TIP3    H227186   3.619   4.972   3.339 -0.6200  1.7321 -1.2909
 1899TIP3   OH227187   6.733   4.553  15.452  0.8208  0.0566 -0.0366
 1899TIP3    H127188   6.702   4.637  15.484  1.0204  0.1528 -0.0936
 1899TIP3    H227189   6.671   4.489  15.488 -1.9813  0.5548 -3.4721
 1900TIP3   OH227190   2.956   5.455   1.703 -0.1045 -0.0410 -0.4522
 1900TIP3    H127191   2.926   5.539   1.738  0.7219  0.2780 -0.5022
 1900TIP3    H227192   3.027   5.429   1.762  0.1134 -0.3593 -0.8545
 1901TIP3   OH227193   0.436   5.367   6.303 -0.7621 -0.8114  0.0463
 1901TIP3    H127194   0.519   5.357   6.257 -1.7549 -2.9701 -1.4066
 1901TIP3    H227195   0.428   5.288   6.357 -1.4600 -0.1966  0.8744
 1902TIP3   OH227196   0.943   3.873  15.159  0.1977 -0.2171 -0.6933
 1902TIP3    H127197   1.017   3.817  15.134  0.9235 -0.0159  0.9167
 1902TIP3    H227198   0.974   3.921  15.235 -2.0347 -1.1164  0.8709
 1903TIP3   OH227199   1.000   2.228  15.365 -0.2850 -0.5881  0.0256
 1903TIP3    H127200   1.024   2.157  15.424 -0.2932 -0.0540  0.6894
 1903TIP3    H227201   0.916   2.258  15.397 -0.3304 -0.3454 -0.3148
 1904TIP3   OH227202   2.798   6.281  15.985  0.0992  0.1825  0.2984
 1904TIP3    H127203   2.890   6.305  15.997 -0.0534  0.3112  1.3129
 1904TIP3    H227204   2.750   6.338  16.046 -0.3403 -2.1759  2.3066
 1905TIP3   OH227205   4.507   0.726  17.081  0.1135 -0.7954 -0.2984
 1905TIP3    H127206   4.529   0.645  17.127 -0.7183 -0.6544  0.3753
 1905TIP3    H227207   4.582   0.742  17.025  2.6062  0.5570  3.0585
 1906TIP3   OH227208   0.393   5.343  11.187  0.2179  0.2934 -0.3619
 1906TIP3    H127209   0.316   5.336  11.244  0.7354 -1.6356  0.1781
 1906TIP3    H227210   0.363   5.395  11.113 -1.5102 -0.0936  0.0110
 1907TIP3   OH227211   2.914   4.779   4.895 -0.0079 -0.0019  0.1727
 1907TIP3    H127212   2.831   4.816   4.925  0.5426  1.8617 -0.4966
 1907TIP3    H227213   2.940   4.719   4.966 -1.1167  0.6045  1.1292
 1908TIP3   OH227214   3.852   6.503   4.110 -0.4839 -0.8794  0.2446
 1908TIP3    H127215   3.880   6.432   4.052 -0.4783  0.7527 -1.8689
 1908TIP3    H227216   3.813   6.568   4.051  1.4841  1.8735  1.7668
 1909TIP3   OH227217   5.947   1.935   4.404  0.3325  0.3015  0.5444
 1909TIP3    H127218   5.884   2.007   4.396  0.0207 -0.1426 -2.4626
 1909TIP3    H227219   6.029   1.971   4.372  0.5436 -0.2575  0.4504
 1910TIP3   OH227220   1.214   1.344   6.330  0.5326 -0.2922 -0.6019
 1910TIP3    H127221   1.292   1.397   6.344  0.0880  0.0255  0.8702
 1910TIP3    H227222   1.147   1.386   6.384 -0.3720 -1.1706 -1.0164
 1911TIP3   OH227223   6.804   6.323  17.135 -0.4562  1.2341  0.3943
 1911TIP3    H127224   6.881   6.279  17.097 -0.3698  1.4306  0.3412
 1911TIP3    H227225   6.737   6.254  17.139 -0.6759  1.3645 -0.7143
 1912TIP3   OH227226   2.331   6.327   3.132 -0.1480 -0.0782 -0.1963
 1912TIP3    H127227   2.329   6.423   3.135  0.7075 -0.0428 -0.4111
 1912TIP3    H227228   2.390   6.307   3.059 -0.9057 -0.7756 -0.6311
 1913TIP3   OH227229   2.194   2.025   1.857 -0.0029 -0.1682 -0.2169
 1913TIP3    H127230   2.265   2.081   1.887 -0.7225  1.1020 -0.8116
 1913TIP3    H227231   2.168   1.975   1.934  1.6236 -0.7809 -0.0342
 1914TIP3   OH227232   5.111   5.022  11.260  0.1124  0.1328  0.3616
 1914TIP3    H127233   5.066   5.089  11.313 -1.2720 -1.6818  1.6132
 1914TIP3    H227234   5.193   5.006  11.306  0.7031  1.2876 -0.2361
 1915TIP3   OH227235   2.612   0.948   4.532 -0.1760  0.0782  0.4014
 1915TIP3    H127236   2.691   0.932   4.584 -0.1717 -0.6687  0.1824
 1915TIP3    H227237   2.592   1.040   4.547  2.2399  1.0547 -1.5871
 1916TIP3   OH227238   4.006   0.991   2.248 -0.0285 -0.0647 -0.2124
 1916TIP3    H127239   3.977   0.941   2.171  0.2364  0.2563 -0.5252
 1916TIP3    H227240   4.098   0.964   2.260  0.6187  1.4897 -1.3395
 1917TIP3   OH227241   1.893   6.524  17.084 -0.2482 -0.4688 -0.1130
 1917TIP3    H127242   1.828   6.582  17.046 -1.2791 -0.0105  2.2260
 1917TIP3    H227243   1.844   6.446  17.109  0.2038 -0.3858  1.0820
 1918TIP3   OH227244   6.118   4.402  11.493 -0.1509 -0.2966 -0.0551
 1918TIP3    H127245   6.152   4.319  11.457 -0.4156 -1.1576  1.5832
 1918TIP3    H227246   6.196   4.452  11.515  0.0259 -0.7239  0.2979
 1919TIP3   OH227247   6.639   0.103   4.375  0.1547 -0.2595  0.0300
 1919TIP3    H127248   6.722   0.137   4.409  0.7705 -0.1535 -1.5125
 1919TIP3    H227249   6.573   0.136   4.437  1.0675  1.1305  0.3142
 1920TIP3   OH227250   0.259   2.272  11.634 -0.2119 -0.3067  0.5629
 1920TIP3    H127251   0.346   2.233  11.625  0.7300  1.8312 -0.4118
 1920TIP3    H227252   0.254   2.300  11.725  0.7482  0.8516  0.2808
 1921TIP3   OH227253   2.169   0.938  13.900  0.6719 -0.1306 -0.0772
 1921TIP3    H127254   2.117   0.962  13.824  0.1777 -0.3535  0.1852
 1921TIP3    H227255   2.186   1.022  13.944  0.5738 -0.0505 -0.1907
 1922TIP3   OH227256   3.297   5.047   4.449 -0.5353 -0.2404 -0.3622
 1922TIP3    H127257   3.209   5.033   4.415 -1.7738  1.9012  1.6249
 1922TIP3    H227258   3.318   4.966   4.496 -1.9778 -0.3280  0.1575
 1923TIP3   OH227259   0.398   4.954   0.699 -0.4838  0.0942 -0.7496
 1923TIP3    H127260   0.307   4.959   0.672 -1.5520  1.5236  2.5516
 1923TIP3    H227261   0.407   4.867   0.739 -0.9628  0.6028  0.5069
 1924TIP3   OH227262   3.955   6.054  11.791  0.0279 -0.3750 -0.7716
 1924TIP3    H127263   3.893   5.986  11.763 -0.1234 -0.1615 -0.9531
 1924TIP3    H227264   3.956   6.116  11.719  0.7452 -0.5748 -0.9389
 1925TIP3   OH227265   3.132   6.024   3.690 -0.0294 -0.0969  0.5195
 1925TIP3    H127266   3.201   6.042   3.626 -0.0616  1.8011  0.9426
 1925TIP3    H227267   3.180   6.003   3.771  0.0975  1.3042  0.8354
 1926TIP3   OH227268   2.705   3.888  16.420 -0.5308 -0.2007  0.4179
 1926TIP3    H127269   2.733   3.874  16.510  0.9745 -0.3656 -0.0508
 1926TIP3    H227270   2.779   3.858  16.367 -0.2626  2.4248 -0.8227
 1927TIP3   OH227271   3.859   4.876  16.596 -0.4670 -0.4442  0.2268
 1927TIP3    H127272   3.929   4.841  16.540 -0.0555  0.5953  0.0645
 1927TIP3    H227273   3.876   4.970  16.598 -1.9199 -0.1630  0.1310
 1928TIP3   OH227274   4.787   5.511  15.350  0.3262 -0.0111 -0.9374
 1928TIP3    H127275   4.811   5.453  15.277 -0.5803 -1.9395  0.2361
 1928TIP3    H227276   4.698   5.540  15.329  0.3332  0.0130 -0.9335
 1929TIP3   OH227277   6.757   2.105   1.777 -0.6355 -0.2082 -0.4432
 1929TIP3    H127278   6.669   2.094   1.743 -0.6472 -0.3648 -0.3622
 1929TIP3    H227279   6.751   2.081   1.870 -0.8434  1.2851 -0.0506
 1930TIP3   OH227280   6.045   0.909  17.114  0.7425 -0.1180 -0.4306
 1930TIP3    H127281   6.023   0.888  17.023  0.6326  0.2391 -0.4887
 1930TIP3    H227282   6.101   0.987  17.108 -0.4706  0.8212 -0.1237
 1931TIP3   OH227283   3.469   3.636   2.838 -0.0501  0.0796  0.2034
 1931TIP3    H127284   3.387   3.599   2.870 -0.8900  1.0293 -0.7450
 1931TIP3    H227285   3.450   3.662   2.748  1.5554 -0.4482 -0.3249
 1932TIP3   OH227286   1.098   3.756   4.187 -0.8673 -0.1706  0.3487
 1932TIP3    H127287   1.181   3.733   4.145  0.1550 -2.8050  3.3645
 1932TIP3    H227288   1.031   3.736   4.121  0.7247 -1.3665 -0.9843
 1933TIP3   OH227289   2.430   3.052   1.778  0.1239 -0.3028  0.1043
 1933TIP3    H127290   2.467   2.989   1.840  0.2311  0.1954  0.5471
 1933TIP3    H227291   2.335   3.046   1.792  0.2262  1.8977  2.4251
 1934TIP3   OH227292   2.010   2.685  16.931 -0.3636  0.0670  0.3095
 1934TIP3    H127293   2.089   2.702  16.982  0.2055 -1.2310 -0.0877
 1934TIP3    H227294   1.964   2.769  16.929  1.3339  1.0450 -0.0442
 1935TIP3   OH227295   0.623   5.481   5.872  0.4156  0.1817  0.1712
 1935TIP3    H127296   0.584   5.513   5.953  0.2841  2.1053 -0.6158
 1935TIP3    H227297   0.548   5.460   5.816  0.5078 -1.0255  0.4609
 1936TIP3   OH227298   0.254   5.400   4.467 -0.5266 -0.0426  0.3530
 1936TIP3    H127299   0.169   5.443   4.466 -0.2339  0.5458  0.0303
 1936TIP3    H227300   0.270   5.379   4.559 -0.5565  0.7981  0.5568
 1937TIP3   OH227301   0.217   1.435   5.583 -0.0728 -0.3041  1.1101
 1937TIP3    H127302   0.248   1.475   5.502  1.7690 -1.7869  0.9957
 1937TIP3    H227303   0.169   1.505   5.628  1.4238  1.4433  0.1231
 1938TIP3   OH227304   1.911   5.015   3.376  0.0815  0.5063  0.1443
 1938TIP3    H127305   1.817   5.022   3.361  0.4560  1.7595 -1.8992
 1938TIP3    H227306   1.946   5.101   3.355  1.7896 -0.1684  0.0406
 1939TIP3   OH227307   6.261   5.460  12.982  0.1517 -0.7390  0.5830
 1939TIP3    H127308   6.182   5.411  12.961  0.2051 -1.1174  1.2386
 1939TIP3    H227309   6.332   5.410  12.940  0.0582 -0.4532  0.0774
 1940TIP3   OH227310   1.078   6.194   5.175 -0.1054  0.0067  0.0241
 1940TIP3    H127311   1.143   6.136   5.214 -1.5793 -1.2055  0.7853
 1940TIP3    H227312   1.084   6.177   5.081 -0.3347 -1.2148  0.2171
 1941TIP3   OH227313   6.467   2.536  16.587  0.6074  0.1579  0.4383
 1941TIP3    H127314   6.547   2.573  16.549 -0.0219  0.1968 -0.9144
 1941TIP3    H227315   6.398   2.595  16.557 -0.0941 -0.6559  0.4298
 1942TIP3   OH227316   1.241   0.622   0.551  0.1172  0.3144  0.4224
 1942TIP3    H127317   1.170   0.573   0.509  2.6857 -2.0627 -1.5905
 1942TIP3    H227318   1.198   0.674   0.618 -3.5757 -0.3600 -1.1611
 1943TIP3   OH227319   3.495   6.683   3.593 -0.3412  0.0240  0.1438
 1943TIP3    H127320   3.410   6.727   3.584 -0.7287 -0.8740 -0.7893
 1943TIP3    H227321   3.499   6.657   3.685 -0.0502  2.0599  0.7463
 1944TIP3   OH227322   6.406   2.570  12.583  0.0755  0.2427 -0.7520
 1944TIP3    H127323   6.442   2.482  12.576 -0.6967 -0.0618 -1.0508
 1944TIP3    H227324   6.482   2.628  12.578  0.7515 -0.4419  1.1194
 1945TIP3   OH227325   2.924   5.724   2.310 -0.3612 -0.0917 -0.3011
 1945TIP3    H127326   2.893   5.756   2.225 -0.4523  1.3140  0.2439
 1945TIP3    H227327   2.872   5.771   2.374  1.8683  1.2839  0.6238
 1946TIP3   OH227328   2.019   5.275  15.532  0.0065  0.2986  0.1268
 1946TIP3    H127329   2.028   5.212  15.460  0.6683  0.8953 -0.3316
 1946TIP3    H227330   2.091   5.253  15.592 -0.7908 -0.4609  0.8298
 1947TIP3   OH227331   2.776   6.509   1.805 -0.1127  0.1198 -0.5241
 1947TIP3    H127332   2.783   6.415   1.789  0.9036  0.1100 -0.0856
 1947TIP3    H227333   2.866   6.541   1.800  0.1361  0.4186  3.1165
 1948TIP3   OH227334   4.023   4.245  15.540  0.4105  0.4387 -0.1345
 1948TIP3    H127335   3.984   4.177  15.485  2.0066 -0.1017 -0.6639
 1948TIP3    H227336   4.040   4.201  15.624 -0.8296  0.9030  0.3838
 1949TIP3   OH227337   5.148   1.459  12.798  0.4485  0.0375 -1.1071
 1949TIP3    H127338   5.161   1.550  12.823 -0.1771  0.2847 -1.6491
 1949TIP3    H227339   5.133   1.462  12.704 -0.7757 -0.4850 -0.9517
 1950TIP3   OH227340   4.033   2.952  16.195 -0.1516 -0.2954 -0.3548
 1950TIP3    H127341   4.009   2.991  16.111 -0.3939  0.2193 -0.0551
 1950TIP3    H227342   4.116   2.992  16.218  0.0189 -0.5936 -0.4468
 1951TIP3   OH227343   0.032   0.621  13.414  0.5666  0.3089  0.4025
 1951TIP3    H127344   0.126   0.641  13.414  0.8608 -0.9609  0.0821
 1951TIP3    H227345   0.005   0.635  13.323  0.6613 -0.2677  0.2868
 1952TIP3   OH227346   6.488   3.952  14.295 -0.0424 -0.3602 -0.0932
 1952TIP3    H127347   6.520   3.864  14.275  1.8600  0.3040 -0.1495
 1952TIP3    H227348   6.395   3.940  14.314 -0.3251 -2.0647 -2.1963
 1953TIP3   OH227349   6.216   1.130  17.081  0.1589  0.2339 -0.4860
 1953TIP3    H127350   6.141   1.189  17.076  0.2042  0.4785  1.3066
 1953TIP3    H227351   6.260   1.141  16.997 -1.4457  0.5469 -1.3377
 1954TIP3   OH227352   6.160   3.597   5.443 -0.0178 -0.1411 -0.4159
 1954TIP3    H127353   6.225   3.643   5.389  1.0931 -0.3791  0.6780
 1954TIP3    H227354   6.150   3.512   5.400  1.9423 -0.8888  0.4953
 1955TIP3   OH227355   3.581   5.923  17.077 -0.2390  0.4558 -0.2657
 1955TIP3    H127356   3.658   5.871  17.055  0.6202  1.7699 -0.5046
 1955TIP3    H227357   3.512   5.890  17.019  0.2163 -0.5408 -0.2531
 1956TIP3   OH227358   6.095   1.335   1.785 -0.2619  0.3681  0.3401
 1956TIP3    H127359   6.180   1.310   1.749  0.0832  2.6261 -0.6232
 1956TIP3    H227360   6.092   1.294   1.872  1.2285 -0.7975 -0.1264
 1957TIP3   OH227361   5.029   5.009  12.949  0.4336 -0.0670 -0.3415
 1957TIP3    H127362   5.116   5.032  12.917  0.3341 -0.8924 -1.2376
 1957TIP3    H227363   5.015   4.919  12.921 -1.3559  0.5540 -1.6450
 1958TIP3   OH227364   3.926   2.018  11.771 -0.0904  0.0671  0.0719
 1958TIP3    H127365   3.892   2.019  11.860  0.9979  3.2201  0.5781
 1958TIP3    H227366   3.858   2.059  11.718  0.2958  0.5758 -0.0459
 1959TIP3   OH227367   6.763   4.796  16.648 -0.3102  0.9976  1.3208
 1959TIP3    H127368   6.845   4.799  16.599 -1.2601  0.9184 -0.3562
 1959TIP3    H227369   6.762   4.709  16.688 -1.2700 -0.5886 -1.8403
 1960TIP3   OH227370   5.764   6.110   1.398  0.0070 -0.4109  0.4601
 1960TIP3    H127371   5.790   6.191   1.356  1.1522 -0.6986  0.5764
 1960TIP3    H227372   5.843   6.079   1.443 -1.0613 -0.2684  2.5838
 1961TIP3   OH227373   3.619   3.333   4.761  0.0444 -0.5522 -0.5139
 1961TIP3    H127374   3.681   3.265   4.786 -0.8952 -1.3126 -0.2085
 1961TIP3    H227375   3.661   3.378   4.688  0.2610 -2.1210 -1.4135
 1962TIP3   OH227376   3.478   2.075   4.895  0.2913 -0.2423 -0.6453
 1962TIP3    H127377   3.460   2.142   4.961 -0.0142  0.5378 -1.5095
 1962TIP3    H227378   3.395   2.065   4.847  0.2102 -1.5289 -0.2806
 1963TIP3   OH227379   3.727   5.588  12.887 -0.7408 -0.1693 -0.2289
 1963TIP3    H127380   3.688   5.647  12.822 -1.9552  0.7233  1.2527
 1963TIP3    H227381   3.757   5.513  12.836 -3.3329 -0.3635 -1.6203
 1964TIP3   OH227382   3.269   0.031  11.489  0.1606 -0.0072  0.4791
 1964TIP3    H127383   3.303   0.096  11.551  1.0087  1.0238 -1.0006
 1964TIP3    H227384   3.174   0.046  11.488  0.5317  2.8518 -1.5237
 1965TIP3   OH227385   5.812   1.998   4.100  0.0418 -0.3858  0.3147
 1965TIP3    H127386   5.743   2.052   4.140  1.0100  0.5437  0.7865
 1965TIP3    H227387   5.844   2.052   4.028  0.7258 -0.5277  0.5126
 1966TIP3   OH227388   2.461   4.412  16.034  0.0273 -0.1348  0.2608
 1966TIP3    H127389   2.514   4.444  15.961 -0.3366 -0.9386 -0.3787
 1966TIP3    H227390   2.371   4.419  16.004 -0.1447 -0.2202  0.7417
 1967TIP3   OH227391   1.245   3.711  13.606 -0.2247  0.2119 -0.6693
 1967TIP3    H127392   1.196   3.735  13.685  0.6290  1.8167 -0.5768
 1967TIP3    H227393   1.177   3.687  13.543 -0.8905 -2.3655  0.8731
 1968TIP3   OH227394   5.015   1.377  14.000  0.3989 -0.0899 -0.1113
 1968TIP3    H127395   5.023   1.412  13.911  2.9034 -2.4490 -0.9539
 1968TIP3    H227396   4.946   1.311  13.994  0.0339  0.2793 -0.0703
 1969TIP3   OH227397   6.457   5.615  13.469 -0.4963  0.0323  0.5170
 1969TIP3    H127398   6.504   5.536  13.492 -1.5443 -0.1024  2.3707
 1969TIP3    H227399   6.409   5.592  13.389  1.1584 -0.3652 -0.3960
 1970TIP3   OH227400   3.266   2.367  13.612 -1.0253 -0.5646  0.1882
 1970TIP3    H127401   3.264   2.297  13.546 -0.8521  2.4075 -3.2640
 1970TIP3    H227402   3.201   2.430  13.581  2.1671  3.0673  0.2346
 1971TIP3   OH227403   4.165   0.507  14.831 -0.1201  0.0147  0.7610
 1971TIP3    H127404   4.176   0.464  14.747  0.3226  1.6711 -0.0738
 1971TIP3    H227405   4.080   0.478  14.862 -0.3226 -0.5648 -0.2887
 1972TIP3   OH227406   0.452   4.395   1.285  0.2094 -0.1718  0.3418
 1972TIP3    H127407   0.395   4.394   1.361  0.7769  0.3760  0.7889
 1972TIP3    H227408   0.538   4.418   1.320  0.3612  0.6606 -0.5277
 1973TIP3   OH227409   3.453   6.327   2.337  0.0215 -0.3257 -0.2848
 1973TIP3    H127410   3.394   6.268   2.291  1.0976 -2.4527  0.8999
 1973TIP3    H227411   3.497   6.376   2.268  0.5635 -2.3933 -1.5160
 1974TIP3   OH227412   4.215   3.395  15.769 -0.5017  0.3042 -0.3604
 1974TIP3    H127413   4.218   3.299  15.771 -0.9767  0.2864  1.2316
 1974TIP3    H227414   4.143   3.415  15.709  0.9183 -0.2456 -2.3506
 1975TIP3   OH227415   3.513   0.535  14.954 -0.9762 -0.0766  0.3513
 1975TIP3    H127416   3.547   0.622  14.936  0.5299 -0.6168  0.4891
 1975TIP3    H227417   3.523   0.487  14.872 -0.7028 -0.4678  0.6108
 1976TIP3   OH227418   2.793   2.316   5.893  0.9241 -0.0120 -0.2021
 1976TIP3    H127419   2.719   2.360   5.933  0.1708 -1.9620  0.6959
 1976TIP3    H227420   2.848   2.386   5.858  0.6111  1.6999  2.4825
 1977TIP3   OH227421   3.051   1.127   3.098 -0.4414 -0.0900  0.2261
 1977TIP3    H127422   3.093   1.149   3.181  1.5066  2.6031 -1.2964
 1977TIP3    H227423   3.095   1.182   3.034 -1.2677 -2.6668 -2.7967
 1978TIP3   OH227424   0.137   5.552   2.427  0.3541 -0.3300 -0.2022
 1978TIP3    H127425   0.096   5.466   2.443  0.0275  0.2119  2.4438
 1978TIP3    H227426   0.222   5.546   2.471  1.3114  0.0015 -1.9425
 1979TIP3   OH227427   0.716   2.129  13.619 -0.0867 -0.0564  0.2993
 1979TIP3    H127428   0.718   2.045  13.664  1.5815 -0.7173 -0.8823
 1979TIP3    H227429   0.808   2.147  13.599 -0.7239 -0.5076 -3.9799
 1980TIP3   OH227430   5.210   4.922   4.476  0.1676  0.3367 -0.5275
 1980TIP3    H127431   5.123   4.920   4.517  1.1046  1.9797  1.7856
 1980TIP3    H227432   5.252   4.841   4.506 -0.7372 -0.7959 -2.2033
 1981TIP3   OH227433   4.529   6.445  12.050  0.2467 -0.4330  0.3118
 1981TIP3    H127434   4.573   6.373  12.003  0.4641 -0.5567  0.6992
 1981TIP3    H227435   4.473   6.486  11.984  1.4454  0.1540 -0.3729
 1982TIP3   OH227436   5.007   5.939  16.916 -0.3691 -0.0821  0.1521
 1982TIP3    H127437   5.026   5.925  17.009 -0.8946  0.9737  0.4255
 1982TIP3    H227438   5.083   5.987  16.883  0.8302 -2.2821 -0.4911
 1983TIP3   OH227439   2.424   3.525   0.730  0.4622 -0.1310  0.4353
 1983TIP3    H127440   2.370   3.595   0.767 -0.6314 -1.5246  1.5809
 1983TIP3    H227441   2.512   3.564   0.725 -0.4496  1.9512 -0.8365
 1984TIP3   OH227442   3.078   5.482  13.460  0.0506 -0.2646 -0.0865
 1984TIP3    H127443   2.989   5.496  13.492  0.1786 -1.3214  0.7857
 1984TIP3    H227444   3.070   5.409  13.398  0.3435 -0.5029  0.1558
 1985TIP3   OH227445   4.415   6.156   4.762  0.2282 -0.4322 -0.7479
 1985TIP3    H127446   4.383   6.067   4.746  0.2388 -0.6068  0.1406
 1985TIP3    H227447   4.414   6.165   4.857  2.0365 -0.1548 -0.7146
 1986TIP3   OH227448   3.725   3.318  16.696  0.5865  0.2470 -0.1229
 1986TIP3    H127449   3.662   3.257  16.657 -0.6936  0.3983  1.6269
 1986TIP3    H227450   3.742   3.382  16.627 -0.8771 -0.0230 -0.7626
 1987TIP3   OH227451   0.267   1.373  14.696  0.1257 -0.6911 -0.2781
 1987TIP3    H127452   0.229   1.433  14.632  0.1350  0.9711  1.1995
 1987TIP3    H227453   0.206   1.300  14.700 -1.1277  0.3041 -0.4667
 1988TIP3   OH227454   2.548   4.613   1.118 -0.8090  0.4798 -0.2140
 1988TIP3    H127455   2.514   4.600   1.207  0.0830 -1.4666 -0.1128
 1988TIP3    H227456   2.640   4.588   1.123 -0.4082  1.5675 -1.4381
 1989TIP3   OH227457   5.027   3.722   6.603  0.3616 -0.1550  0.0775
 1989TIP3    H127458   5.079   3.802   6.608  0.1940 -0.0639  0.3451
 1989TIP3    H227459   5.049   3.674   6.682  0.3842 -0.3288 -0.0334
 1990TIP3   OH227460   6.095   3.127   1.776  0.3289  0.0077  0.2735
 1990TIP3    H127461   6.023   3.070   1.747  0.4779  0.0210 -0.1231
 1990TIP3    H227462   6.154   3.067   1.822  0.4607 -0.1490 -0.0993
 1991TIP3   OH227463   0.220   5.466  10.613 -0.0434 -0.4673  0.1729
 1991TIP3    H127464   0.157   5.522  10.659 -1.8800 -3.2013  1.2598
 1991TIP3    H227465   0.166   5.414  10.554  1.8843  0.5300 -2.7300
 1992TIP3   OH227466   5.058   5.601   2.179 -0.2142 -0.0662  0.0821
 1992TIP3    H127467   5.083   5.518   2.139 -2.9994 -1.3014  0.6125
 1992TIP3    H227468   5.036   5.578   2.270 -1.1045  1.2156  0.2239
 1993TIP3   OH227469   0.255   5.633   2.801  0.2209  0.6885  0.2160
 1993TIP3    H127470   0.190   5.610   2.867 -2.0070 -0.1625 -2.0940
 1993TIP3    H227471   0.324   5.567   2.812 -1.6764 -1.5350 -0.3134
 1994TIP3   OH227472   4.295   3.242   2.324  0.5715  0.1874 -0.2360
 1994TIP3    H127473   4.374   3.194   2.347  1.3120  0.6808 -1.5805
 1994TIP3    H227474   4.283   3.305   2.395  1.9427  0.7276 -0.4476
 1995TIP3   OH227475   1.898   2.588   1.080  0.5040  0.1462  0.0772
 1995TIP3    H127476   1.889   2.682   1.090  0.3651  0.2260 -0.7037
 1995TIP3    H227477   1.899   2.574   0.985 -0.7784 -0.7606  0.1767
 1996TIP3   OH227478   6.306   5.789  11.741 -0.1136  0.3914  0.6958
 1996TIP3    H127479   6.331   5.879  11.717 -2.5540  0.5412 -1.7600
 1996TIP3    H227480   6.350   5.734  11.676 -0.3900  0.0069  0.8307
 1997TIP3   OH227481   6.544   3.929   2.789 -0.0821  0.2953  0.1362
 1997TIP3    H127482   6.607   3.973   2.847  0.7970 -1.9015  0.9277
 1997TIP3    H227483   6.521   3.996   2.724  1.2685  1.8749  1.2022
 1998TIP3   OH227484   3.990   5.189   0.576 -0.4878  0.7247  0.0560
 1998TIP3    H127485   4.043   5.225   0.504 -0.2966 -1.5192 -1.0388
 1998TIP3    H227486   4.054   5.170   0.645  0.1340 -1.3334 -0.9975
 1999TIP3   OH227487   4.838   3.537   2.740  0.1594  0.0885 -0.7610
 1999TIP3    H127488   4.752   3.565   2.709  0.0726  0.6867 -0.0124
 1999TIP3    H227489   4.819   3.468   2.804  0.2009  0.5059 -0.2878
 2000TIP3   OH227490   4.692   6.672   5.870 -0.0820  0.7271 -0.0686
 2000TIP3    H127491   4.703   6.767   5.871  0.4389  0.6780 -0.8749
 2000TIP3    H227492   4.623   6.656   5.806  1.0331  0.4500 -1.2209
 2001TIP3   OH227493   4.232   1.040  16.183 -0.2565 -0.0929  0.2501
 2001TIP3    H127494   4.168   1.095  16.229 -0.2739  0.2890 -0.2284
 2001TIP3    H227495   4.235   1.075  16.094  2.1826  1.2675  0.7918
 2002TIP3   OH227496   3.242   5.963  14.819 -0.0613 -0.3557  0.6465
 2002TIP3    H127497   3.233   5.938  14.911 -0.4212  0.0207  0.7182
 2002TIP3    H227498   3.250   6.059  14.821  0.0263 -0.3551  0.2939
 2003TIP3   OH227499   3.596   6.019  12.785 -0.0432  0.2592 -0.1855
 2003TIP3    H127500   3.607   6.107  12.749 -1.3603  1.0837  1.2733
 2003TIP3    H227501   3.613   5.960  12.712 -0.0740  1.7565 -1.4466
 2004TIP3   OH227502   2.951   5.396  14.176 -0.3550  0.4084 -0.6500
 2004TIP3    H127503   2.887   5.369  14.111 -0.0516  1.7247 -1.5213
 2004TIP3    H227504   3.007   5.459  14.131  0.6792  0.3713  0.5060
 2005TIP3   OH227505   0.909   1.432  17.184 -0.1824  0.8821 -0.1940
 2005TIP3    H127506   0.944   1.477  17.107  0.1477  2.9431  1.0947
 2005TIP3    H227507   0.986   1.415  17.238  0.0984 -3.4512 -1.5556
 2006TIP3   OH227508   1.842   3.422   2.990  0.5657  0.9249 -0.0368
 2006TIP3    H127509   1.786   3.405   3.067 -0.1031  2.6694 -0.0885
 2006TIP3    H227510   1.906   3.351   2.991  0.4871  0.8186  2.0619
 2007TIP3   OH227511   1.500   4.626   1.581  0.6241  0.0665  0.1289
 2007TIP3    H127512   1.450   4.663   1.654  1.3294  1.1487  0.0800
 2007TIP3    H227513   1.545   4.701   1.542  0.5586 -0.5554 -1.1921
 2008TIP3   OH227514   1.746   4.765  10.253  0.5367 -0.1856 -0.2463
 2008TIP3    H127515   1.786   4.847  10.224 -0.6865 -0.3417 -2.6738
 2008TIP3    H227516   1.728   4.717  10.172 -1.4432 -1.5733  0.9113
 2009TIP3   OH227517   4.439   1.009  15.119  0.6889  0.9294 -0.8886
 2009TIP3    H127518   4.483   0.929  15.148 -1.9688 -0.5335 -0.5529
 2009TIP3    H227519   4.412   1.053  15.200 -1.5264 -0.0786 -1.0175
 2010TIP3   OH227520   0.114   2.907  14.763  0.2944 -0.0954  0.1805
 2010TIP3    H127521   0.045   2.854  14.803 -2.6860  2.3433 -1.3308
 2010TIP3    H227522   0.137   2.860  14.682 -2.9047  1.0365 -1.5769
 2011TIP3   OH227523   4.394   3.569  16.483 -0.1721  0.1428  0.5586
 2011TIP3    H127524   4.455   3.538  16.415 -2.1608  0.4251 -1.4619
 2011TIP3    H227525   4.372   3.490  16.532  0.3509 -0.3136  0.0773
 2012TIP3   OH227526   5.935   5.514   0.093  0.3883  0.0469 -0.7199
 2012TIP3    H127527   5.891   5.573   0.154 -0.6724 -1.8362  0.4191
 2012TIP3    H227528   6.018   5.493   0.136  0.2797 -0.1423 -0.6010
 2013TIP3   OH227529   4.315   0.692  14.058  0.1429 -0.2010  0.2176
 2013TIP3    H127530   4.302   0.649  13.974 -2.0998 -0.1957  0.5085
 2013TIP3    H227531   4.277   0.632  14.122 -1.6816  1.4502  0.7877
 2014TIP3   OH227532   6.729   2.466  11.602 -0.1853 -0.0071 -0.3191
 2014TIP3    H127533   6.721   2.554  11.565 -1.0073 -0.1306 -0.4547
 2014TIP3    H227534   6.701   2.408  11.531 -0.9846 -0.2917  0.2210
 2015TIP3   OH227535   1.000   5.206   3.566 -0.3022  0.4530  0.0685
 2015TIP3    H127536   0.995   5.280   3.626  0.5780  1.1643 -0.7000
 2015TIP3    H227537   1.093   5.201   3.541 -0.4519 -0.5303 -0.3570
 2016TIP3   OH227538   1.127   3.807  13.877 -0.0354 -0.0567  0.1098
 2016TIP3    H127539   1.154   3.734  13.931 -0.1392  1.3956  2.2550
 2016TIP3    H227540   1.207   3.857  13.860 -0.2813  0.4820  0.4998
 2017TIP3   OH227541   5.915   0.540   0.242  0.2500 -0.3227  0.1622
 2017TIP3    H127542   5.999   0.559   0.201 -0.2360 -0.1859 -0.7932
 2017TIP3    H227543   5.877   0.626   0.260  1.0508 -0.3491  2.2018
 2018TIP3   OH227544   0.677   3.527   4.842 -0.8876  0.2594 -0.6643
 2018TIP3    H127545   0.670   3.453   4.903 -1.4778  0.6584 -0.2398
 2018TIP3    H227546   0.596   3.524   4.792 -1.6195  1.5119  0.3872
 2019TIP3   OH227547   5.118   0.638  11.065  0.6669  0.6760 -0.0673
 2019TIP3    H127548   5.083   0.643  10.976 -2.9896  0.5346  1.2030
 2019TIP3    H227549   5.159   0.552  11.069 -0.4360  0.0551 -1.2271
 2020TIP3   OH227550   5.897   5.627  12.402 -0.4147  0.6231  0.3224
 2020TIP3    H127551   5.966   5.610  12.467 -2.3729  3.1583  3.3873
 2020TIP3    H227552   5.927   5.703  12.353 -0.2274  0.5679  0.3522
 2021TIP3   OH227553   3.893   6.286  14.934  0.3680 -0.7482 -0.0013
 2021TIP3    H127554   3.972   6.234  14.920 -1.1514 -3.5577  0.8877
 2021TIP3    H227555   3.884   6.339  14.855  2.4036 -1.3332 -0.6957
 2022TIP3   OH227556   2.093   4.779  12.157 -0.4617  0.2528 -0.0243
 2022TIP3    H127557   2.010   4.768  12.112 -0.7906  1.7615  0.1814
 2022TIP3    H227558   2.159   4.754  12.092 -1.0721 -2.4625  0.2874
 2023TIP3   OH227559   5.060   5.789   1.924 -0.4069  0.1556  0.5066
 2023TIP3    H127560   5.153   5.770   1.935 -0.1226  1.3713  0.3493
 2023TIP3    H227561   5.024   5.788   2.013  0.1958  1.7732  0.7870
 2024TIP3   OH227562   6.387   0.243  12.716  0.6821  0.0459 -0.4461
 2024TIP3    H127563   6.427   0.322  12.679 -1.0158  0.7007 -0.9771
 2024TIP3    H227564   6.361   0.269  12.805 -0.3816  0.2722 -0.8179
 2025TIP3   OH227565   2.014   6.308   3.064  0.4993  0.2619  0.0400
 2025TIP3    H127566   2.050   6.222   3.086  0.5480  0.1693 -0.3940
 2025TIP3    H227567   2.075   6.370   3.105  0.9446  0.0995 -0.3631
 2026TIP3   OH227568   6.592   4.378  14.243  0.0849 -0.2376  0.5023
 2026TIP3    H127569   6.662   4.318  14.269  2.3695  2.0874  0.1473
 2026TIP3    H227570   6.571   4.353  14.153  0.3199 -1.0848  0.6730
 2027TIP3   OH227571   5.837   0.055   1.242  0.1902 -0.6444 -0.6998
 2027TIP3    H127572   5.912   0.089   1.291  0.0183  2.0715 -2.1282
 2027TIP3    H227573   5.863  -0.034   1.218  2.8983  0.1153 -0.9371
 2028TIP3   OH227574   6.378   3.552  13.112  0.0348 -0.5455 -0.3467
 2028TIP3    H127575   6.383   3.504  13.194  0.2571  0.1837  0.0774
 2028TIP3    H227576   6.288   3.581  13.106  0.0466 -0.4983 -0.2998
 2029TIP3   OH227577   1.783   2.089   3.322  0.5918  0.4556 -0.8176
 2029TIP3    H127578   1.845   2.123   3.387 -0.3579 -0.8130  0.8427
 2029TIP3    H227579   1.767   1.999   3.350 -2.6517  0.9769 -0.6523
 2030TIP3   OH227580   1.938   3.894   4.625  0.0467 -0.0595 -0.2050
 2030TIP3    H127581   1.917   3.841   4.701  1.2904 -0.5000 -0.1436
 2030TIP3    H227582   2.029   3.920   4.638 -0.2047  1.1690 -0.7783
 2031TIP3   OH227583   6.219   3.980  14.619  0.0986  0.0630  0.8010
 2031TIP3    H127584   6.237   4.072  14.642  0.5607 -0.3929  2.4045
 2031TIP3    H227585   6.250   3.972  14.529 -2.0538  2.0418 -0.2211
 2032TIP3   OH227586   0.107   1.983  12.234 -0.0728 -0.0717  0.0832
 2032TIP3    H127587   0.064   1.909  12.191 -1.7238  0.8365  0.1025
 2032TIP3    H227588   0.053   2.000  12.311  0.8707  0.5220  0.6235
 2033TIP3   OH227589   0.819   5.578  14.880 -0.2762  0.1624 -0.0238
 2033TIP3    H127590   0.774   5.516  14.823  1.5781 -0.4863 -0.8344
 2033TIP3    H227591   0.749   5.618  14.932 -1.9413  0.1953 -2.1709
 2034TIP3   OH227592   1.773   0.156   3.787 -0.1084  0.4835  0.5867
 2034TIP3    H127593   1.847   0.097   3.801 -1.6307 -1.2398  1.8206
 2034TIP3    H227594   1.763   0.160   3.692  0.2008 -1.0708  0.4611
 2035TIP3   OH227595   5.672   4.972  10.955 -0.1976  0.4766  0.0545
 2035TIP3    H127596   5.622   4.903  10.913  1.2832  0.1654 -1.2895
 2035TIP3    H227597   5.636   5.053  10.920 -0.9699  0.3547  0.5315
 2036TIP3   OH227598   5.372   6.216   3.937 -0.4034 -0.2255  0.2525
 2036TIP3    H127599   5.380   6.129   3.897  1.1535 -0.6836  1.4369
 2036TIP3    H227600   5.447   6.265   3.903  0.4704 -0.3582  1.8709
 2037TIP3   OH227601   1.859   2.851  15.150 -0.0575 -0.0467  0.3345
 2037TIP3    H127602   1.774   2.884  15.122  0.1861  1.5673  1.3712
 2037TIP3    H227603   1.840   2.796  15.226 -0.1847  0.3460  0.5897
 2038TIP3   OH227604   6.051   4.592  14.090 -0.3889 -0.1901  1.2488
 2038TIP3    H127605   6.071   4.602  13.997 -1.3935  2.2268  1.2151
 2038TIP3    H227606   6.022   4.501  14.099  1.4688 -1.0127 -0.4116
 2039TIP3   OH227607   3.508   4.997  11.752 -0.3999  0.3336 -0.4457
 2039TIP3    H127608   3.592   5.037  11.731 -0.0113 -0.4009 -0.3412
 2039TIP3    H227609   3.445   5.069  11.748  0.3057  0.9832 -0.0550
 2040TIP3   OH227610   2.989   4.436  14.411 -0.1544  0.4044  0.2177
 2040TIP3    H127611   2.907   4.482  14.429 -0.8634 -0.6645 -0.1596
 2040TIP3    H227612   2.965   4.369  14.347  0.5215 -1.4217  1.7941
 2041TIP3   OH227613   3.750   6.437  15.608  0.2872  0.2171 -0.3981
 2041TIP3    H127614   3.838   6.409  15.585  1.1477 -0.7931  3.4024
 2041TIP3    H227615   3.717   6.368  15.665 -1.4270  2.3065  1.3270
 2042TIP3   OH227616   3.956   4.503  13.277 -0.2790 -0.1609 -0.6657
 2042TIP3    H127617   3.937   4.422  13.230 -1.3513 -0.7552  0.7211
 2042TIP3    H227618   3.897   4.568  13.239 -2.6793 -1.1391  1.1917
 2043TIP3   OH227619   2.047   6.205   6.372 -0.8063  0.2477  0.6847
 2043TIP3    H127620   2.061   6.237   6.461 -1.1616  0.1079  0.7944
 2043TIP3    H227621   2.015   6.115   6.384  1.7862 -0.8331  0.3699
 2044TIP3   OH227622   0.848   1.892   5.620 -0.6805 -0.2920  0.4454
 2044TIP3    H127623   0.926   1.881   5.674 -1.0301 -1.6927  0.7126
 2044TIP3    H227624   0.776   1.897   5.683 -0.9553 -0.5738  0.1583
 2045TIP3   OH227625   1.314   4.351  13.011  0.6454  0.0730 -0.4815
 2045TIP3    H127626   1.311   4.344  13.107 -0.1066 -1.0489 -0.5694
 2045TIP3    H227627   1.296   4.443  12.994 -1.9418 -0.1913  0.3930
 2046TIP3   OH227628   0.191   1.271  11.717 -0.0578 -0.0546  0.4840
 2046TIP3    H127629   0.241   1.192  11.739  1.5766  0.7915 -0.0201
 2046TIP3    H227630   0.225   1.296  11.631 -0.8349  0.9740  0.4715
 2047TIP3   OH227631   5.764   3.800   4.127 -0.0792  0.0678 -0.7421
 2047TIP3    H127632   5.714   3.881   4.128 -0.1969 -0.0068 -0.1209
 2047TIP3    H227633   5.854   3.828   4.110 -0.2072  0.2764 -1.0740
 2048TIP3   OH227634   1.761   3.974   2.503 -0.3123 -0.6696 -0.2989
 2048TIP3    H127635   1.705   4.016   2.568  0.4740  0.4457 -0.3166
 2048TIP3    H227636   1.731   3.883   2.501 -2.0377 -0.1411 -0.2291
 2049TIP3   OH227637   1.563   3.432  13.917  0.0199  0.1019 -0.0249
 2049TIP3    H127638   1.610   3.358  13.880  2.0066  1.9223 -1.3431
 2049TIP3    H227639   1.494   3.452  13.853 -0.8396 -0.8613  0.5733
 2050TIP3   OH227640   4.100   2.778   4.404 -0.0401  0.1737 -0.0298
 2050TIP3    H127641   4.087   2.788   4.310  1.1050  0.6456 -0.1512
 2050TIP3    H227642   4.194   2.763   4.414 -0.5643 -3.6833  0.7487
 2051TIP3   OH227643   0.710   1.019  15.658 -0.0478  1.0528  0.4922
 2051TIP3    H127644   0.666   1.048  15.738  3.8192 -1.4725  4.0218
 2051TIP3    H227645   0.781   1.083  15.646  1.9759 -0.7582  1.8935
 2052TIP3   OH227646   1.803   3.337   5.973 -0.1777  0.0324  0.4642
 2052TIP3    H127647   1.840   3.352   5.887 -0.3311  0.4405  0.4703
 2052TIP3    H227648   1.724   3.390   5.976 -0.9510 -1.0847  0.3302
 2053TIP3   OH227649   3.823   0.040   4.846 -0.0208 -0.1900 -0.0920
 2053TIP3    H127650   3.919   0.045   4.846 -0.0420  0.2658 -0.9440
 2053TIP3    H227651   3.804  -0.039   4.897  0.8243 -0.6197 -0.4168
 2054TIP3   OH227652   0.858   4.424  15.866 -0.6094  0.2319 -0.0470
 2054TIP3    H127653   0.842   4.476  15.787  0.7360 -0.8475 -1.0869
 2054TIP3    H227654   0.889   4.339  15.833 -2.6666 -1.2599  1.5850
 2055TIP3   OH227655   1.670   6.266   2.096  0.0813 -0.7419  0.1438
 2055TIP3    H127656   1.734   6.321   2.142  0.7777  0.4474 -2.0748
 2055TIP3    H227657   1.724   6.197   2.055  0.2005  0.7891 -2.5001
 2056TIP3   OH227658   0.572   1.869   2.118 -0.1634  0.0890  0.2510
 2056TIP3    H127659   0.637   1.802   2.138 -0.3133  0.6756  3.1291
 2056TIP3    H227660   0.623   1.948   2.101 -0.0663 -0.1071 -0.3936
 2057TIP3   OH227661   6.058   4.430  15.755  0.3766  0.1798  0.3836
 2057TIP3    H127662   6.067   4.494  15.826  1.5229  0.6778 -0.1781
 2057TIP3    H227663   6.016   4.479  15.684  0.0026 -0.0821  0.4241
 2058TIP3   OH227664   4.481   6.679   0.734  0.2059  0.6735 -0.0377
 2058TIP3    H127665   4.576   6.685   0.745  0.1528  0.5524  0.4971
 2058TIP3    H227666   4.466   6.704   0.643  0.7047  1.1992  0.0209
 2059TIP3   OH227667   3.977   4.934   5.599 -0.0783  0.0536  0.5374
 2059TIP3    H127668   3.909   4.873   5.629 -0.4468 -0.0339 -0.4411
 2059TIP3    H227669   4.033   4.947   5.676  0.3169 -1.9357  0.6493
 2060TIP3   OH227670   1.167   0.014  15.014 -0.1211  0.1495 -0.0967
 2060TIP3    H127671   1.146   0.074  14.942 -0.4759  0.2355  0.0753
 2060TIP3    H227672   1.231  -0.047  14.977 -0.3114  0.1861 -0.4917
 2061TIP3   OH227673   5.667   5.983  12.021  0.8903  0.1064 -0.0268
 2061TIP3    H127674   5.713   6.040  12.083  0.2135 -0.5919  1.1474
 2061TIP3    H227675   5.737   5.934  11.977  1.4971  1.9054 -1.1747
 2062TIP3   OH227676   1.870   4.285   2.965 -0.0724 -0.7169  0.2927
 2062TIP3    H127677   1.917   4.368   2.958  1.4945 -1.3499  2.4044
 2062TIP3    H227678   1.797   4.303   3.024 -0.4347 -0.5730 -0.1938
 2063TIP3   OH227679   2.542   4.244  10.804 -0.4378 -0.0240  0.5807
 2063TIP3    H127680   2.522   4.278  10.717 -1.4108  1.4067  1.3200
 2063TIP3    H227681   2.633   4.268  10.819 -0.8066  1.3874  0.6691
 2064TIP3   OH227682   1.491   6.242   5.650  0.1112 -0.4040  0.8628
 2064TIP3    H127683   1.575   6.231   5.604  0.6604  0.9680  1.4839
 2064TIP3    H227684   1.488   6.168   5.712  1.4405  0.1762  1.6643
 2065TIP3   OH227685   4.560   3.328  16.556 -0.3144 -0.4220  0.0577
 2065TIP3    H127686   4.534   3.307  16.466  0.9225 -0.2750 -0.3494
 2065TIP3    H227687   4.581   3.243  16.596 -1.4198 -0.5452  0.3994
 2066TIP3   OH227688   5.915   1.309   0.591  0.2994 -0.4507 -0.6372
 2066TIP3    H127689   5.839   1.353   0.552  0.9647 -0.1380 -1.6196
 2066TIP3    H227690   5.937   1.240   0.528  0.9736 -0.3827 -0.4827
 2067TIP3   OH227691   5.290   0.629  14.585  0.1853  0.0302 -0.2104
 2067TIP3    H127692   5.323   0.598  14.669  0.1116 -0.1302 -0.2411
 2067TIP3    H227693   5.249   0.552  14.545 -3.3595  0.9266  1.3161
 2068TIP3   OH227694   4.096   3.274  11.630 -0.3647  0.1744  0.4676
 2068TIP3    H127695   4.101   3.195  11.576 -0.4502 -1.1357  2.2947
 2068TIP3    H227696   4.007   3.307  11.616  0.2621  1.0952 -1.7639
 2069TIP3   OH227697   3.620   2.914   2.342  0.8187 -0.3293  0.2473
 2069TIP3    H127698   3.672   2.934   2.263  2.1274 -0.8238  0.9493
 2069TIP3    H227699   3.554   2.851   2.312  0.3892  0.5519 -0.7375
 2070TIP3   OH227700   4.245   0.878  15.802 -0.0277  0.0635 -0.2103
 2070TIP3    H127701   4.155   0.895  15.831  1.4450  2.5275  3.6315
 2070TIP3    H227702   4.290   0.962  15.813  2.9203 -1.2347 -1.4468
 2071TIP3   OH227703   1.976   6.332  11.766 -0.7197 -0.2480  0.2464
 2071TIP3    H127704   1.935   6.415  11.791 -2.5200 -0.6032 -1.3074
 2071TIP3    H227705   2.052   6.359  11.714 -1.5227  0.4610 -0.5929
 2072TIP3   OH227706   4.158   2.115   3.619  0.2034  0.0341 -0.1700
 2072TIP3    H127707   4.134   2.035   3.571 -0.0160 -0.0795  0.1251
 2072TIP3    H227708   4.114   2.185   3.571  1.1391  0.0929 -0.9765
 2073TIP3   OH227709   4.316   2.408   7.102 -0.0471 -0.3351 -0.1654
 2073TIP3    H127710   4.257   2.449   7.039 -1.4858 -1.1202  0.6222
 2073TIP3    H227711   4.389   2.376   7.049 -0.9848 -0.5514 -1.3661
 2074TIP3   OH227712   6.757   3.942  16.121  0.9525  0.1585  0.0474
 2074TIP3    H127713   6.712   3.980  16.046  1.2167  0.6639  0.1376
 2074TIP3    H227714   6.816   4.012  16.151  2.2616 -0.7070 -0.4613
 2075TIP3   OH227715   3.356   3.100  13.936 -0.2312  0.2699  0.0968
 2075TIP3    H127716   3.408   3.024  13.963 -1.8639 -0.3787  1.6237
 2075TIP3    H227717   3.406   3.175  13.969  1.1039 -0.1321 -0.9098
 2076TIP3   OH227718   2.427   6.423  17.079 -0.0000  0.1841  0.1024
 2076TIP3    H127719   2.413   6.404  17.171 -1.5747  0.9119  0.0455
 2076TIP3    H227720   2.510   6.471  17.076 -1.0971  2.3305  1.4887
 2077TIP3   OH227721   6.238   3.340   4.917 -0.4421  0.2612 -0.1895
 2077TIP3    H127722   6.305   3.282   4.953 -0.9844  0.7850  1.7734
 2077TIP3    H227723   6.265   3.355   4.827  0.6759 -1.5879 -0.2093
 2078TIP3   OH227724   6.733   3.590   0.613 -0.1799 -0.1210  0.2499
 2078TIP3    H127725   6.719   3.662   0.673 -0.3188  0.7575 -0.8044
 2078TIP3    H227726   6.723   3.629   0.526  0.9925 -1.1403 -0.3708
 2079TIP3   OH227727   5.005   3.941  10.771  0.1286  0.2917  0.5896
 2079TIP3    H127728   4.996   3.984  10.686 -1.6733 -0.8075  0.1776
 2079TIP3    H227729   5.083   3.886  10.762  0.1384  0.4340 -0.2452
 2080TIP3   OH227730   1.234   5.520   4.470  0.0868  0.1256 -0.2835
 2080TIP3    H127731   1.264   5.429   4.473  1.2976  0.4864 -0.9418
 2080TIP3    H227732   1.167   5.521   4.402 -1.4162 -0.6557  1.1023
 2081TIP3   OH227733   2.878   4.377  14.170 -0.4271  0.0672  0.3237
 2081TIP3    H127734   2.894   4.449  14.110 -1.9703  0.4421  0.3342
 2081TIP3    H227735   2.785   4.382  14.190 -0.1992 -0.8482  1.7312
 2082TIP3   OH227736   1.644   3.697   6.160  0.1517 -0.0577  0.2625
 2082TIP3    H127737   1.594   3.625   6.199  2.3233 -0.7633  1.9288
 2082TIP3    H227738   1.715   3.714   6.222  0.2185  2.9942 -0.4840
 2083TIP3   OH227739   4.349   3.113   2.623 -0.4549  0.0586 -0.7880
 2083TIP3    H127740   4.384   3.162   2.698 -2.9368  1.6152 -0.5396
 2083TIP3    H227741   4.424   3.064   2.590  1.1322  0.6090  1.6822
 2084TIP3   OH227742   0.852   3.322  12.436  0.1446 -0.2010 -0.5052
 2084TIP3    H127743   0.914   3.337  12.508  0.2635 -1.6358 -0.2813
 2084TIP3    H227744   0.772   3.367  12.463  0.7331  0.7613 -0.3009
 2085TIP3   OH227745   0.147   4.218   2.992 -0.1719 -1.0127 -0.4771
 2085TIP3    H127746   0.126   4.169   3.072 -1.1335 -2.1590 -1.3963
 2085TIP3    H227747   0.118   4.307   3.010  1.2962 -0.7974  1.1056
 2086TIP3   OH227748   5.258   6.393  11.185  0.2028  0.4570 -0.3142
 2086TIP3    H127749   5.332   6.423  11.238  0.1835  0.6497 -0.3953
 2086TIP3    H227750   5.254   6.454  11.112 -0.6654  1.0724  0.2246
 2087TIP3   OH227751   2.431   3.290  13.020  0.6506  0.0886 -0.5294
 2087TIP3    H127752   2.486   3.366  13.038  1.7431 -1.2539  2.6458
 2087TIP3    H227753   2.490   3.215  13.029 -1.2553 -1.3404  1.5106
 2088TIP3   OH227754   1.048   5.067   4.261 -0.0203 -0.2841  0.1893
 2088TIP3    H127755   1.132   5.068   4.306  0.5814 -0.8080 -0.8923
 2088TIP3    H227756   1.015   4.978   4.273 -0.6635  0.0490  1.0136
 2089TIP3   OH227757   2.463   2.021  16.964  0.7033 -0.4299 -0.1542
 2089TIP3    H127758   2.389   1.988  17.014 -0.6221  0.5626 -1.3971
 2089TIP3    H227759   2.539   1.999  17.018 -0.5003 -1.1146  1.3536
 2090TIP3   OH227760   5.451   2.778   0.593  0.2721 -0.1821 -1.1878
 2090TIP3    H127761   5.377   2.792   0.652  1.0551  1.2130 -0.4726
 2090TIP3    H227762   5.471   2.685   0.602 -1.2237 -0.5340 -1.2127
 2091TIP3   OH227763   0.144   5.078  16.395 -0.8248 -0.2107 -0.4509
 2091TIP3    H127764   0.088   5.054  16.468 -0.1839  2.1390  0.9281
 2091TIP3    H227765   0.090   5.135  16.340 -0.1200  1.2980  0.3813
 2092TIP3   OH227766   1.381   4.788   0.120 -0.1454  0.3665 -0.4207
 2092TIP3    H127767   1.451   4.853   0.112 -0.2966  0.7837  1.1745
 2092TIP3    H227768   1.413   4.712   0.071 -0.0627  1.6835 -2.5086
 2093TIP3   OH227769   2.917   0.777   0.216 -0.4118 -0.8329 -0.4977
 2093TIP3    H127770   2.852   0.842   0.241  0.3735  0.0336 -0.6706
 2093TIP3    H227771   2.879   0.733   0.139 -0.3419  0.3643 -1.2331
 2094TIP3   OH227772   5.531   4.316   0.453 -0.1792  0.0978  0.0842
 2094TIP3    H127773   5.573   4.238   0.416  3.0794  1.9850 -0.6755
 2094TIP3    H227774   5.448   4.285   0.488 -0.2087 -3.1864 -2.4390
 2095TIP3   OH227775   1.192   4.206  11.246 -0.1317 -0.2112  0.2445
 2095TIP3    H127776   1.202   4.116  11.276 -0.3406 -0.4981 -0.5339
 2095TIP3    H227777   1.097   4.216  11.232  0.1587 -1.0857 -3.2821
 2096TIP3   OH227778   5.574   0.145   3.562 -0.3422  0.2463 -0.3392
 2096TIP3    H127779   5.557   0.109   3.475 -0.9419  0.1638 -0.1917
 2096TIP3    H227780   5.563   0.071   3.622  3.5569 -0.6329 -0.4313
 2097TIP3   OH227781   5.022   2.694   2.568  0.0210  0.6585  0.4697
 2097TIP3    H127782   5.011   2.712   2.662 -1.7415 -0.5041  0.5242
 2097TIP3    H227783   5.102   2.641   2.563 -1.2275 -1.4856  1.6765
 2098TIP3   OH227784   4.268   2.852  14.739 -0.1814 -0.3210  0.1685
 2098TIP3    H127785   4.361   2.832  14.725  0.2961  1.7968  0.0499
 2098TIP3    H227786   4.231   2.859  14.651 -0.9520 -3.0034  0.1922
 2099TIP3   OH227787   0.209   0.303   3.131 -0.3734  0.2679  0.4145
 2099TIP3    H127788   0.244   0.228   3.180 -0.6620  0.7084  1.3155
 2099TIP3    H227789   0.286   0.359   3.117 -0.3272  0.2483  0.5770
 2100TIP3   OH227790   0.334   1.613  16.072  0.1906  0.1108 -0.4526
 2100TIP3    H127791   0.263   1.648  16.020 -0.4983 -0.0445  0.3577
 2100TIP3    H227792   0.314   1.519  16.081  0.9670 -0.1119 -0.9581
 2101TIP3   OH227793   3.317   3.020   3.381  0.2678 -0.6310 -0.2119
 2101TIP3    H127794   3.401   3.063   3.362 -0.6270  1.0423 -0.6320
 2101TIP3    H227795   3.257   3.093   3.399 -0.6183 -1.8340  2.2171
 2102TIP3   OH227796   1.035   5.378   2.262 -0.7151  0.0621  0.4498
 2102TIP3    H127797   1.079   5.454   2.225 -0.8612 -0.1782 -0.2346
 2102TIP3    H227798   0.954   5.413   2.299 -0.1511  0.4441  1.3756
 2103TIP3   OH227799   5.517   1.363   4.384 -0.1430 -0.0970 -0.1175
 2103TIP3    H127800   5.449   1.395   4.443 -1.0569 -0.4320 -0.9500
 2103TIP3    H227801   5.532   1.273   4.413  0.2786  0.1177  0.3474
 2104TIP3   OH227802   5.564   0.005  13.745  1.6860  0.3737 -0.1654
 2104TIP3    H127803   5.512   0.061  13.688  2.5974 -0.0745 -1.4689
 2104TIP3    H227804   5.500  -0.043  13.797  0.7936  0.1610 -1.4236
 2105TIP3   OH227805   4.604   5.079   0.995  0.2325 -0.0208 -0.2631
 2105TIP3    H127806   4.560   5.005   0.953 -1.9298  0.4604  1.0003
 2105TIP3    H227807   4.579   5.155   0.942 -1.4384  0.4046  1.0502
 2106TIP3   OH227808   4.139   1.648   3.793 -0.3952  0.7343 -0.1918
 2106TIP3    H127809   4.076   1.598   3.845  1.3623 -0.7299  0.6118
 2106TIP3    H227810   4.088   1.678   3.717 -1.7444 -1.5700 -0.3020
 2107TIP3   OH227811   0.117   5.457   3.678 -0.0648 -0.6791  0.9622
 2107TIP3    H127812   0.172   5.532   3.700 -0.7267  0.1944 -0.2104
 2107TIP3    H227813   0.171   5.404   3.619 -0.7964  0.7807 -1.1486
 2108TIP3   OH227814   0.555   3.455  15.460 -0.6842 -0.5376 -0.0822
 2108TIP3    H127815   0.489   3.387  15.449 -1.6542  0.1541  1.2657
 2108TIP3    H227816   0.568   3.490  15.371 -1.7923 -0.9910 -0.4398
 2109TIP3   OH227817   3.738   4.209  14.265  0.0992 -0.4617 -0.1712
 2109TIP3    H127818   3.738   4.227  14.359  1.0269  0.8350 -0.4002
 2109TIP3    H227819   3.658   4.251  14.232 -0.4408 -1.2658  0.0824
 2110TIP3   OH227820   0.669   4.321  14.665 -0.2520 -0.7964  0.1005
 2110TIP3    H127821   0.631   4.377  14.732  0.1859  0.1915 -0.4429
 2110TIP3    H227822   0.730   4.379  14.618  1.4421 -2.1345  0.5356
 2111TIP3   OH227823   4.354   5.201  10.502 -0.4177  0.2436  0.9073
 2111TIP3    H127824   4.392   5.189  10.590  0.6264 -0.1611  0.4265
 2111TIP3    H227825   4.395   5.281  10.469 -1.3976  0.8308  1.0685
 2112TIP3   OH227826   0.875   0.474   0.927 -0.1240 -0.3643  0.1573
 2112TIP3    H127827   0.839   0.389   0.901  0.9094 -0.5881 -0.6148
 2112TIP3    H227828   0.956   0.482   0.877  1.4076 -0.3024  2.4995
 2113TIP3   OH227829   3.144   2.186  14.866  0.1700  0.6997 -0.2284
 2113TIP3    H127830   3.110   2.115  14.811  0.1288 -0.1927  0.9131
 2113TIP3    H227831   3.092   2.262  14.840 -0.9240 -0.0526 -0.3415
 2114TIP3   OH227832   2.832   1.205   4.947 -0.4339 -0.1580  0.8769
 2114TIP3    H127833   2.848   1.225   5.039  0.4155  0.4810  0.6042
 2114TIP3    H227834   2.770   1.133   4.949 -1.4674  0.7070  1.9392
 2115TIP3   OH227835   4.182   1.700   1.627 -0.4573  0.4774  0.3538
 2115TIP3    H127836   4.145   1.611   1.626  0.3260  0.1470  0.5339
 2115TIP3    H227837   4.192   1.720   1.720  1.0981  0.0157  0.3130
 2116TIP3   OH227838   4.749   1.900   2.166 -0.8006 -0.0348  0.0581
 2116TIP3    H127839   4.675   1.857   2.210 -1.7041  0.4218 -0.9658
 2116TIP3    H227840   4.710   1.978   2.126 -0.3274 -1.0625 -2.6293
 2117TIP3   OH227841   1.873   6.743   3.349  0.0857  0.4943  0.4006
 2117TIP3    H127842   1.830   6.785   3.274 -0.0971  0.0261  0.2414
 2117TIP3    H227843   1.894   6.815   3.408 -0.8049  0.7336  0.4277
 2118TIP3   OH227844   5.395   0.886  11.734 -0.7121  0.1118 -0.3538
 2118TIP3    H127845   5.322   0.877  11.794 -0.2545  2.5244  0.6600
 2118TIP3    H227846   5.379   0.968  11.688  0.8823  0.2470 -0.7309
 2119TIP3   OH227847   0.634   3.271   4.286  0.3302  0.1595  0.4266
 2119TIP3    H127848   0.669   3.317   4.362 -0.1536 -0.1371  0.8424
 2119TIP3    H227849   0.660   3.179   4.301 -1.1726 -0.1865  1.0980
 2120TIP3   OH227850   4.813   2.617   0.270 -0.0986 -0.0779  0.5059
 2120TIP3    H127851   4.837   2.648   0.183  0.5582 -1.3431  0.2107
 2120TIP3    H227852   4.878   2.655   0.329  0.3892 -0.4483  0.2175
 2121TIP3   OH227853   5.157   1.432   0.392  0.0105 -0.1327  0.2005
 2121TIP3    H127854   5.075   1.386   0.405 -0.1693  0.1880  0.2021
 2121TIP3    H227855   5.182   1.411   0.302 -0.2521  0.0494  0.0829
 2122TIP3   OH227856   0.906   2.218   1.509  0.5684 -0.3626  0.0159
 2122TIP3    H127857   0.822   2.209   1.554 -0.4565 -0.9678 -1.9329
 2122TIP3    H227858   0.890   2.282   1.440  0.9831 -2.1991 -1.8869
 2123TIP3   OH227859   1.629   3.874  16.478  0.0656  0.2172  0.0344
 2123TIP3    H127860   1.650   3.805  16.540 -2.0146 -0.0077  0.5484
 2123TIP3    H227861   1.598   3.947  16.531 -2.0260 -0.0792 -0.7043
 2124TIP3   OH227862   3.244   0.332  14.108  0.5948 -0.1408 -0.0859
 2124TIP3    H127863   3.323   0.373  14.073  1.0708 -0.6260  0.4006
 2124TIP3    H227864   3.261   0.238  14.102 -0.9017 -0.3335 -2.1535
 2125TIP3   OH227865   0.804   2.802  16.064  0.0835 -0.2558 -0.3487
 2125TIP3    H127866   0.834   2.859  16.135 -1.6020 -1.5715  1.5401
 2125TIP3    H227867   0.761   2.861  16.002  0.3627  0.7803  0.4087
 2126TIP3   OH227868   1.650   6.410   2.503  0.1369 -0.0983  0.7788
 2126TIP3    H127869   1.599   6.331   2.487 -1.0957  0.7701  0.2422
 2126TIP3    H227870   1.585   6.478   2.519  0.9504  1.5756 -2.2065
 2127TIP3   OH227871   1.238   2.198   5.294 -0.7250 -0.2833 -0.0074
 2127TIP3    H127872   1.272   2.182   5.206  1.0156 -1.4609  0.8076
 2127TIP3    H227873   1.311   2.175   5.352 -1.1925  2.1648  1.6998
 2128TIP3   OH227874   3.365   2.339  17.087 -0.5347  1.0802 -0.1594
 2128TIP3    H127875   3.374   2.284  17.164  0.3128  0.4966 -0.6596
 2128TIP3    H227876   3.446   2.391  17.085 -0.0360  0.2961 -1.2469
 2129TIP3   OH227877   4.565   4.321   1.710  0.4264 -0.0511 -0.3965
 2129TIP3    H127878   4.521   4.403   1.733  0.7552  0.0362 -0.0558
 2129TIP3    H227879   4.512   4.252   1.751  1.5794  0.1691  1.5790
 2130TIP3   OH227880   1.550   0.406  13.991 -0.2910  0.0776  0.1394
 2130TIP3    H127881   1.641   0.435  13.989 -0.5451  0.8644 -0.6577
 2130TIP3    H227882   1.522   0.421  14.081  0.3285 -0.0678  0.3601
 2131TIP3   OH227883   3.562   3.846  15.172 -0.5115  0.0796 -0.3147
 2131TIP3    H127884   3.622   3.828  15.244  2.1407  2.5889 -1.7020
 2131TIP3    H227885   3.555   3.763  15.125  0.6999 -0.6435  0.7206
 2132TIP3   OH227886   3.269   3.778   4.021  0.2044  0.5134  0.0874
 2132TIP3    H127887   3.190   3.823   4.049  1.4273  1.7555  1.6837
 2132TIP3    H227888   3.270   3.696   4.071  0.2087  0.7439  0.4609
 2133TIP3   OH227889   0.584   0.821   0.355 -0.1141 -0.0577 -0.0316
 2133TIP3    H127890   0.564   0.727   0.362  1.4025 -0.6039 -2.0238
 2133TIP3    H227891   0.576   0.841   0.262  0.1243  1.6653  0.2846
 2134TIP3   OH227892   4.175   0.579   1.986 -0.0393  0.2740 -0.7808
 2134TIP3    H127893   4.101   0.596   2.044 -1.8824 -2.7592 -2.0341
 2134TIP3    H227894   4.252   0.592   2.041 -1.6191 -0.4475  1.7556
 2135TIP3   OH227895   4.482   0.495   1.784 -0.1174 -0.3572  0.0609
 2135TIP3    H127896   4.543   0.548   1.835  0.7554  1.2024 -2.4065
 2135TIP3    H227897   4.505   0.404   1.805  2.1946  0.1927  0.1924
 2136TIP3   OH227898   2.043   3.840  14.010  0.0491  0.3457 -0.1730
 2136TIP3    H127899   2.008   3.885  14.087  3.3069 -0.9209  2.2926
 2136TIP3    H227900   2.015   3.749  14.021 -0.0164  0.2813 -0.8509
 2137TIP3   OH227901   0.324   5.504  11.615 -1.0713  0.2351 -0.2122
 2137TIP3    H127902   0.324   5.550  11.531 -2.9039  0.7067 -0.0017
 2137TIP3    H227903   0.391   5.548  11.667  0.4915 -0.4241 -1.5728
 2138TIP3   OH227904   3.062   2.956   0.989 -0.8297 -0.4302 -0.0919
 2138TIP3    H127905   3.075   2.886   0.924  1.1653 -0.8051  0.6526
 2138TIP3    H227906   3.080   3.036   0.941 -0.6430 -0.6087 -0.3255
 2139TIP3   OH227907   0.796   2.225  16.936 -0.1404  0.8619  0.2847
 2139TIP3    H127908   0.766   2.299  16.884  0.4180  0.0057 -1.3070
 2139TIP3    H227909   0.728   2.213  17.002 -0.8734  1.9502 -0.2429
 2140TIP3   OH227910   2.776   2.623  12.726 -0.0649  0.7082  0.2194
 2140TIP3    H127911   2.819   2.613  12.641  0.1709  0.6666  0.3445
 2140TIP3    H227912   2.834   2.580  12.788 -0.0563  1.0593  0.4562
 2141TIP3   OH227913   0.813   6.773  14.557  0.1860  0.1144  0.0102
 2141TIP3    H127914   0.883   6.709  14.562 -0.9084 -1.4852 -2.8443
 2141TIP3    H227915   0.770   6.769  14.642  0.5040 -2.6209  0.1291
 2142TIP3   OH227916   0.854   0.696  13.528 -0.4745 -0.1556  0.2780
 2142TIP3    H127917   0.822   0.737  13.447 -1.5648  0.3365  0.9201
 2142TIP3    H227918   0.876   0.607  13.503  1.4755  0.6342 -1.0593
 2143TIP3   OH227919   4.274   0.159  13.757  0.3230 -0.3058 -0.7771
 2143TIP3    H127920   4.282   0.127  13.667 -1.3767  2.2296 -1.9562
 2143TIP3    H227921   4.193   0.119  13.789  1.1494 -1.5431 -0.1841
 2144TIP3   OH227922   3.031   0.084   2.908  0.2983  0.0014 -0.8945
 2144TIP3    H127923   3.085   0.006   2.897 -0.9950 -0.9952 -0.4565
 2144TIP3    H227924   3.035   0.103   3.001 -0.5541 -0.4501 -0.7498
 2145TIP3   OH227925   4.536   5.175   1.775  0.0341  0.8224  0.5328
 2145TIP3    H127926   4.445   5.145   1.774  0.5765 -0.9595  0.9555
 2145TIP3    H227927   4.532   5.263   1.739 -2.1714  1.6976  2.5760
 2146TIP3   OH227928   0.680   0.943   2.569 -0.5939  0.6431  0.5743
 2146TIP3    H127929   0.659   0.984   2.652 -1.0914 -0.2544  0.9008
 2146TIP3    H227930   0.659   1.009   2.503 -1.2021  0.9793  1.0977
 2147TIP3   OH227931   1.139   2.590   2.714  0.1835 -0.1162 -0.3394
 2147TIP3    H127932   1.154   2.635   2.797  1.5770  0.9963 -1.1579
 2147TIP3    H227933   1.204   2.520   2.713 -1.6587 -1.9624  0.7096
 2148TIP3   OH227934   5.488   0.404   1.657 -0.6087  0.0449 -0.2516
 2148TIP3    H127935   5.492   0.451   1.573 -1.7930 -0.9333 -0.8943
 2148TIP3    H227936   5.408   0.352   1.651 -0.6336 -0.1671  1.4445
 2149TIP3   OH227937   1.516   1.832  12.200  0.3299 -0.3078 -0.1974
 2149TIP3    H127938   1.426   1.799  12.197  0.4293 -0.5930 -0.0278
 2149TIP3    H227939   1.536   1.853  12.109 -0.3881  1.0595 -0.0770
 2150TIP3   OH227940   3.006   3.233   2.955 -0.0332 -0.7487  0.5941
 2150TIP3    H127941   3.071   3.281   3.007  0.8128 -0.5632 -0.5921
 2150TIP3    H227942   2.929   3.228   3.012 -0.2896  2.2889  0.6828
 2151TIP3   OH227943   3.598   2.468   3.781 -0.0595  0.3712 -0.0476
 2151TIP3    H127944   3.656   2.419   3.723  0.1078  1.2215 -0.6198
 2151TIP3    H227945   3.595   2.556   3.743 -0.9113  0.6138  0.5574
 2152TIP3   OH227946   6.539   6.579   4.713 -0.1384 -0.1350  0.1339
 2152TIP3    H127947   6.468   6.517   4.728 -0.0622 -0.0351  1.0102
 2152TIP3    H227948   6.566   6.565   4.623 -0.6591 -0.8110  0.0792
 2153TIP3   OH227949   3.480   2.706   0.661  0.6469 -0.1713 -0.3936
 2153TIP3    H127950   3.440   2.727   0.577  1.7135 -0.9186 -1.1084
 2153TIP3    H227951   3.424   2.637   0.698 -0.0383  0.4219 -0.2945
 2154TIP3   OH227952   0.828   4.428   4.906 -0.3998  0.0832  0.0811
 2154TIP3    H127953   0.770   4.356   4.883 -0.3416  0.3018 -0.8065
 2154TIP3    H227954   0.915   4.400   4.877  0.1321 -0.6088  2.1959
 2155TIP3   OH227955   5.881   0.110   3.007 -0.0540  0.0220  0.2025
 2155TIP3    H127956   5.802   0.136   2.959  0.3535 -0.2371 -0.6085
 2155TIP3    H227957   5.847   0.078   3.091 -0.8178 -0.1080 -0.1438
 2156TIP3   OH227958   5.926   2.329   0.840  0.0186 -0.2115  0.4557
 2156TIP3    H127959   5.920   2.409   0.788  0.7903  0.1036  0.8408
 2156TIP3    H227960   5.968   2.356   0.922 -0.2114 -0.9055  0.8146
 2157TIP3   OH227961   0.965   4.617   1.486 -0.1335  0.3470 -0.1011
 2157TIP3    H127962   0.967   4.708   1.455 -2.1824  1.1462  1.8165
 2157TIP3    H227963   1.057   4.596   1.504  0.3646  2.1536 -0.2933
 2158TIP3   OH227964   0.393   6.168   5.123 -0.1104 -0.5143  0.0377
 2158TIP3    H127965   0.366   6.234   5.059  0.8734 -0.5425 -0.4341
 2158TIP3    H227966   0.445   6.217   5.187 -0.7375 -0.5586  0.5847
 2159TIP3   OH227967   4.377   5.736   5.310 -0.0303 -0.0026 -0.4082
 2159TIP3    H127968   4.378   5.794   5.234 -1.3329 -0.4036 -0.7518
 2159TIP3    H227969   4.313   5.774   5.369  0.3158 -0.1920  0.0998
 2160TIP3   OH227970   2.971   3.713   3.336 -0.0165 -0.0595  0.6627
 2160TIP3    H127971   2.913   3.780   3.299 -1.0969 -1.2890  0.0276
 2160TIP3    H227972   3.019   3.679   3.260 -1.5112 -1.8944  0.4526
 2161TIP3   OH227973   3.820   0.886   3.840  0.3162 -0.4503 -0.1690
 2161TIP3    H127974   3.854   0.945   3.907 -0.3235 -0.4955  0.1989
 2161TIP3    H227975   3.851   0.923   3.757 -0.7489  0.8652 -0.0019
 2162TIP3   OH227976   4.790   2.166   0.754  0.1930  0.1633  0.3847
 2162TIP3    H127977   4.715   2.173   0.694 -0.7489 -0.1668  1.4921
 2162TIP3    H227978   4.751   2.162   0.841  1.4586 -0.9721  0.9404
 2163TIP3   OH227979   5.933   4.515  12.846  0.3098 -0.4509  0.1526
 2163TIP3    H127980   5.873   4.581  12.811  0.9575  0.0229 -0.0871
 2163TIP3    H227981   5.979   4.481  12.769  0.6273 -0.5251  0.3703
 2164TIP3   OH227982   6.129   0.199   4.486  0.0352 -0.1994  0.1982
 2164TIP3    H127983   6.223   0.207   4.505 -0.0874  0.1804  0.6569
 2164TIP3    H227984   6.123   0.213   4.392  0.4926 -0.7042  0.0856
 2165TIP3   OH227985   0.243   1.839   5.584  0.7508  0.4706  0.0047
 2165TIP3    H127986   0.161   1.790   5.573 -0.1457  1.7879  0.5801
 2165TIP3    H227987   0.293   1.787   5.646  0.6064 -0.6377 -0.7697
 2166TIP3   OH227988   1.959   4.551  11.613  0.3680  0.4717  0.0383
 2166TIP3    H127989   1.915   4.616  11.668  0.0184 -1.1320  1.7177
 2166TIP3    H227990   1.986   4.482  11.673 -0.8063 -1.8098 -1.8623
 2167TIP3   OH227991   2.207   5.628   1.168  0.2524  0.5967 -0.5963
 2167TIP3    H127992   2.149   5.687   1.120  3.2117  3.2495 -1.2802
 2167TIP3    H227993   2.272   5.686   1.208  1.5099 -2.0282  1.4533
 2168TIP3   OH227994   6.053   1.833   2.500 -0.2015  0.2123  0.6064
 2168TIP3    H127995   6.096   1.790   2.426 -1.3270 -0.2996  0.2111
 2168TIP3    H227996   5.981   1.882   2.460 -0.1425  0.8323  1.2597
 2169TIP3   OH227997   3.675   5.314  13.570  0.7636  0.0148 -0.0833
 2169TIP3    H127998   3.768   5.289  13.575  0.2997 -2.2187 -1.2455
 2169TIP3    H227999   3.663   5.345  13.480  0.2393 -0.3979 -0.1595
 2170TIP3   OH228000   4.992   3.359  14.165  0.2906 -0.0469 -0.3853
 2170TIP3    H128001   5.072   3.375  14.115  0.7799 -0.3474  0.2886
 2170TIP3    H228002   5.022   3.317  14.245 -0.6853 -1.7174 -0.8514
 2171TIP3   OH228003   1.276   1.614   3.372  0.1813  0.4603 -0.3476
 2171TIP3    H128004   1.358   1.640   3.330 -0.2582  1.0373 -0.8712
 2171TIP3    H228005   1.225   1.695   3.377 -0.4422  0.0640 -0.2313
 2172TIP3   OH228006   2.000   4.568   1.424  0.1783 -0.2913 -0.4333
 2172TIP3    H128007   1.992   4.663   1.428 -0.7000 -0.3113 -1.4395
 2172TIP3    H228008   2.037   4.543   1.509  1.3615  1.0298 -0.5275
 2173TIP3   OH228009   2.547   6.716  12.721 -0.5172  0.0333 -0.0893
 2173TIP3    H128010   2.612   6.702  12.790  0.1826  0.4688 -0.6550
 2173TIP3    H228011   2.468   6.744  12.768  0.2055  1.1767  0.4859
 2174TIP3   OH228012   5.486   2.484   0.024  0.2275 -1.0384  0.5808
 2174TIP3    H128013   5.553   2.540   0.063  0.5803 -0.3435 -0.9477
 2174TIP3    H228014   5.426   2.465   0.096  1.9621 -1.5680  1.9524
 2175TIP3   OH228015   3.158   4.471  13.690  0.1776  0.8469  0.3441
 2175TIP3    H128016   3.138   4.520  13.770  2.7550  2.0271  0.3371
 2175TIP3    H228017   3.223   4.524  13.644  0.9253 -1.2106 -1.1077
 2176TIP3   OH228018   2.609   3.366   2.096  0.3969  0.1204  0.1810
 2176TIP3    H128019   2.569   3.431   2.039  0.1300  0.1254  0.3714
 2176TIP3    H228020   2.666   3.315   2.039  0.4639  0.4035 -0.0045
 2177TIP3   OH228021   0.281   5.521   6.491 -0.0466 -0.0910 -0.1158
 2177TIP3    H128022   0.197   5.510   6.446  0.0934  1.5865 -0.8509
 2177TIP3    H228023   0.344   5.475   6.436 -0.4304 -1.2368  0.3624
 2178TIP3   OH228024   2.307   2.009  12.759  0.3025 -0.4791 -0.1331
 2178TIP3    H128025   2.254   1.975  12.687 -0.9827  1.2224 -0.0382
 2178TIP3    H228026   2.375   2.062  12.717 -0.5710  0.6829 -0.1328
 2179TIP3   OH228027   3.711   5.645  13.514  0.3728 -0.1541  0.3591
 2179TIP3    H128028   3.731   5.576  13.451 -0.6551 -0.7842  0.6798
 2179TIP3    H228029   3.688   5.720  13.460  2.1578  0.1794 -0.0005
 2180TIP3   OH228030   4.928   3.893  13.855 -0.1020 -0.6723  0.8310
 2180TIP3    H128031   4.865   3.906  13.925  0.3415  0.1015  1.0998
 2180TIP3    H228032   4.895   3.817  13.806 -0.8420 -0.7187  1.3908
 2181TIP3   OH228033   5.040   2.827  16.274  0.4032 -0.1135 -0.6711
 2181TIP3    H128034   4.967   2.780  16.233  0.9170 -1.8654  0.3058
 2181TIP3    H228035   5.108   2.828  16.206  0.1946 -0.3207 -0.8911
 2182TIP3   OH228036   2.171   2.393   0.255  0.3713 -0.4357  0.5155
 2182TIP3    H128037   2.131   2.480   0.264 -0.8844 -0.2641 -4.0635
 2182TIP3    H228038   2.110   2.334   0.300 -0.4916  0.7244  0.9267
 2183TIP3   OH228039   1.152   6.270  15.649 -0.0817  0.0705 -0.4604
 2183TIP3    H128040   1.060   6.285  15.673 -0.1911 -2.0261  0.6189
 2183TIP3    H228041   1.188   6.217  15.720  2.1141  1.1627 -0.6720
 2184TIP3   OH228042   5.316   2.226  15.511  0.1587  0.1442 -0.1467
 2184TIP3    H128043   5.412   2.221  15.506  0.0591 -0.6046 -1.9823
 2184TIP3    H228044   5.292   2.157  15.573  0.8536  1.2312  1.3960
 2185TIP3   OH228045   0.107   4.671  13.872  0.1466  0.5788  0.3563
 2185TIP3    H128046   0.118   4.717  13.956 -2.2845  0.0380  1.0492
 2185TIP3    H228047   0.035   4.610  13.887  0.3849 -0.3499 -1.8374
 2186TIP3   OH228048   4.712   4.058  17.222  0.3504  0.5402  0.1768
 2186TIP3    H128049   4.732   4.132  17.165 -1.1242  0.7858 -0.0844
 2186TIP3    H228050   4.794   4.038  17.266  0.5561  3.0681  1.0915
 2187TIP3   OH228051   4.797   0.166   5.812 -0.2071  0.6657 -0.1073
 2187TIP3    H128052   4.873   0.220   5.832  0.1935  0.0618  0.0246
 2187TIP3    H228053   4.794   0.164   5.716 -1.5571  2.7580 -0.1757
 2188TIP3   OH228054   3.543   1.517  11.372  0.1698 -0.0604  0.0990
 2188TIP3    H128055   3.637   1.515  11.389  0.5129 -0.8189 -1.6679
 2188TIP3    H228056   3.535   1.509  11.277 -1.7096 -1.1878  0.2856
 2189TIP3   OH228057   5.512   4.451  11.926 -0.2659  0.5349  0.2598
 2189TIP3    H128058   5.530   4.484  12.014  0.0183 -2.2347  1.3501
 2189TIP3    H228059   5.587   4.394  11.906 -1.4730 -0.7733 -0.7351
 2190TIP3   OH228060   1.176   5.802  16.448  0.1489 -0.5059  0.6553
 2190TIP3    H128061   1.088   5.831  16.471 -0.3047  0.5026 -2.0205
 2190TIP3    H228062   1.233   5.845  16.512 -0.9974  2.1101  0.0567
 2191TIP3   OH228063   4.310   6.207  16.540  0.3617  0.3631 -0.1491
 2191TIP3    H128064   4.403   6.188  16.530  0.0381 -0.7219 -1.3078
 2191TIP3    H228065   4.290   6.186  16.631  1.3160  0.9675  0.2072
 2192TIP3   OH228066   1.602   5.516  13.363  0.1271  0.1319  0.0740
 2192TIP3    H128067   1.646   5.434  13.384  2.4429  1.2038 -0.2461
 2192TIP3    H228068   1.607   5.568  13.444 -0.3275  0.3682 -0.0446
 2193TIP3   OH228069   0.907   1.037  14.332  0.4605  0.0615 -0.0383
 2193TIP3    H128070   0.941   1.124  14.352 -1.0083  0.3726  1.3846
 2193TIP3    H228071   0.847   1.018  14.405  1.9217 -2.8342  0.5323
 2194TIP3   OH228072   1.637   2.028   1.396  0.0919 -0.4505 -0.5709
 2194TIP3    H128073   1.602   1.994   1.314  0.0662 -3.1731  0.4666
 2194TIP3    H228074   1.650   1.951   1.451 -0.1242  1.2546  2.1031
 2195TIP3   OH228075   3.414   0.671   1.271 -0.8211 -0.0689  0.3335
 2195TIP3    H128076   3.457   0.656   1.355 -0.2338  1.0635  0.2600
 2195TIP3    H228077   3.321   0.658   1.289 -0.6553 -0.3551  1.0262
 2196TIP3   OH228078   1.933   6.484  10.943 -0.7074  0.4429 -0.0610
 2196TIP3    H128079   1.902   6.429  10.870 -0.9344 -1.0952  1.1359
 2196TIP3    H228080   1.878   6.562  10.939 -3.2564 -1.1699  0.5608
 2197TIP3   OH228081   5.873   5.221   0.693 -0.4482  0.3921  0.5050
 2197TIP3    H128082   5.782   5.200   0.713 -0.3542 -1.8279 -1.0274
 2197TIP3    H228083   5.917   5.136   0.689  0.9376  1.1326 -2.1706
 2198TIP3   OH228084   0.681   3.963   5.661 -0.6049  0.2148 -0.4561
 2198TIP3    H128085   0.627   3.885   5.649  2.0236 -1.5847 -1.5205
 2198TIP3    H228086   0.634   4.032   5.615 -4.2281  0.0146  2.5060
 2199TIP3   OH228087   1.988   6.222   5.800  0.3514  0.1652 -0.3668
 2199TIP3    H128088   2.066   6.179   5.766 -1.8514 -2.8770 -2.0920
 2199TIP3    H228089   1.980   6.191   5.890  0.8117  0.0558 -0.3616
 2200TIP3   OH228090   6.241   6.399   6.548 -0.0400  0.1227 -0.4055
 2200TIP3    H128091   6.216   6.489   6.528  0.7722  0.2159 -1.0033
 2200TIP3    H228092   6.255   6.399   6.643  0.5402  0.7665 -0.4877
 2201TIP3   OH228093   3.125   4.156   3.405  0.1434  0.2558 -0.2441
 2201TIP3    H128094   3.179   4.077   3.403  1.0242  0.7928  1.0639
 2201TIP3    H228095   3.041   4.126   3.441 -0.0214 -0.3444 -1.1033
 2202TIP3   OH228096   6.639   2.623   3.202 -0.0854 -0.6893  0.1476
 2202TIP3    H128097   6.604   2.704   3.164  2.4905 -0.1382 -1.3090
 2202TIP3    H228098   6.665   2.647   3.291 -0.6749 -0.3288  0.2245
 2203TIP3   OH228099   2.770   3.519  12.906 -0.7636  0.5752  0.4731
 2203TIP3    H128100   2.830   3.452  12.873 -0.9698  0.1547  0.9330
 2203TIP3    H228101   2.741   3.566  12.828 -2.4667 -1.4037 -0.1978
 2204TIP3   OH228102   6.638   1.456  16.062 -0.3383 -0.1018  0.2152
 2204TIP3    H128103   6.590   1.490  15.986  1.2196  1.8897  0.0162
 2204TIP3    H228104   6.707   1.402  16.023  0.1916  0.5640  0.2085
 2205TIP3   OH228105   5.703   0.393  16.035  0.2052  0.1098  0.0221
 2205TIP3    H128106   5.676   0.331  16.103 -1.2028 -0.9722 -1.4133
 2205TIP3    H228107   5.798   0.385  16.031  0.3942  0.6546  2.2182
 2206TIP3   OH228108   0.080   0.356  15.711 -0.2899 -0.0866  0.0700
 2206TIP3    H128109   0.129   0.422  15.761 -1.9165  0.8202  0.5194
 2206TIP3    H228110   0.096   0.274  15.758  1.4621  0.0055 -0.2832
 2207TIP3   OH228111   0.707   6.731  16.659  0.0837  0.0268 -0.3832
 2207TIP3    H128112   0.652   6.752  16.734  0.4052  1.9054 -0.6127
 2207TIP3    H228113   0.796   6.750  16.688  0.4220 -1.1337 -0.6292
 2208TIP3   OH228114   6.681   0.330  12.043  0.0717  0.2116 -0.0098
 2208TIP3    H128115   6.597   0.324  11.997  0.7350  0.3719 -1.2841
 2208TIP3    H228116   6.700   0.240  12.070 -0.6056  0.2102  0.4924
 2209TIP3   OH228117   6.025   5.884  11.763 -0.8866 -0.4536 -0.1433
 2209TIP3    H128118   6.021   5.885  11.668 -0.5254  1.2670 -0.1629
 2209TIP3    H228119   6.107   5.837  11.783 -0.9036 -0.7140 -0.6735
 2210TIP3   OH228120   1.572   4.431  13.647 -0.1922 -0.7468 -0.4424
 2210TIP3    H128121   1.627   4.500  13.683 -2.9299  0.4382  1.8884
 2210TIP3    H228122   1.575   4.443  13.552  1.4515  0.8887 -0.2184
 2211TIP3   OH228123   1.948   3.205  14.780  0.2162 -0.2645 -0.1854
 2211TIP3    H128124   2.038   3.174  14.776  0.4702  0.3706  0.4077
 2211TIP3    H228125   1.950   3.276  14.844 -0.7766 -0.4901  0.1113
 2212TIP3   OH228126   1.523   5.874  14.922 -0.6624  0.0378 -0.1541
 2212TIP3    H128127   1.489   5.860  14.834 -0.7023 -1.4233  0.0815
 2212TIP3    H228128   1.446   5.879  14.978 -0.5821 -0.6458  0.0186
 2213TIP3   OH228129   0.362   1.906   2.675 -0.8468 -1.2590 -0.0025
 2213TIP3    H128130   0.401   1.818   2.669  0.7237 -0.6011  0.0228
 2213TIP3    H228131   0.429   1.964   2.637 -1.5822  0.0024  0.5885
 2214TIP3   OH228132   5.949   4.043  14.556  0.1893  0.0099  0.1700
 2214TIP3    H128133   6.029   4.023  14.605 -0.7308  1.3184  2.3294
 2214TIP3    H228134   5.964   4.130  14.521 -0.9155  1.0916  2.1821
 2215TIP3   OH228135   1.972   1.739   1.315 -1.0446  0.3541 -0.3188
 2215TIP3    H128136   1.877   1.745   1.330 -1.2163 -1.9734  0.0241
 2215TIP3    H228137   1.989   1.799   1.244 -2.7330  1.0778 -0.1584
 2216TIP3   OH228138   3.317   0.064   5.932 -0.7883  0.1255  0.2323
 2216TIP3    H128139   3.255   0.010   5.882  0.9831 -1.8949  0.0866
 2216TIP3    H228140   3.277   0.071   6.019 -2.1711  0.5892 -0.4125
 2217TIP3   OH228141   6.631   6.655   0.411 -0.1937 -0.1849  0.1728
 2217TIP3    H128142   6.699   6.714   0.442 -0.5604  0.4466 -0.1995
 2217TIP3    H228143   6.560   6.663   0.475  0.6189 -1.9377  1.3687
 2218TIP3   OH228144   0.645   5.238  12.799  0.0111 -0.2643 -0.2838
 2218TIP3    H128145   0.588   5.314  12.812 -1.5523 -1.4007 -0.2335
 2218TIP3    H228146   0.636   5.187  12.880  2.8973  0.5743  0.7225
 2219TIP3   OH228147   6.343   3.895   3.026 -0.1507  0.0140 -0.5432
 2219TIP3    H128148   6.400   3.921   2.954 -0.2562  2.3781  0.1385
 2219TIP3    H228149   6.404   3.871   3.096  0.2769  4.1324  0.7641
 2220TIP3   OH228150   4.519   3.850  15.256 -0.4404  0.0571 -0.1799
 2220TIP3    H128151   4.558   3.872  15.171 -0.2130  2.3796  0.4471
 2220TIP3    H228152   4.594   3.828  15.311 -0.6763 -2.6557 -0.8311
 2221TIP3   OH228153   6.776   5.045   4.321  0.0332  0.0911  0.8147
 2221TIP3    H128154   6.694   5.000   4.343 -0.1856 -0.4775 -1.0110
 2221TIP3    H228155   6.837   5.017   4.390 -0.8918 -0.7029  1.3459
 2222TIP3   OH228156   2.833   6.310   4.602  0.2375  0.5563  0.3576
 2222TIP3    H128157   2.843   6.356   4.685 -1.3831  0.7533  0.4633
 2222TIP3    H228158   2.820   6.218   4.627  1.5993  0.2978  0.2176
 2223TIP3   OH228159   0.644   1.260   1.694 -0.3759  0.3168 -0.4086
 2223TIP3    H128160   0.679   1.348   1.711 -0.4101  0.8807 -2.9293
 2223TIP3    H228161   0.716   1.213   1.652 -0.2567 -1.0266  1.1684
 2224TIP3   OH228162   4.321   1.662  14.773  0.4734 -0.2381 -0.3875
 2224TIP3    H128163   4.384   1.668  14.701 -0.5617 -1.5096 -1.4577
 2224TIP3    H228164   4.245   1.619  14.734 -0.1466 -0.8904  1.4685
 2225TIP3   OH228165   1.076   6.436  11.062 -0.4637  0.0933  0.2710
 2225TIP3    H128166   1.141   6.408  11.127 -1.2843  0.3789  1.2332
 2225TIP3    H228167   1.087   6.375  10.989  0.4046 -0.2940  0.7140
 2226TIP3   OH228168   0.801   1.303   4.144 -0.4814 -0.1875  0.0908
 2226TIP3    H128169   0.727   1.261   4.188 -0.3479 -0.5498 -0.0244
 2226TIP3    H228170   0.850   1.230   4.106  0.7079 -0.0700  1.3463
 2227TIP3   OH228171   6.168   6.248   1.611 -0.7267  0.0803  0.5287
 2227TIP3    H128172   6.262   6.231   1.617 -0.7386 -0.3919 -0.4173
 2227TIP3    H228173   6.127   6.162   1.623 -0.9016 -0.2016 -1.6369
 2228TIP3   OH228174   1.706   5.007   5.125 -0.7219 -0.0653  0.7130
 2228TIP3    H128175   1.797   5.007   5.152 -0.3520  1.0728 -0.4576
 2228TIP3    H228176   1.675   5.096   5.144 -2.4212 -1.1268  3.6209
 2229TIP3   OH228177   0.267   3.347   2.292 -0.6418 -0.2544 -0.4573
 2229TIP3    H128178   0.225   3.321   2.210 -0.6712 -2.6761  0.2474
 2229TIP3    H228179   0.358   3.320   2.282 -0.6203 -0.4662  0.2583
 2230TIP3   OH228180   6.747   3.053  16.918  0.0737  0.2479 -0.5073
 2230TIP3    H128181   6.680   3.040  16.984  0.5176 -0.0693 -0.1096
 2230TIP3    H228182   6.719   2.999  16.844  0.0646 -0.1446 -0.2172
 2231TIP3   OH228183   1.220   3.468   5.133  0.7419  0.2622  0.9156
 2231TIP3    H128184   1.246   3.492   5.222 -0.0613  0.2376  1.1643
 2231TIP3    H228185   1.204   3.374   5.137 -0.0168  0.3866  0.9335
 2232TIP3   OH228186   3.089   2.415  17.052  0.2299  0.2328 -0.0533
 2232TIP3    H128187   3.064   2.475  17.122 -0.8098 -1.4399  1.0691
 2232TIP3    H228188   3.183   2.401  17.066  0.5206  1.6292 -0.4000
 2233TIP3   OH228189   3.344   5.647   3.995  0.3228 -0.3766 -0.2945
 2233TIP3    H128190   3.294   5.682   3.921  1.3067 -1.1266 -1.3458
 2233TIP3    H228191   3.384   5.567   3.961  2.6450  0.4530  0.3581
 2234TIP3   OH228192   2.586   0.735   5.628  0.3865  0.3683  0.1965
 2234TIP3    H128193   2.536   0.702   5.702 -1.2860 -0.1446 -1.0966
 2234TIP3    H228194   2.648   0.664   5.607 -0.1547 -0.1077  0.1858
 2235TIP3   OH228195   1.874   1.169  16.005  0.4767  0.2208 -0.3534
 2235TIP3    H128196   1.818   1.240  15.973 -1.3830  0.0344  2.1680
 2235TIP3    H228197   1.849   1.093  15.952 -3.1182 -0.2885  1.7421
 2236TIP3   OH228198   4.527   2.386  11.862  0.0665 -0.9124  0.2988
 2236TIP3    H128199   4.620   2.404  11.881 -0.5782  1.1949  1.8331
 2236TIP3    H228200   4.498   2.332  11.936 -0.1005 -1.0033  0.1669
 2237TIP3   OH228201   4.039   0.203   2.490  0.1039  0.0585  0.4720
 2237TIP3    H128202   4.125   0.185   2.452 -0.0035  0.5097  0.0131
 2237TIP3    H228203   4.046   0.169   2.579  0.1587 -1.5921 -0.1148
 2238TIP3   OH228204   6.573   4.259   6.309  0.0175  0.0762  0.2953
 2238TIP3    H128205   6.599   4.172   6.339 -0.8030 -0.8027 -1.3795
 2238TIP3    H228206   6.484   4.271   6.342  0.4604  0.6920  1.2993
 2239TIP3   OH228207   3.091   6.613   5.359  0.4955 -0.3046 -0.0812
 2239TIP3    H128208   3.172   6.583   5.400 -1.2027 -1.8752  2.3817
 2239TIP3    H228209   3.049   6.534   5.327 -1.0976  0.1643  0.7277
 2240TIP3   OH228210   6.138   2.436   6.022  0.8593 -0.2174  0.0505
 2240TIP3    H128211   6.101   2.351   5.999 -0.7716  0.1861  1.0566
 2240TIP3    H228212   6.092   2.498   5.966  1.7336  0.0728 -0.3702
 2241TIP3   OH228213   3.355   4.037   1.955 -0.1667  0.4953  0.0391
 2241TIP3    H128214   3.324   3.996   2.035 -1.5905  0.6189 -0.4287
 2241TIP3    H228215   3.415   4.106   1.985  0.9835 -0.8201  0.8858
 2242TIP3   OH228216   5.772   0.992  10.698 -0.5483 -0.0662  0.3728
 2242TIP3    H128217   5.809   1.047  10.628  0.0511  0.1637  0.8493
 2242TIP3    H228218   5.679   1.012  10.698 -0.4124  0.5901  0.2105
 2243TIP3   OH228219   5.916   1.044  14.792  1.1011 -0.2348  0.1165
 2243TIP3    H128220   5.939   0.954  14.767  0.0285 -0.5311  0.1456
 2243TIP3    H228221   5.821   1.041  14.807  1.1241  0.8104  0.5242
 2244TIP3   OH228222   1.197   6.091   3.987  0.0372  0.2722  0.0960
 2244TIP3    H128223   1.118   6.038   3.999  0.6385 -1.1131 -1.6843
 2244TIP3    H228224   1.267   6.039   4.026  0.6095 -0.2156 -1.5095
 2245TIP3   OH228225   5.118   5.283  13.066 -0.1675 -0.1195  0.0447
 2245TIP3    H128226   5.181   5.262  12.997  0.6967  2.3127  0.0057
 2245TIP3    H228227   5.033   5.261  13.027  0.4599 -1.2847 -0.7547
 2246TIP3   OH228228   3.623   1.286  15.117 -0.2954 -0.2049  0.2348
 2246TIP3    H128229   3.689   1.343  15.155 -1.1259  0.2069  1.1124
 2246TIP3    H228230   3.671   1.226  15.060  0.7007  0.7396  0.0675
 2247TIP3   OH228231   1.713   5.189  14.140  0.1439  0.1929  0.1442
 2247TIP3    H128232   1.627   5.226  14.158  0.6751  0.9275  1.3546
 2247TIP3    H228233   1.762   5.260  14.099  0.5742  0.2255  0.6969
 2248TIP3   OH228234   4.868   2.326   5.979  0.4728  0.6841 -0.3185
 2248TIP3    H128235   4.778   2.314   5.949  0.4418 -1.9718  0.5871
 2248TIP3    H228236   4.862   2.397   6.043 -1.0709  0.3160 -0.0018
 2249TIP3   OH228237   5.335   6.144  16.256  0.3705 -0.0245 -0.3651
 2249TIP3    H128238   5.275   6.070  16.251 -0.9111  0.8561  1.2332
 2249TIP3    H228239   5.408   6.119  16.199 -0.5757 -1.9754 -0.8091
 2250TIP3   OH228240   4.630   3.721   1.432 -0.4313 -0.1746 -0.1789
 2250TIP3    H128241   4.677   3.789   1.383  1.0791 -1.3879 -0.5123
 2250TIP3    H228242   4.677   3.640   1.411 -2.0028 -1.2899  0.4250
 2251TIP3   OH228243   5.439   2.604   2.405 -0.3821 -0.5280  0.6629
 2251TIP3    H128244   5.502   2.663   2.446  0.9112 -0.8411 -0.7805
 2251TIP3    H228245   5.397   2.559   2.478  0.5890  0.1825  1.6877
 2252TIP3   OH228246   4.580   6.608   1.669  0.4949 -0.2209 -0.0510
 2252TIP3    H128247   4.633   6.540   1.627  0.8476 -0.1559  0.2804
 2252TIP3    H228248   4.585   6.683   1.609 -0.3826 -0.6629 -0.7159
 2253TIP3   OH228249   0.681   5.904  16.225 -0.2751 -0.3825 -0.2223
 2253TIP3    H128250   0.655   5.956  16.150 -0.1011 -1.0696 -0.7652
 2253TIP3    H228251   0.659   5.958  16.301 -3.3702 -0.9211 -0.6165
 2254TIP3   OH228252   5.558   6.294   3.708  0.2596 -0.5057 -0.5857
 2254TIP3    H128253   5.484   6.307   3.649  1.1011 -0.9937 -1.7848
 2254TIP3    H228254   5.621   6.242   3.658  0.9862 -1.0023  0.7649
 2255TIP3   OH228255   2.814   5.987   4.421  0.4955 -0.8576  0.0344
 2255TIP3    H128256   2.866   6.064   4.396 -0.1824 -0.7122 -1.0083
 2255TIP3    H228257   2.809   5.935   4.341 -0.2874 -1.2579  0.3364
 2256TIP3   OH228258   4.142   2.081   5.681 -0.2409 -0.2464  0.2156
 2256TIP3    H128259   4.204   2.140   5.725  0.6264 -0.6472 -0.4284
 2256TIP3    H228260   4.177   2.073   5.592 -1.5009 -0.1048 -0.3041
 2257TIP3   OH228261   3.866   5.084   1.263  0.0389  0.6030 -0.1205
 2257TIP3    H128262   3.792   5.034   1.297 -1.1595  1.6097 -1.1372
 2257TIP3    H228263   3.930   5.084   1.334 -0.6514 -0.8226  0.5557
 2258TIP3   OH228264   1.419   6.684  15.278  0.3635 -0.5944  0.4696
 2258TIP3    H128265   1.508   6.714  15.293  0.3139  0.5459 -1.2165
 2258TIP3    H228266   1.370   6.711  15.356  1.2721 -0.2832  0.9357
 2259TIP3   OH228267   0.544   2.195   3.631 -0.7206  0.1836  0.7260
 2259TIP3    H128268   0.511   2.271   3.584  0.2427  1.2043  1.6252
 2259TIP3    H228269   0.474   2.131   3.626 -0.7866  0.3315 -1.8188
 2260TIP3   OH228270   1.738   4.273  13.410 -0.3805  0.5667  0.5770
 2260TIP3    H128271   1.769   4.231  13.329 -0.6434  1.6373 -0.1016
 2260TIP3    H228272   1.764   4.365  13.401  1.3821  0.3335  2.6544
 2261TIP3   OH228273   2.890   0.998   4.749  0.6751 -0.0905 -0.0474
 2261TIP3    H128274   2.893   1.094   4.753  2.4783 -0.1579  1.3876
 2261TIP3    H228275   2.926   0.977   4.663  1.1737  0.5142  0.0045
 2262TIP3   OH228276   3.978   3.601  11.501  0.5094 -0.7480  0.1510
 2262TIP3    H128277   3.997   3.523  11.451  0.1580  0.2853 -1.6813
 2262TIP3    H228278   3.973   3.671  11.436  0.1998  0.6943  1.6503
 2263TIP3   OH228279   1.372   1.427   3.669 -0.3291  0.0053  0.2003
 2263TIP3    H128280   1.388   1.520   3.652  2.5008 -0.1668  1.3425
 2263TIP3    H228281   1.337   1.424   3.758 -0.9481 -0.0214 -0.0359
 2264TIP3   OH228282   3.667   2.701   4.698 -0.0644  0.3238  0.0098
 2264TIP3    H128283   3.628   2.752   4.769 -0.4893 -0.3334  0.2478
 2264TIP3    H228284   3.746   2.750   4.675 -0.1664  0.7876  0.6221
 2265TIP3   OH228285   0.195   6.370   0.122  0.7340 -0.0388 -0.0427
 2265TIP3    H128286   0.115   6.334   0.084  1.1091  0.1726 -1.0848
 2265TIP3    H228287   0.224   6.304   0.185 -0.2375 -0.1277  0.3144
 2266TIP3   OH228288   1.337   0.744  11.449 -0.4436 -0.3452  0.8224
 2266TIP3    H128289   1.429   0.765  11.467 -0.2555 -0.8924  0.5261
 2266TIP3    H228290   1.340   0.685  11.374 -1.0986  0.3923  0.1963
 2267TIP3   OH228291   1.246   4.288  17.062 -0.1343  0.3186  0.4058
 2267TIP3    H128292   1.179   4.314  17.125 -3.0938 -1.1611 -1.9070
 2267TIP3    H228293   1.231   4.344  16.986  0.6220 -0.7270 -0.5511
 2268TIP3   OH228294   6.726   1.523   1.934  0.0507  0.0211 -0.1372
 2268TIP3    H128295   6.683   1.570   2.006  1.1799 -1.9512  1.9395
 2268TIP3    H228296   6.794   1.584   1.903  0.1532  0.5717  1.1093
 2269TIP3   OH228297   2.093   6.228   2.621  0.4440 -0.7200  0.4424
 2269TIP3    H128298   2.003   6.253   2.641  0.6221  1.0617 -0.7382
 2269TIP3    H228299   2.096   6.226   2.525  1.6413 -0.7913  0.4661
 2270TIP3   OH228300   3.799   0.024  13.983 -0.4203 -0.5047 -0.7373
 2270TIP3    H128301   3.732   0.055  13.922  0.3863  1.5837 -0.6263
 2270TIP3    H228302   3.760   0.037  14.069  0.4394  1.6650 -0.6256
 2271TIP3   OH228303   6.241   0.971  14.127 -0.0802 -0.5103 -0.1193
 2271TIP3    H128304   6.242   1.063  14.100 -0.8420 -0.8682 -1.4635
 2271TIP3    H228305   6.307   0.930  14.071 -1.0816 -1.1110 -0.8990
 2272TIP3   OH228306   0.216   3.247   4.722 -0.7293 -0.3245 -0.4823
 2272TIP3    H128307   0.171   3.263   4.805 -2.5232 -3.0192 -0.8079
 2272TIP3    H228308   0.151   3.271   4.655 -0.1709 -0.4278 -1.0653
 2273TIP3   OH228309   6.060   1.304  14.247 -0.4611 -0.1653 -0.6568
 2273TIP3    H128310   6.040   1.279  14.157 -3.9987 -0.1048 -0.0246
 2273TIP3    H228311   6.013   1.387  14.260 -0.5293 -0.4570  1.3700
 2274TIP3   OH228312   6.522   1.338   5.697  0.0418 -0.1407 -0.5492
 2274TIP3    H128313   6.610   1.300   5.694  0.3028  0.3313  0.7381
 2274TIP3    H228314   6.481   1.307   5.616  0.3474 -2.9161  0.2414
 2275TIP3   OH228315   3.892   6.068  13.344 -0.2529  0.4223  0.4071
 2275TIP3    H128316   3.914   6.098  13.256 -0.3404  0.5158  0.4160
 2275TIP3    H228317   3.972   6.026  13.377 -1.0174 -2.2072 -0.8121
 2276TIP3   OH228318   1.363   3.091  17.103  0.0649 -0.2796 -0.4561
 2276TIP3    H128319   1.447   3.113  17.145 -0.3841  0.2833  0.1630
 2276TIP3    H228320   1.369   3.130  17.016  1.1106 -1.6788 -1.0519
 2277TIP3   OH228321   0.867   5.372   5.319  0.1995 -0.0003 -0.0178
 2277TIP3    H128322   0.905   5.434   5.382  0.2852  0.2554 -0.3197
 2277TIP3    H228323   0.916   5.291   5.333 -0.3041 -0.1812  0.7870
 2278TIP3   OH228324   6.406   1.705   1.985  0.6131 -0.4956 -0.2822
 2278TIP3    H128325   6.339   1.652   1.943 -1.2471  1.4182  0.0745
 2278TIP3    H228326   6.402   1.680   2.078 -0.2831  0.2227 -0.1096
 2279TIP3   OH228327   4.498   6.152   4.492  0.1051 -0.3980  0.4369
 2279TIP3    H128328   4.511   6.184   4.582 -0.7818 -0.3731  0.5598
 2279TIP3    H228329   4.451   6.222   4.448 -1.2572 -1.2256  0.5194
 2280TIP3   OH228330   0.851   1.248  15.640 -0.4604  0.2435  0.1721
 2280TIP3    H128331   0.848   1.286  15.728  1.0118  0.0804  0.3167
 2280TIP3    H228332   0.830   1.321  15.582 -0.3154  0.6298  0.5961
 2281TIP3   OH228333   6.444   5.319   4.242 -0.0557 -0.1766  0.6550
 2281TIP3    H128334   6.518   5.367   4.204 -1.9327  1.7823 -0.7953
 2281TIP3    H228335   6.475   5.228   4.249  1.9724  0.2817 -1.3011
 2282TIP3   OH228336   0.143   6.612  13.205  0.4815  0.4884  0.0299
 2282TIP3    H128337   0.174   6.694  13.244  0.1331  0.3782  0.5608
 2282TIP3    H228338   0.076   6.639  13.143  1.7351  0.7389 -1.2497
 2283TIP3   OH228339   2.916   3.457  13.992  0.4683  0.2222 -0.3131
 2283TIP3    H128340   2.973   3.416  13.927  0.9302 -0.3388  0.4289
 2283TIP3    H228341   2.976   3.503  14.051  0.0808  0.4480 -0.0903
 2284TIP3   OH228342   0.258   2.242   3.345 -0.3222 -0.3672  0.0874
 2284TIP3    H128343   0.209   2.263   3.265 -0.7922 -0.0469  0.4532
 2284TIP3    H228344   0.212   2.166   3.382 -0.4764 -0.1392  0.3701
 2285TIP3   OH228345   2.937   1.896   0.265  0.1616 -0.0183 -0.1248
 2285TIP3    H128346   2.871   1.827   0.270  0.4319 -0.2896 -0.2381
 2285TIP3    H228347   2.895   1.968   0.218 -0.2419  0.0348  0.3124
 2286TIP3   OH228348   1.691   1.412   0.081 -0.4323  0.1317 -0.0746
 2286TIP3    H128349   1.610   1.375   0.044 -1.2257  1.6413  0.0934
 2286TIP3    H228350   1.733   1.456   0.007 -0.6804  0.8872  0.2301
 2287TIP3   OH228351   1.905   0.418  16.313  0.4653 -0.1258  0.1563
 2287TIP3    H128352   1.896   0.336  16.361 -0.1489 -0.1864 -0.0580
 2287TIP3    H228353   1.840   0.477  16.353 -2.9108 -1.3317 -3.0142
 2288TIP3   OH228354   5.606   3.215  12.771 -0.1561 -0.0768 -0.2084
 2288TIP3    H128355   5.572   3.180  12.854  0.8669  0.1309  0.3156
 2288TIP3    H228356   5.536   3.199  12.708 -0.6345 -0.9679  0.5229
 2289TIP3   OH228357   0.403   4.709   0.830 -0.4594  0.7002  0.2081
 2289TIP3    H128358   0.335   4.670   0.885 -1.3057  1.0335 -0.5883
 2289TIP3    H228359   0.469   4.738   0.893 -2.1511  2.5809  1.2426
 2290TIP3   OH228360   2.702   1.142  16.526  0.5503  0.2800  0.2903
 2290TIP3    H128361   2.717   1.056  16.485  0.1102 -0.2165  1.1372
 2290TIP3    H228362   2.612   1.138  16.558 -0.8677  2.4806 -2.9308
 2291TIP3   OH228363   6.184   0.087  12.244 -0.8901 -0.2127  0.0887
 2291TIP3    H128364   6.264   0.089  12.297 -0.3977  0.2833 -0.6495
 2291TIP3    H228365   6.166   0.179  12.225 -0.3259 -0.4190 -1.6465
 2292TIP3   OH228366   2.801   4.536  16.670 -0.1883  0.2676  0.1546
 2292TIP3    H128367   2.855   4.605  16.631 -2.3766  1.0127 -1.8600
 2292TIP3    H228368   2.719   4.539  16.620 -0.6889 -3.3135  0.4717
 2293TIP3   OH228369   4.675   4.071   0.709  0.2013  0.8267  0.1431
 2293TIP3    H128370   4.627   4.071   0.792  1.2394 -1.8710  0.8504
 2293TIP3    H228371   4.626   4.010   0.653  0.3951  1.3912 -0.6549
 2294TIP3   OH228372   4.630   1.452   2.480  0.7888 -0.4900  0.3264
 2294TIP3    H128373   4.581   1.412   2.551 -0.3183  0.5728  0.1921
 2294TIP3    H228374   4.650   1.541   2.511  0.8271 -0.2188 -0.4407
 2295TIP3   OH228375   6.044   4.267  15.364  0.1434  0.6345 -0.2360
 2295TIP3    H128376   6.027   4.198  15.428 -1.1081 -0.2925 -1.4977
 2295TIP3    H228377   6.134   4.295  15.382 -0.4056  0.9708  2.3920
 2296TIP3   OH228378   5.548   5.037   4.515  0.0320  0.3368  0.4430
 2296TIP3    H128379   5.456   5.044   4.487  0.6077  0.6963 -1.5075
 2296TIP3    H228380   5.547   5.067   4.606 -1.8899 -0.4062  0.7245
 2297TIP3   OH228381   3.905   3.107   4.606  0.2355 -0.8318 -0.5110
 2297TIP3    H128382   3.875   3.158   4.682 -1.2156 -2.2107 -0.1130
 2297TIP3    H228383   3.964   3.167   4.559 -0.2307  0.6718  0.7303
 2298TIP3   OH228384   5.018   0.793   6.438 -0.1931  0.2240 -0.2318
 2298TIP3    H128385   5.083   0.726   6.460 -0.2471 -0.0556 -0.9251
 2298TIP3    H228386   5.055   0.838   6.362 -0.4013  0.6517 -0.0852
 2299TIP3   OH228387   1.090   6.105   4.406  0.3800  0.1215  1.0195
 2299TIP3    H128388   1.123   6.063   4.327 -2.6206 -2.5544  0.9827
 2299TIP3    H228389   1.035   6.177   4.375 -0.6302 -0.7996  0.5947
 2300TIP3   OH228390   3.681   2.273  14.258 -0.1476 -0.1868  0.5551
 2300TIP3    H128391   3.725   2.196  14.291  0.0011 -1.0697 -1.5382
 2300TIP3    H228392   3.713   2.345  14.312  0.4649 -1.4374  1.8963
 2301TIP3   OH228393   4.801   6.720   1.819  0.0989 -0.2760 -0.4111
 2301TIP3    H128394   4.843   6.756   1.897 -1.4683  0.0650  0.3104
 2301TIP3    H228395   4.802   6.626   1.833 -1.9809 -0.1370  1.0418
 2302TIP3   OH228396   5.772   6.091  14.317  0.0037 -0.0540  0.0215
 2302TIP3    H128397   5.683   6.104  14.285 -0.2130 -0.2912  0.5318
 2302TIP3    H228398   5.767   6.016  14.375 -0.1377  1.8653  2.6869
 2303TIP3   OH228399   3.465   5.831  11.953  0.3456  0.2231  0.0446
 2303TIP3    H128400   3.492   5.743  11.925  1.0766  0.8475 -1.3124
 2303TIP3    H228401   3.536   5.861  12.009  0.4364  0.2070 -0.0599
 2304TIP3   OH228402   5.449   2.532  12.649 -0.3715  0.2032  0.0358
 2304TIP3    H128403   5.517   2.526  12.716 -0.7019  1.1929  0.4697
 2304TIP3    H228404   5.496   2.519  12.566 -0.0490 -1.6241  0.4555
 2305TIP3   OH228405   2.851   6.516   0.875 -0.0025 -0.1053  0.0730
 2305TIP3    H128406   2.790   6.446   0.899 -0.1300 -0.1486 -0.3650
 2305TIP3    H228407   2.922   6.510   0.939  0.2121 -0.9296 -0.2290
 2306TIP3   OH228408   6.074   1.411  13.521  0.1544  0.6776  0.6863
 2306TIP3    H128409   6.111   1.358  13.450  0.0716  0.6723  0.6465
 2306TIP3    H228410   6.019   1.349  13.570  1.1732  0.3712  1.4951
 2307TIP3   OH228411   1.396   5.566  13.945  0.0051  0.0620 -0.3781
 2307TIP3    H128412   1.361   5.489  13.900 -0.9224  0.9273 -1.2103
 2307TIP3    H228413   1.470   5.594  13.891  0.4579 -0.3479  0.0260
 2308TIP3   OH228414   5.162   5.040   4.224 -0.2044 -0.1235  0.0748
 2308TIP3    H128415   5.166   4.990   4.142  4.1777 -0.1136  0.0448
 2308TIP3    H228416   5.190   4.977   4.291  0.0682  0.8729  0.9155
 2309TIP3   OH228417   4.962   6.491  17.066 -0.0321  0.6036 -0.8010
 2309TIP3    H128418   5.026   6.434  17.109 -1.3913 -0.7838 -0.5278
 2309TIP3    H228419   4.996   6.580  17.080  0.8052  0.0466  1.0562
 2310TIP3   OH228420   0.261   3.297  13.875 -0.2522 -1.1560 -0.3402
 2310TIP3    H128421   0.337   3.329  13.923 -1.0112 -0.2903  0.3155
 2310TIP3    H228422   0.219   3.376  13.841 -0.0861 -1.7084 -1.9264
 2311TIP3   OH228423   6.037   0.878   5.312  0.1293 -0.1089  0.6482
 2311TIP3    H128424   5.996   0.816   5.253 -0.3117 -0.1106  0.9539
 2311TIP3    H228425   6.129   0.880   5.285 -0.4046  1.2682 -1.2237
 2312TIP3   OH228426   2.839   1.398  12.335  0.7949  0.1017  0.0918
 2312TIP3    H128427   2.801   1.351  12.409  0.0287  1.0804  0.3457
 2312TIP3    H228428   2.932   1.405  12.356  0.6715 -0.0693  0.7195
 2313TIP3   OH228429   6.658   2.362   2.532  0.2567  0.0273 -0.4949
 2313TIP3    H128430   6.617   2.433   2.483  0.9198  1.3231  0.7407
 2313TIP3    H228431   6.719   2.406   2.592  0.3598 -1.5438  0.6298
 2314TIP3   OH228432   0.311   5.464  10.954  0.3619 -0.2748 -0.2535
 2314TIP3    H128433   0.218   5.446  10.970  0.5171  0.0347  1.2003
 2314TIP3    H228434   0.332   5.417  10.874 -1.2635  0.3481 -1.0766
 2315TIP3   OH228435   3.211   2.989   6.787 -0.3853  0.3670  0.2117
 2315TIP3    H128436   3.188   3.081   6.802  0.3664  0.2699  2.3402
 2315TIP3    H228437   3.154   2.940   6.846  1.5317 -0.2348  1.6633
 2316TIP3   OH228438   6.268   0.748   0.395  0.1731 -0.1669 -0.4304
 2316TIP3    H128439   6.342   0.735   0.453  1.7833 -0.6261 -2.4799
 2316TIP3    H228440   6.275   0.839   0.366  1.4420 -0.8659 -2.5050
 2317TIP3   OH228441   2.755   1.928  16.675  0.0818 -0.7443 -0.0889
 2317TIP3    H128442   2.690   1.983  16.632 -0.3263  0.2838  1.7339
 2317TIP3    H228443   2.802   1.987  16.734  1.2179 -1.8979  0.2162
 2318TIP3   OH228444   0.381   0.569  13.173  0.0508  0.3248  0.0411
 2318TIP3    H128445   0.409   0.568  13.081  1.7828  0.8254  0.5228
 2318TIP3    H228446   0.330   0.489  13.183 -2.7945  1.6709 -2.0570
 2319TIP3   OH228447   2.685   3.307   3.934  0.1431  0.1737 -0.5562
 2319TIP3    H128448   2.632   3.278   4.008  0.0403  0.7326 -0.4116
 2319TIP3    H228449   2.692   3.229   3.878  0.7361 -0.4307  0.3273
 2320TIP3   OH228450   4.865   1.080   5.247 -0.0590  0.2942  0.0625
 2320TIP3    H128451   4.811   1.156   5.267  0.5439  1.4036 -2.1799
 2320TIP3    H228452   4.836   1.051   5.160  0.9621 -0.8980  0.0787
 2321TIP3   OH228453   5.666   2.690   0.139 -0.4424  0.2348  0.5266
 2321TIP3    H128454   5.612   2.769   0.149 -1.1082 -0.4590  3.6230
 2321TIP3    H228455   5.750   2.723   0.109 -1.7546  1.6432 -1.9164
 2322TIP3   OH228456   0.521   6.376   4.965  0.3885 -0.4586 -0.1584
 2322TIP3    H128457   0.562   6.405   4.884  0.6382  1.7820  0.6986
 2322TIP3    H228458   0.472   6.452   4.996 -1.3979 -1.9195  0.7501
 2323TIP3   OH228459   6.175   5.026   1.506 -0.3916 -0.0309  0.1042
 2323TIP3    H128460   6.081   5.038   1.491 -0.1448  1.7739 -0.2529
 2323TIP3    H228461   6.214   5.036   1.419  0.2238  0.4941  0.4322
 2324TIP3   OH228462   4.674   0.079  13.355  0.1373  0.2197 -0.2727
 2324TIP3    H128463   4.649  -0.002  13.400 -0.9724  0.3412 -0.6409
 2324TIP3    H228464   4.606   0.092  13.289  2.0760 -0.3227 -2.4980
 2325TIP3   OH228465   5.743   1.916   1.229 -0.0921 -0.0125  0.0775
 2325TIP3    H128466   5.757   1.969   1.151  0.6714 -3.6383 -2.4716
 2325TIP3    H228467   5.650   1.894   1.227  0.3635 -2.0673 -1.3122
 2326TIP3   OH228468   0.027   4.928  16.202 -0.0947 -0.3882 -0.2541
 2326TIP3    H128469   0.074   4.975  16.270  1.1134 -2.5096  0.4490
 2326TIP3    H228470  -0.050   4.892  16.246 -0.3474 -0.1590 -0.4963
 2327TIP3   OH228471   6.735   4.616  12.976  0.3217  0.2979 -0.3116
 2327TIP3    H128472   6.754   4.629  13.069 -0.3828  0.3472 -0.1687
 2327TIP3    H228473   6.678   4.539  12.972 -1.0702  1.2928 -0.5190
 2328TIP3   OH228474   1.811   5.393  12.623  0.2238 -0.1101  0.5512
 2328TIP3    H128475   1.906   5.393  12.630  0.2916  0.3864 -0.2290
 2328TIP3    H228476   1.788   5.302  12.603  0.4070 -0.5185  2.0782
 2329TIP3   OH228477   6.394   3.146  13.044  0.1928 -0.0994 -0.1792
 2329TIP3    H128478   6.351   3.123  13.127  2.8025 -1.0108  1.0321
 2329TIP3    H228479   6.342   3.102  12.977 -1.9974  0.6560  0.9176
 2330TIP3   OH228480   3.453   2.264   5.077 -0.5784  0.6569 -0.4994
 2330TIP3    H128481   3.444   2.349   5.035 -0.9697 -0.1868 -2.2543
 2330TIP3    H228482   3.373   2.253   5.128 -1.1359  0.8329 -1.3094
 2331TIP3   OH228483   1.450   5.823  17.189 -0.2469  0.2100 -0.5180
 2331TIP3    H128484   1.448   5.918  17.190  0.3475  0.2363  1.1459
 2331TIP3    H228485   1.442   5.800  17.097  0.8969  1.8967 -1.0833
 2332TIP3   OH228486   4.014   0.388  12.413  0.0325 -0.0950 -0.5979
 2332TIP3    H128487   4.056   0.339  12.485 -0.8874 -0.4085 -0.2640
 2332TIP3    H228488   3.929   0.345  12.401 -0.2486  0.6104 -1.1849
 2333TIP3   OH228489   3.814   6.425   1.750 -0.2848  0.1390  0.4712
 2333TIP3    H128490   3.784   6.370   1.678  0.4197 -0.9690  1.0015
 2333TIP3    H228491   3.871   6.490   1.709 -0.6511  0.1153 -0.0879
 2334TIP3   OH228492   0.054   4.325  17.119  0.5474 -0.5511 -0.4984
 2334TIP3    H128493  -0.017   4.364  17.067  0.9250 -0.2787 -0.8108
 2334TIP3    H228494   0.047   4.367  17.205  1.1724  0.4788 -0.9359
 2335TIP3   OH228495   5.441   3.938  14.652 -0.4368  0.0982 -0.6095
 2335TIP3    H128496   5.378   3.984  14.707 -0.3124 -0.3301 -0.0968
 2335TIP3    H228497   5.523   3.985  14.664 -0.6398  0.6297 -1.2432
 2336TIP3   OH228498   5.486   6.096   5.973 -0.4337  0.2300 -0.2238
 2336TIP3    H128499   5.550   6.137   5.915  0.0875 -1.0960 -0.6280
 2336TIP3    H228500   5.539   6.048   6.037 -1.0141 -0.0695  0.0381
 2337TIP3   OH228501   3.561   1.448  13.697  0.5557  0.4433 -0.6859
 2337TIP3    H128502   3.563   1.359  13.661  1.0534 -0.6425  1.7930
 2337TIP3    H228503   3.471   1.459  13.728  0.6496  0.5660 -0.4528
 2338TIP3   OH228504   3.268   5.603   5.314  0.2706  1.0634 -0.2249
 2338TIP3    H128505   3.325   5.678   5.296  0.1450  0.7122 -2.3807
 2338TIP3    H228506   3.188   5.622   5.265  1.2164 -1.6401 -3.1196
 2339TIP3   OH228507   0.127   3.225  16.551  0.1359 -0.5867  0.0860
 2339TIP3    H128508   0.113   3.173  16.629 -0.1209 -3.0983 -1.5164
 2339TIP3    H228509   0.069   3.186  16.485  1.1478  0.6948 -1.6619
 2340TIP3   OH228510   5.157   1.761   3.078  0.6895 -0.5205  0.1536
 2340TIP3    H128511   5.236   1.713   3.052  0.0731 -1.5516  0.1308
 2340TIP3    H228512   5.091   1.693   3.092 -0.3523  0.3494 -0.3410
 2341TIP3   OH228513   4.499   5.276  13.868  0.7387  0.5092  0.2137
 2341TIP3    H128514   4.563   5.205  13.877  1.1604  0.7875 -0.5386
 2341TIP3    H228515   4.417   5.233  13.844  0.6565  0.1591  1.0851
 2342TIP3   OH228516   4.908   2.239  16.358 -0.1824  0.0253 -0.5048
 2342TIP3    H128517   4.923   2.251  16.264 -3.9053  1.2809 -1.1272
 2342TIP3    H228518   4.911   2.328  16.394  0.7600 -0.4036  0.5032
 2343TIP3   OH228519   4.186   3.210  14.209  0.0494 -0.2631  0.6077
 2343TIP3    H128520   4.098   3.245  14.194  0.1343 -0.8095 -1.3902
 2343TIP3    H228521   4.228   3.211  14.123  2.4773  1.1584  1.6924
 2344TIP3   OH228522   2.736   1.079   4.038  0.5669  0.0266 -0.0442
 2344TIP3    H128523   2.797   1.007   4.054 -0.4852 -0.9048 -0.0704
 2344TIP3    H228524   2.704   1.064   3.948 -0.5785 -0.2086  0.3821
 2345TIP3   OH228525   4.146   0.810   5.264  0.3994 -0.7731 -0.0492
 2345TIP3    H128526   4.201   0.874   5.219  0.9048 -0.8497  0.4382
 2345TIP3    H228527   4.191   0.794   5.347 -1.2406  0.4335  1.1339
 2346TIP3   OH228528   6.459   0.637   2.845  0.1451 -0.1635  0.8569
 2346TIP3    H128529   6.405   0.564   2.817 -2.3616  0.8252  2.7057
 2346TIP3    H228530   6.517   0.654   2.771 -0.2016 -3.0323 -0.1771
 2347TIP3   OH228531   5.546   4.842  13.577  0.1807 -0.1313  0.0664
 2347TIP3    H128532   5.605   4.774  13.608  1.2271  1.1637  1.0602
 2347TIP3    H228533   5.602   4.917  13.559 -1.1456  1.2210  1.2455
 2348TIP3   OH228534   5.188   3.643  13.044 -0.2952  0.5881 -0.8069
 2348TIP3    H128535   5.256   3.598  12.995 -0.0812  1.1899 -1.0691
 2348TIP3    H228536   5.171   3.586  13.120  1.9023  1.3798  0.3525
 2349TIP3   OH228537   2.197   4.757   5.033 -0.2253  0.5129  0.5509
 2349TIP3    H128538   2.264   4.705   4.990 -2.0687 -0.2240 -1.6436
 2349TIP3    H228539   2.127   4.764   4.968 -2.2840  1.2321  2.7048
 2350TIP3   OH228540   0.424   0.466  10.161  0.3682 -0.0569  0.1294
 2350TIP3    H128541   0.359   0.396  10.151  0.4670 -0.1618  0.2309
 2350TIP3    H228542   0.508   0.422  10.155  0.4524  0.2427 -1.3130
 2351TIP3   OH228543   3.221   5.873  11.801  1.1280 -0.6214 -0.1024
 2351TIP3    H128544   3.260   5.820  11.870  2.3745  0.1077 -0.2072
 2351TIP3    H228545   3.268   5.847  11.721  1.0935 -0.0526 -0.3162
 2352TIP3   OH228546   1.046   3.033   6.386 -0.7687 -0.3292 -0.0468
 2352TIP3    H128547   0.980   2.972   6.353 -0.1278 -1.2199  0.2884
 2352TIP3    H228548   1.127   2.983   6.384 -0.1691  0.6265 -0.0669
 2353TIP3   OH228549   3.711   6.425   2.935  0.4990  0.5270 -0.6200
 2353TIP3    H128550   3.692   6.367   3.008  3.4538  0.9442  0.6113
 2353TIP3    H228551   3.627   6.466   2.915 -0.2586  1.3044  3.3441
 2354TIP3   OH228552   0.752   0.206  13.551 -0.1902 -0.6750 -0.3514
 2354TIP3    H128553   0.840   0.193  13.515  1.2970  4.5627  0.4396
 2354TIP3    H228554   0.693   0.164  13.489  2.7215 -4.1697 -1.0917
 2355TIP3   OH228555   5.767   4.861  10.655 -0.2106 -0.5409  0.6168
 2355TIP3    H128556   5.705   4.859  10.728 -2.0559 -0.6602 -0.8960
 2355TIP3    H228557   5.786   4.769  10.637  0.5113 -0.5024  1.1392
 2356TIP3   OH228558   0.224   0.302   4.808  0.5097  0.3165 -0.7567
 2356TIP3    H128559   0.156   0.252   4.854  0.5326  2.2314  1.5201
 2356TIP3    H228560   0.304   0.250   4.819 -0.1008 -0.8578 -1.5585
 2357TIP3   OH228561   0.521   1.539  15.577 -0.5521 -0.3344  0.0784
 2357TIP3    H128562   0.552   1.610  15.633 -0.7801 -0.2895  0.1466
 2357TIP3    H228563   0.598   1.513  15.527 -0.1354 -0.8982  0.9717
 2358TIP3   OH228564   2.410   2.138  16.005  0.2578 -0.4697  0.3035
 2358TIP3    H128565   2.463   2.144  16.084 -0.8493 -2.7017  1.3169
 2358TIP3    H228566   2.321   2.160  16.034  0.1242  0.3641 -0.7045
 2359TIP3   OH228567   4.471   6.722  14.042  0.0739 -0.2098 -0.5341
 2359TIP3    H128568   4.494   6.740  14.133 -3.4327 -0.4312  0.5439
 2359TIP3    H228569   4.515   6.640  14.022  0.5587 -0.3909  1.1051
 2360TIP3   OH228570   5.646   4.567  10.778 -0.3860 -0.2047  0.2232
 2360TIP3    H128571   5.726   4.589  10.730 -0.2926 -2.9140 -1.0068
 2360TIP3    H228572   5.575   4.585  10.716 -0.9227  2.7640  1.5066
 2361TIP3   OH228573   2.304   5.419   3.836  0.1350  0.3275 -0.2559
 2361TIP3    H128574   2.341   5.493   3.788  0.2352 -0.3768 -1.2817
 2361TIP3    H228575   2.216   5.447   3.859  0.5060  1.1401  0.2261
 2362TIP3   OH228576   0.875   1.709   3.085 -0.5642 -0.1566  0.3014
 2362TIP3    H128577   0.816   1.774   3.123 -1.2272 -0.8682  0.5114
 2362TIP3    H228578   0.853   1.708   2.992 -0.7527 -0.2839  0.3473
 2363TIP3   OH228579   4.510   2.964  10.967 -0.5350  0.0155  0.1893
 2363TIP3    H128580   4.553   2.982  10.883 -0.7534  2.8942  0.5788
 2363TIP3    H228581   4.427   2.924  10.944  0.6488 -2.0732 -0.7596
 2364TIP3   OH228582   5.880   6.250  14.781  0.0007 -0.7004  0.0246
 2364TIP3    H128583   5.915   6.246  14.692 -1.4727 -0.1098 -0.6231
 2364TIP3    H228584   5.948   6.212  14.836  0.5816 -1.8871 -1.4626
 2365TIP3   OH228585   0.018   0.501  10.606 -0.1778 -0.3952  0.1630
 2365TIP3    H128586  -0.067   0.492  10.563 -0.5215  1.5771  0.3600
 2365TIP3    H228587   0.079   0.522  10.535 -0.0778 -0.5887  0.1903
 2366TIP3   OH228588   6.737   6.708  10.140  0.3916  0.0261 -0.2982
 2366TIP3    H128589   6.692   6.696  10.056  0.4974 -0.9974 -0.2182
 2366TIP3    H228590   6.777   6.795  10.133  0.3815 -0.0382 -1.3008
 2367TIP3   OH228591   2.349   3.738   1.157  0.4392  0.3099  0.1587
 2367TIP3    H128592   2.425   3.741   1.100  0.2093  2.8390 -0.1451
 2367TIP3    H228593   2.386   3.730   1.245  1.1413  1.8087  0.0436
 2368TIP3   OH228594   1.285   6.421  16.084  0.0041  0.3020  0.1734
 2368TIP3    H128595   1.315   6.370  16.009 -1.7507  0.2043 -0.5125
 2368TIP3    H228596   1.324   6.378  16.160  0.0274 -0.9438 -0.5240
 2369TIP3   OH228597   1.679   5.989   4.561 -0.4057  0.1244  0.6491
 2369TIP3    H128598   1.720   6.069   4.529 -0.9901  0.1172 -0.1495
 2369TIP3    H228599   1.751   5.939   4.599  0.8391 -0.8353 -2.5850
 2370TIP3   OH228600   3.200   5.769  16.528 -0.5596  0.0140  0.5421
 2370TIP3    H128601   3.142   5.752  16.454  0.3330  0.0561 -0.1869
 2370TIP3    H228602   3.162   5.845  16.571 -0.5761  0.5652 -0.4194
 2371TIP3   OH228603   2.510   0.003   4.027  0.3372  0.1637  0.4466
 2371TIP3    H128604   2.530   0.014   4.120  2.5820  2.4532 -0.1906
 2371TIP3    H228605   2.594  -0.013   3.986 -0.3524  0.9509 -1.3899
 2372TIP3   OH228606   6.768   5.741  16.502 -0.2875  0.8204 -0.0435
 2372TIP3    H128607   6.733   5.829  16.488 -1.0028  0.5488 -0.0274
 2372TIP3    H228608   6.862   5.750  16.486 -0.3817  1.5372 -0.2605
 2373TIP3   OH228609   0.848   1.595   0.543  0.3385 -0.1429  0.1462
 2373TIP3    H128610   0.777   1.633   0.490  1.0808 -1.4559 -1.9352
 2373TIP3    H228611   0.925   1.599   0.486  1.9091  0.8442  2.1847
 2374TIP3   OH228612   4.101   3.991   5.220 -0.5857  0.1480  0.1315
 2374TIP3    H128613   4.115   3.900   5.195 -0.3850 -0.5850  2.7154
 2374TIP3    H228614   4.180   4.016   5.269 -0.5923  1.7668 -0.5936
 2375TIP3   OH228615   6.559   0.189  13.362  0.1760 -0.4543 -0.7238
 2375TIP3    H128616   6.491   0.166  13.299  0.2112 -2.1212 -0.1821
 2375TIP3    H228617   6.514   0.195  13.446  0.6646 -1.5657 -0.3629
 2376TIP3   OH228618   2.489   1.759   2.749  0.0320  0.0015  0.3612
 2376TIP3    H128619   2.436   1.679   2.741 -1.7285  1.0431  1.0049
 2376TIP3    H228620   2.435   1.827   2.710  1.8772  0.7766 -0.9612
 2377TIP3   OH228621   4.815   4.812   3.944  0.0244 -0.8104 -0.8664
 2377TIP3    H128622   4.884   4.758   3.983  0.0303 -2.0949 -2.5432
 2377TIP3    H228623   4.860   4.894   3.921  0.5302 -0.8954 -0.1926
 2378TIP3   OH228624   0.304   5.166  11.574 -0.2990  0.0711  0.2860
 2378TIP3    H128625   0.360   5.161  11.652 -0.3043  1.2706  0.3822
 2378TIP3    H228626   0.217   5.141  11.607 -0.2859  0.4921  0.6488
 2379TIP3   OH228627   5.712   5.303   4.258  0.4072  0.2692 -0.0670
 2379TIP3    H128628   5.752   5.238   4.317 -1.0949 -1.2833 -0.6610
 2379TIP3    H228629   5.653   5.353   4.315 -0.2097 -0.4904 -0.0210
 2380TIP3   OH228630   5.649   4.103   4.277  0.7724  0.1671  0.3304
 2380TIP3    H128631   5.586   4.079   4.345  0.9070 -2.6369 -0.4157
 2380TIP3    H228632   5.602   4.166   4.223 -0.6017 -0.1820  1.0648
 2381TIP3   OH228633   5.286   5.797  15.119 -0.2522 -0.1891  0.2497
 2381TIP3    H128634   5.200   5.791  15.077 -0.7599  1.1299  1.0492
 2381TIP3    H228635   5.332   5.718  15.090 -0.9275  0.1642 -1.9561
 2382TIP3   OH228636   5.367   3.602  17.133  0.7090 -0.2600  0.4402
 2382TIP3    H128637   5.334   3.626  17.046  0.4741 -0.4090  0.4868
 2382TIP3    H228638   5.288   3.581  17.183  0.8957 -0.9181  0.4658
 2383TIP3   OH228639   0.069   0.049  16.288  0.5267  0.4955  0.3061
 2383TIP3    H128640   0.017  -0.016  16.335  0.0757  1.3092  0.9804
 2383TIP3    H228641   0.028   0.056  16.202  1.5598 -1.2527 -0.3738
 2384TIP3   OH228642   6.771   1.036   1.075 -0.7358 -0.1616  0.3280
 2384TIP3    H128643   6.856   0.996   1.058  0.0777  1.3196  0.7049
 2384TIP3    H228644   6.772   1.056   1.168 -0.9622  1.0031  0.0986
 2385TIP3   OH228645   6.550   5.677  11.965 -0.2190 -0.6936  0.2076
 2385TIP3    H128646   6.531   5.611  12.031  1.2308 -0.0208  1.3477
 2385TIP3    H228647   6.562   5.628  11.884  1.2131 -1.9063  1.1092
 2386TIP3   OH228648   2.480   2.499  12.425  0.4328  0.5182 -0.2919
 2386TIP3    H128649   2.539   2.445  12.477  0.4541 -1.5879 -2.3795
 2386TIP3    H228650   2.537   2.566  12.386  0.9221  0.2489 -0.0455
 2387TIP3   OH228651   5.209   5.809  12.072  0.9515  0.4743 -0.5642
 2387TIP3    H128652   5.272   5.791  12.142  0.6462 -0.8227 -0.5989
 2387TIP3    H228653   5.157   5.730  12.066 -0.3141  1.3082 -0.9405
 2388TIP3   OH228654   4.503   4.628  12.635  0.1269 -0.4084  0.0661
 2388TIP3    H128655   4.578   4.574  12.655  0.6712  0.4156  0.3195
 2388TIP3    H228656   4.525   4.672  12.552  0.3332  0.5221  0.5943
 2389TIP3   OH228657   6.378   1.529  16.930 -0.6377  0.3798  0.7833
 2389TIP3    H128658   6.327   1.497  16.855 -1.9948  0.9822  1.4045
 2389TIP3    H228659   6.441   1.460  16.948  0.4094  0.6714 -1.5411
 2390TIP3   OH228660   3.025   1.611   5.462 -0.4154 -0.1921  0.2170
 2390TIP3    H128661   3.001   1.695   5.501 -0.5408 -0.1528  0.0576
 2390TIP3    H228662   3.084   1.570   5.526 -0.2851  0.0545  0.2558
 2391TIP3   OH228663   0.300   1.686  16.341  0.5412  0.0679 -0.2502
 2391TIP3    H128664   0.298   1.681  16.245  0.0382 -0.4925 -0.2143
 2391TIP3    H228665   0.209   1.678  16.368  0.8696 -2.3605  0.3841
 2392TIP3   OH228666   1.376   3.671   0.763  0.1711  0.7796  0.9208
 2392TIP3    H128667   1.391   3.764   0.776  0.3581  0.6481  1.7569
 2392TIP3    H228668   1.289   3.655   0.801 -2.0611  1.4116 -3.2734
 2393TIP3   OH228669   0.596   4.524   6.528 -0.3344 -0.3119  0.2547
 2393TIP3    H128670   0.551   4.543   6.610  0.4058 -0.0159  0.6025
 2393TIP3    H228671   0.641   4.605   6.505  0.3083 -0.7049  0.1030
 2394TIP3   OH228672   5.875   6.097  13.288  0.1195 -0.0832  0.1218
 2394TIP3    H128673   5.919   6.045  13.355 -0.2490  0.1970  0.5887
 2394TIP3    H228674   5.876   6.187  13.322  1.6883  0.4358 -1.1431
 2395TIP3   OH228675   1.567   6.399   5.367 -0.6836 -0.5337  0.0342
 2395TIP3    H128676   1.593   6.459   5.436  0.6643  1.2363 -1.8722
 2395TIP3    H228677   1.598   6.314   5.396  1.6825  0.4937  0.7524
 2396TIP3   OH228678   3.028   1.952   5.253  0.3798 -0.5170 -0.6238
 2396TIP3    H128679   3.040   1.907   5.336  1.8717  0.8509 -0.0475
 2396TIP3    H228680   3.113   1.944   5.209  1.4846  3.3536  0.3988
 2397TIP3   OH228681   0.899   6.673  15.897 -0.0014  0.3268 -0.1664
 2397TIP3    H128682   0.924   6.673  15.805 -0.4376 -2.7609 -0.3916
 2397TIP3    H228683   0.804   6.661  15.896 -0.1883  1.4959  0.7312
 2398TIP3   OH228684   2.652   4.493   6.086  0.0481 -0.5734  0.0498
 2398TIP3    H128685   2.690   4.459   6.004 -0.9168 -1.0572 -0.2048
 2398TIP3    H228686   2.699   4.445   6.154  0.4445 -0.5990 -0.2319
 2399TIP3   OH228687   2.110   2.961   1.753  0.4010  0.2733 -0.1651
 2399TIP3    H128688   2.101   2.917   1.668  0.1464  2.8140 -1.5516
 2399TIP3    H228689   2.021   2.990   1.774  0.7114  0.9469  0.2392
 2400TIP3   OH228690   2.193   1.200  13.972 -0.5844  0.1023 -0.3112
 2400TIP3    H128691   2.129   1.213  14.042 -0.7355  0.2103 -0.4678
 2400TIP3    H228692   2.193   1.284  13.925 -2.0081 -0.6122 -1.7111
 2401TIP3   OH228693   1.735   3.461  15.733  0.3813 -0.3867  0.6318
 2401TIP3    H128694   1.671   3.390  15.727 -0.0111  0.0861 -1.5923
 2401TIP3    H228695   1.799   3.431  15.797 -0.9471 -1.7732  1.3560
 2402TIP3   OH228696   0.609   5.699   3.646 -0.0332  0.0117  0.3625
 2402TIP3    H128697   0.560   5.637   3.701 -1.3450 -1.7471 -2.5487
 2402TIP3    H228698   0.698   5.695   3.680 -0.9033 -0.3574  2.8178
 2403TIP3   OH228699   2.364   5.281  12.482  0.5092  0.0133  0.1496
 2403TIP3    H128700   2.319   5.205  12.444 -1.9574  1.1137  0.6615
 2403TIP3    H228701   2.404   5.248  12.563 -0.1108 -0.8545  0.1134
 2404TIP3   OH228702   5.008   1.092   3.888 -0.1115 -0.2495  0.8193
 2404TIP3    H128703   5.057   1.166   3.922  0.9275  0.3403 -1.7564
 2404TIP3    H228704   5.074   1.026   3.867 -0.8472 -1.1636  1.2647
 2405TIP3   OH228705   6.053   1.473   1.362 -0.5558  0.1734 -0.0618
 2405TIP3    H128706   5.996   1.396   1.357 -0.8598  0.4790 -2.6973
 2405TIP3    H228707   6.000   1.545   1.330 -0.6577  1.8753  3.3772
 2406TIP3   OH228708   0.920   6.558   1.110 -0.1515  0.0233  0.0411
 2406TIP3    H128709   0.930   6.628   1.174  0.0469  0.9907 -1.0169
 2406TIP3    H228710   1.010   6.529   1.093 -0.2672 -0.9269  0.9077
 2407TIP3   OH228711   6.520   3.497   1.697 -0.1500 -0.3779 -0.1992
 2407TIP3    H128712   6.528   3.403   1.678 -1.5163 -0.8792  1.3817
 2407TIP3    H228713   6.442   3.503   1.752  0.2524  1.6334  0.2327
 2408TIP3   OH228714   1.741   3.810  13.850 -0.2801  0.1315 -0.0003
 2408TIP3    H128715   1.810   3.801  13.916 -0.8878 -0.1057  0.6225
 2408TIP3    H228716   1.660   3.795  13.899 -0.8963  2.0558 -0.3838
 2409TIP3   OH228717   5.803   1.161  13.160 -0.0298  0.0564  0.2311
 2409TIP3    H128718   5.755   1.212  13.095 -2.1718 -3.3944 -1.1877
 2409TIP3    H228719   5.817   1.076  13.118  0.1028 -1.7551  3.5985
 2410TIP3   OH228720   6.486   4.966  13.016 -0.2957 -0.6359 -0.8227
 2410TIP3    H128721   6.577   4.953  12.991  0.4272  1.4543  0.4926
 2410TIP3    H228722   6.463   5.052  12.979 -1.0383 -0.1698  0.6571
 2411TIP3   OH228723   2.979   6.207  14.611  0.1674  0.5917 -0.1445
 2411TIP3    H128724   2.957   6.221  14.704  1.6571 -1.3816  0.5707
 2411TIP3    H228725   2.941   6.122  14.589  1.1790  0.3120 -0.8684
 2412TIP3   OH228726   4.852   5.011   5.803 -0.2743  0.3198 -0.1837
 2412TIP3    H128727   4.757   5.007   5.787 -0.6061 -0.3927  1.6680
 2412TIP3    H228728   4.876   4.921   5.825  0.5277  0.7717  0.8598
 2413TIP3   OH228729   0.048   0.400  15.455 -0.5992  0.0270  0.0001
 2413TIP3    H128730   0.052   0.495  15.464  0.7542  0.3096 -2.5708
 2413TIP3    H228731   0.081   0.366  15.538  2.8387  1.9417 -0.4129
 2414TIP3   OH228732   2.296   5.077  12.305 -0.2091  0.0640 -0.5909
 2414TIP3    H128733   2.208   5.046  12.282  0.1441 -0.7010 -0.9660
 2414TIP3    H228734   2.343   5.078  12.221  0.8423 -1.8991 -0.0956
 2415TIP3   OH228735   5.280   6.305   2.076 -0.2312 -0.1525 -0.5586
 2415TIP3    H128736   5.200   6.358   2.075  0.1867  0.4838 -1.8685
 2415TIP3    H228737   5.278   6.257   1.993  0.5568 -0.4098 -0.4382
 2416TIP3   OH228738   1.534   1.841   2.664 -0.2000 -0.3303 -0.4530
 2416TIP3    H128739   1.530   1.750   2.693 -0.8559 -0.4296 -0.8440
 2416TIP3    H228740   1.547   1.891   2.744  0.4576 -0.7869 -0.2669
 2417TIP3   OH228741   0.997   4.760   2.219 -0.1115 -0.4518  0.0711
 2417TIP3    H128742   0.927   4.753   2.284 -0.1578 -2.1240 -0.1219
 2417TIP3    H228743   0.963   4.717   2.141  0.7634 -0.3980 -0.3576
 2418TIP3   OH228744   0.021   0.374  14.834  0.1294 -0.3133 -0.2067
 2418TIP3    H128745   0.095   0.411  14.882 -0.1500  2.2904 -1.5923
 2418TIP3    H228746  -0.056   0.400  14.885 -0.1009  1.6384 -1.4327
 2419TIP3   OH228747   5.103   3.739  12.409 -0.1696  0.3633  0.3086
 2419TIP3    H128748   5.119   3.766  12.318 -2.6101  0.2297 -0.2150
 2419TIP3    H228749   5.168   3.670  12.425 -0.4767 -0.4634 -1.7584
 2420TIP3   OH228750   1.748   4.102  12.489 -0.5614 -0.4410  0.7048
 2420TIP3    H128751   1.706   4.145  12.564 -3.2466  1.6447 -1.7768
 2420TIP3    H228752   1.675   4.060  12.442  1.1208 -2.2386 -0.4662
 2421TIP3   OH228753   6.581   5.583  12.393  0.6087  0.1273  0.1453
 2421TIP3    H128754   6.553   5.507  12.444 -0.7269  0.3466 -0.2268
 2421TIP3    H228755   6.596   5.548  12.305  0.4527  0.1978  0.0897
 2422TIP3   OH228756   3.954   5.738  14.536  0.1608  0.0168  0.2857
 2422TIP3    H128757   4.033   5.702  14.575 -0.5842 -1.4263  0.5582
 2422TIP3    H228758   3.922   5.669  14.478 -1.0940  0.4016  0.4796
 2423TIP3   OH228759   0.197   2.376  15.301  0.2057  0.1340 -0.0313
 2423TIP3    H128760   0.270   2.424  15.263 -0.6656  2.4342  1.0395
 2423TIP3    H228761   0.219   2.367  15.393 -0.6491  0.4330  0.2088
 2424TIP3   OH228762   2.382   3.719   5.708 -0.6362  0.0087 -0.4550
 2424TIP3    H128763   2.357   3.795   5.656 -2.0655 -0.2728 -0.2263
 2424TIP3    H228764   2.349   3.644   5.657 -1.4860 -0.3039  0.5213
 2425TIP3   OH228765   2.834   3.447   3.309 -0.2152  0.0056 -0.4347
 2425TIP3    H128766   2.839   3.404   3.394 -2.1667  0.4790 -0.0371
 2425TIP3    H228767   2.885   3.528   3.320  0.2696 -0.3500 -0.0094
 2426TIP3   OH228768   2.646   3.791  11.092  0.0022 -0.0087  0.4460
 2426TIP3    H128769   2.667   3.878  11.059  1.2180  0.7195  2.9282
 2426TIP3    H228770   2.615   3.805  11.181 -0.6881 -2.0667  0.5974
 2427TIP3   OH228771   0.110   6.671  15.427  0.9317  0.2429  0.1948
 2427TIP3    H128772   0.186   6.694  15.373  0.8976 -1.2824 -0.5648
 2427TIP3    H228773   0.130   6.583  15.459 -0.6376 -0.3318 -0.2914
 2428TIP3   OH228774   4.324   5.819  15.817 -0.2084 -0.1393  0.6460
 2428TIP3    H128775   4.269   5.742  15.836  0.7859 -1.4150 -1.2742
 2428TIP3    H228776   4.414   5.786  15.822  0.2190  0.7106 -0.8468
 2429TIP3   OH228777   5.971   0.738   0.027  0.2370  0.3186 -0.4052
 2429TIP3    H128778   5.905   0.776   0.085  1.2292  1.4985  0.0018
 2429TIP3    H228779   5.988   0.806  -0.038 -0.6351 -0.8720 -1.9447
 2430TIP3   OH228780   3.201   3.744   3.750  0.4321 -0.3271 -0.1951
 2430TIP3    H128781   3.216   3.837   3.729  0.3288  0.6721  3.5020
 2430TIP3    H228782   3.252   3.729   3.829 -0.8277 -3.0109  0.2090
 2431TIP3   OH228783   6.274   5.296  11.648  0.3343 -0.3205  0.5047
 2431TIP3    H128784   6.342   5.306  11.714  0.7799  2.6137 -0.2180
 2431TIP3    H228785   6.199   5.345  11.684  0.7490  1.7459 -1.2415
 2432TIP3   OH228786   4.435   1.459   1.662 -0.0394 -0.0770 -0.5980
 2432TIP3    H128787   4.455   1.394   1.596  0.0453  0.3020 -0.9459
 2432TIP3    H228788   4.341   1.447   1.680 -0.1086 -0.0485 -0.9311
 2433TIP3   OH228789   3.596   6.332  12.355 -0.7340  1.3560  0.0467
 2433TIP3    H128790   3.515   6.281  12.363  0.9818 -1.8244 -1.1872
 2433TIP3    H228791   3.654   6.295  12.422  0.5166  1.8579 -0.7334
 2434TIP3   OH228792   0.153   0.884   1.887 -0.2312 -0.1678 -0.0043
 2434TIP3    H128793   0.214   0.844   1.826  0.8580 -1.0051  1.5481
 2434TIP3    H228794   0.190   0.971   1.904 -0.8871  0.3207 -0.9873
 2435TIP3   OH228795   6.598   2.120  17.102 -0.1034 -0.5486  0.6920
 2435TIP3    H128796   6.620   2.213  17.112  0.8796 -0.8260  1.3566
 2435TIP3    H228797   6.506   2.119  17.076  0.1730  0.6450 -0.4407
 2436TIP3   OH228798   6.808   0.968  12.153  0.2995 -0.0739  0.1605
 2436TIP3    H128799   6.889   0.998  12.195 -0.4308  0.2063  1.4288
 2436TIP3    H228800   6.793   1.031  12.082  0.9100  0.1721  0.2386
 2437TIP3   OH228801   2.170   5.790   0.318  0.2306  0.6154  0.1855
 2437TIP3    H128802   2.138   5.861   0.372 -1.2106 -1.6376  2.5417
 2437TIP3    H228803   2.262   5.779   0.343 -0.4274 -0.4265  2.3758
 2438TIP3   OH228804   4.190   6.136  15.550  0.4294  0.2859 -0.0285
 2438TIP3    H128805   4.151   6.132  15.463  1.4311  1.9395 -0.5963
 2438TIP3    H228806   4.157   6.058  15.595  0.1211 -0.7663 -1.9756
 2439TIP3   OH228807   3.842   6.236   2.211  0.3401  1.0247 -0.1348
 2439TIP3    H128808   3.791   6.315   2.192 -0.5780  1.2253  2.7475
 2439TIP3    H228809   3.877   6.250   2.299 -0.0217 -1.8348  0.5548
 2440TIP3   OH228810   3.560   2.940   0.866 -0.2034 -0.3120 -0.3418
 2440TIP3    H128811   3.522   2.869   0.816  1.7245 -2.0931  0.5490
 2440TIP3    H228812   3.578   2.902   0.952 -2.0885  2.2261  1.3021
 2441TIP3   OH228813   5.330   6.151   2.358 -0.3132  0.0775  0.7570
 2441TIP3    H128814   5.309   6.103   2.278 -1.4721  1.7606 -0.0094
 2441TIP3    H228815   5.304   6.092   2.429 -0.6466 -0.8554 -0.1178
 2442TIP3   OH228816   4.540   3.475  14.108  0.1697  0.5521  0.0456
 2442TIP3    H128817   4.491   3.408  14.155 -0.2889 -1.1854 -2.6666
 2442TIP3    H228818   4.498   3.558  14.133 -1.9255 -0.5590  0.4465
 2443TIP3   OH228819   6.120   2.002  11.106 -0.0860  0.1206  0.5941
 2443TIP3    H128820   6.027   1.980  11.114  0.1782 -1.0204  0.7772
 2443TIP3    H228821   6.129   2.085  11.152 -0.8447 -0.2407  1.4304
 2444TIP3   OH228822   1.286   2.567  11.977  0.1901 -0.6643  0.3907
 2444TIP3    H128823   1.331   2.648  11.953  0.4153 -1.1193 -0.8126
 2444TIP3    H228824   1.355   2.502  11.986 -0.1043 -1.0591 -0.1246
 2445TIP3   OH228825   6.410   5.970   4.145 -0.0507  0.8520 -0.2579
 2445TIP3    H128826   6.386   5.925   4.065 -0.1008 -0.1439  0.3086
 2445TIP3    H228827   6.328   5.978   4.194  0.1086  0.7899  0.0220
 2446TIP3   OH228828   4.085   2.371  12.221  0.7604 -0.1479  0.1305
 2446TIP3    H128829   4.162   2.390  12.275  1.4667 -0.9950 -0.5440
 2446TIP3    H228830   4.118   2.368  12.132 -0.0901 -0.3465 -0.1867
 2447TIP3   OH228831   2.283   1.130   0.446  0.3814  0.8275  0.1859
 2447TIP3    H128832   2.243   1.146   0.532  2.0361 -0.8537  1.3747
 2447TIP3    H228833   2.358   1.190   0.443  1.1099 -0.0332  0.5535
 2448TIP3   OH228834   5.157   2.724  13.637  0.3381  0.1871 -0.0928
 2448TIP3    H128835   5.177   2.702  13.546 -1.5693 -1.5562 -0.1603
 2448TIP3    H228836   5.160   2.820  13.640  0.4485  0.2775 -1.9812
 2449TIP3   OH228837   2.435   4.724  13.643 -0.4050  0.2405 -0.7413
 2449TIP3    H128838   2.433   4.664  13.569 -0.8774  0.6758 -1.0890
 2449TIP3    H228839   2.402   4.672  13.717 -4.0037  0.9153 -1.6931
 2450TIP3   OH228840   5.898   5.737  12.784 -1.1962  0.1702 -0.1125
 2450TIP3    H128841   5.951   5.737  12.703 -1.6069 -1.2970 -0.3992
 2450TIP3    H228842   5.809   5.720  12.754 -1.3038 -0.6846  0.6821
 2451TIP3   OH228843   2.723   4.409   5.807  0.1342  0.2695  0.0440
 2451TIP3    H128844   2.724   4.338   5.742 -0.7900  0.1230  0.1820
 2451TIP3    H228845   2.802   4.460   5.788 -0.5950  0.7911 -1.8172
 2452TIP3   OH228846   3.959   5.391   5.583  0.4002 -0.3392  0.2119
 2452TIP3    H128847   3.882   5.393   5.638  1.3752 -0.3648  1.6301
 2452TIP3    H228848   3.932   5.436   5.502 -0.9865 -0.0909  0.7871
 2453TIP3   OH228849   6.370   6.647  10.603  0.7810  0.1095  0.3977
 2453TIP3    H128850   6.290   6.612  10.565  1.4262 -0.5599 -0.4020
 2453TIP3    H228851   6.429   6.659  10.528  1.6357  0.0146  1.0371
 2454TIP3   OH228852   0.141   6.290   0.803  0.3750 -0.3774  0.0836
 2454TIP3    H128853   0.076   6.270   0.870 -0.9663  0.0205 -1.0561
 2454TIP3    H228854   0.131   6.220   0.739  1.7717 -0.8573  0.3428
 2455TIP3   OH228855   5.654   4.377   2.681 -0.0044  0.4022 -0.1454
 2455TIP3    H128856   5.726   4.389   2.743 -0.3741  3.0943 -0.1038
 2455TIP3    H228857   5.618   4.291   2.702  3.8223 -1.5947 -0.9169
 2456TIP3   OH228858   0.317   2.713   0.767  0.5089 -0.5231  0.0111
 2456TIP3    H128859   0.248   2.779   0.773  0.1240 -0.7902 -1.1412
 2456TIP3    H228860   0.350   2.722   0.678  2.5819  0.1794  0.8120
 2457TIP3   OH228861   1.816   6.732  15.461 -0.1424 -0.5920  0.1663
 2457TIP3    H128862   1.899   6.779  15.450  0.5910 -1.0011  3.0510
 2457TIP3    H228863   1.781   6.724  15.372  0.7702  3.3431 -0.7519
 2458TIP3   OH228864   1.557   0.010   3.552  0.0134 -0.2328  0.6044
 2458TIP3    H128865   1.611  -0.069   3.555  0.1740 -0.3681 -2.3224
 2458TIP3    H228866   1.610   0.074   3.503 -0.8627  1.0483  1.2736
 2459TIP3   OH228867   3.109   1.486  10.666 -0.5465 -0.0602  0.0266
 2459TIP3    H128868   3.152   1.556  10.715  1.5589 -1.2580 -0.0023
 2459TIP3    H228869   3.110   1.411  10.724 -0.3836 -0.7803 -0.8763
 2460TIP3   OH228870   1.024   1.877   6.022  0.6375 -0.0920  0.2982
 2460TIP3    H128871   1.110   1.844   5.995  0.8101  1.1432 -0.8301
 2460TIP3    H228872   1.040   1.970   6.041 -0.5275  0.2864 -0.4599
 2461TIP3   OH228873   3.698   1.965  12.981  0.6241  0.8386  0.4437
 2461TIP3    H128874   3.690   1.904  13.055  1.8470  0.1329  0.0205
 2461TIP3    H228875   3.667   1.914  12.906 -1.7273  1.9237  0.5879
 2462TIP3   OH228876   4.607   6.135   0.560  0.1354 -0.3909  0.1988
 2462TIP3    H128877   4.654   6.203   0.511  0.2582 -0.8799 -0.3669
 2462TIP3    H228878   4.576   6.180   0.638 -0.4443  0.5118 -0.5338
 2463TIP3   OH228879   2.250   4.270  12.406 -0.1553 -0.4316 -0.3091
 2463TIP3    H128880   2.232   4.362  12.421 -0.7974 -0.9968  3.7182
 2463TIP3    H228881   2.284   4.238  12.490  0.3155 -3.8020 -1.5935
 2464TIP3   OH228882   6.445   2.635  15.306  0.0636  0.2827 -0.4905
 2464TIP3    H128883   6.518   2.593  15.352 -0.8463 -0.5919  0.1906
 2464TIP3    H228884   6.414   2.569  15.244 -1.5433 -0.2024  0.7662
 2465TIP3   OH228885   2.894   3.326  15.660  0.3594 -0.2853 -0.9467
 2465TIP3    H128886   2.945   3.252  15.628  0.7566 -0.6506  0.4865
 2465TIP3    H228887   2.943   3.403  15.632  2.8491 -0.6227  2.0476
 2466TIP3   OH228888   3.395   0.513   4.897  0.0595 -0.2713 -0.0802
 2466TIP3    H128889   3.391   0.605   4.923 -0.1280  0.0010 -1.0364
 2466TIP3    H228890   3.313   0.497   4.851  0.5893 -0.5801 -0.9453
 2467TIP3   OH228891   5.194   4.533   3.578  0.5042 -0.1467  0.0970
 2467TIP3    H128892   5.231   4.511   3.493  1.6999  1.8831  0.0281
 2467TIP3    H228893   5.099   4.540   3.563  0.3735 -2.3485 -0.4232
 2468TIP3   OH228894   0.565   5.850   1.970  0.2046 -0.0882  0.2875
 2468TIP3    H128895   0.653   5.859   1.933  0.3617 -0.8770  0.4499
 2468TIP3    H228896   0.543   5.938   1.999  0.8590  0.1611  0.0639
 2469TIP3   OH228897   3.868   1.960  13.367 -0.3934 -0.2030 -0.1438
 2469TIP3    H128898   3.814   1.994  13.438  0.8075 -0.8027  1.1036
 2469TIP3    H228899   3.880   2.034  13.308  0.2003  0.9003  1.2934
 2470TIP3   OH228900   6.166   3.392   2.964  0.3581  0.5678 -0.2490
 2470TIP3    H128901   6.104   3.376   3.035  0.6925 -3.6342 -0.6221
 2470TIP3    H228902   6.112   3.428   2.893 -0.8714  0.6565  0.6877
 2471TIP3   OH228903   3.325   5.235  14.212 -0.4918  0.2516 -0.0612
 2471TIP3    H128904   3.371   5.220  14.130 -1.1081 -1.2624 -0.1643
 2471TIP3    H228905   3.243   5.186  14.203 -0.8856  0.6370  1.1739
 2472TIP3   OH228906   6.375   0.147  14.236 -0.0077  0.2783 -0.0570
 2472TIP3    H128907   6.324   0.210  14.186 -3.3884 -0.1724  2.4958
 2472TIP3    H228908   6.394   0.192  14.319 -0.0701 -1.0689  0.7212
 2473TIP3   OH228909   4.273   5.341  12.265  0.0607 -0.6071  0.1297
 2473TIP3    H128910   4.219   5.413  12.299  1.6790  0.4936  0.4818
 2473TIP3    H228911   4.238   5.324  12.178 -2.7880 -2.0111  1.3906
 2474TIP3   OH228912   1.038   5.080   3.322  0.0716 -0.9494  0.0948
 2474TIP3    H128913   1.015   5.106   3.412  2.2717  0.6713  0.2750
 2474TIP3    H228914   1.069   5.161   3.281  0.8590 -2.0280 -1.5357
 2475TIP3   OH228915   5.102   3.924   1.900 -0.1320 -0.1069  0.3490
 2475TIP3    H128916   5.128   3.994   1.841  0.4892  1.2861  2.1688
 2475TIP3    H228917   5.046   3.967   1.965  0.2032 -1.2884  1.4805
 2476TIP3   OH228918   5.403   4.710  15.964 -0.1532 -0.0285  0.4435
 2476TIP3    H128919   5.419   4.697  16.057  0.5408 -2.7719  0.0026
 2476TIP3    H228920   5.418   4.804  15.951 -1.5678  0.7247  3.2881
 2477TIP3   OH228921   3.196   5.520  11.370  0.0592 -0.4648 -0.1979
 2477TIP3    H128922   3.179   5.575  11.293 -1.3742 -1.8818 -0.9532
 2477TIP3    H228923   3.146   5.562  11.441 -0.5187 -0.4355 -0.6138
 2478TIP3   OH228924   5.612   4.142  16.069  0.9918  0.0423 -0.1887
 2478TIP3    H128925   5.599   4.218  16.125 -2.0359 -0.5367  0.1001
 2478TIP3    H228926   5.629   4.070  16.129  2.6168  0.2270 -0.3863
 2479TIP3   OH228927   3.155   6.275  15.427 -0.1762 -0.1885  0.2390
 2479TIP3    H128928   3.126   6.184  15.426 -0.0015 -0.2553 -0.9005
 2479TIP3    H228929   3.074   6.326  15.417 -0.1427 -0.2828 -0.5672
 2480TIP3   OH228930   5.086   5.004  14.087 -0.3599 -0.0770  0.2562
 2480TIP3    H128931   5.109   4.962  14.004  0.0538 -2.3141  1.4193
 2480TIP3    H228932   5.169   5.008  14.135 -0.3837  2.1616  0.2209
 2481TIP3   OH228933   3.198   0.126  12.878  0.0023  0.6367  0.0707
 2481TIP3    H128934   3.279   0.103  12.924  0.2170  0.7993 -0.2264
 2481TIP3    H228935   3.227   0.161  12.794 -0.4130 -0.6922 -0.6585
 2482TIP3   OH228936   1.285   6.713   0.744 -0.1919 -0.3597  0.0777
 2482TIP3    H128937   1.210   6.659   0.717 -1.0224  1.7784 -2.3280
 2482TIP3    H228938   1.255   6.756   0.825 -1.5883  0.3817 -0.7880
 2483TIP3   OH228939   4.527   2.297   6.979  0.2777 -0.2779  0.0227
 2483TIP3    H128940   4.501   2.205   6.968 -1.3360  0.3583 -1.9890
 2483TIP3    H228941   4.574   2.318   6.899  0.5367  0.6897  0.4199
 2484TIP3   OH228942   6.794   2.364   3.407 -0.2988 -0.1846 -0.6322
 2484TIP3    H128943   6.798   2.410   3.491 -0.4229 -3.1025  1.1018
 2484TIP3    H228944   6.700   2.359   3.387 -0.4051 -1.0299  0.0201
 2485TIP3   OH228945   3.661   1.655  13.542  0.5918  0.7407  0.2186
 2485TIP3    H128946   3.720   1.607  13.483  1.2451  2.0658 -0.2387
 2485TIP3    H228947   3.693   1.635  13.630  1.8505  1.5881 -0.0321
 2486TIP3   OH228948   3.500   3.320  14.000 -0.1759 -0.2781  0.2048
 2486TIP3    H128949   3.561   3.305  14.072  0.5110 -1.9667 -0.6838
 2486TIP3    H228950   3.513   3.412  13.977  2.3046 -0.6462 -0.1412
 2487TIP3   OH228951   3.006   5.055  11.051 -0.5945 -0.1892 -0.2507
 2487TIP3    H128952   3.034   5.134  11.099  0.3300 -0.4070 -0.4082
 2487TIP3    H228953   2.921   5.078  11.015 -0.5761  0.5547  0.1510
 2488TIP3   OH228954   6.559   5.067  16.407  0.2457  0.3532 -0.5840
 2488TIP3    H128955   6.483   5.115  16.375  0.4937  0.6555 -0.7234
 2488TIP3    H228956   6.629   5.090  16.347  0.6612  0.7473  0.0442
 2489TIP3   OH228957   1.113   0.313   3.201 -0.7539  0.3433 -0.2224
 2489TIP3    H128958   1.099   0.395   3.247  1.4472 -0.5851  2.3797
 2489TIP3    H228959   1.088   0.245   3.264  0.9493 -0.9881 -0.9010
 2490TIP3   OH228960   3.700   5.133  16.193 -0.4585 -0.2738  0.0302
 2490TIP3    H128961   3.609   5.123  16.223 -0.6628 -2.4454 -1.1580
 2490TIP3    H228962   3.747   5.161  16.271 -1.8951 -0.5288  1.0417
 2491TIP3   OH228963   5.824   5.525   3.215 -0.4050  0.3759 -0.3085
 2491TIP3    H128964   5.744   5.555   3.172 -0.3319  0.3661 -0.4532
 2491TIP3    H228965   5.816   5.555   3.306 -0.1180  1.2486 -0.5572
 2492TIP3   OH228966   5.735   1.863   5.651 -0.3358 -0.2735 -0.0764
 2492TIP3    H128967   5.775   1.781   5.681 -0.9517 -0.3320  0.6238
 2492TIP3    H228968   5.642   1.841   5.639 -0.0037 -0.5087 -2.9977
 2493TIP3   OH228969   0.249   4.687   0.373 -0.4442  0.3501 -0.2034
 2493TIP3    H128970   0.338   4.703   0.403 -0.4370  0.4167 -0.2587
 2493TIP3    H228971   0.252   4.703   0.279 -0.4625  0.1254 -0.2425
 2494TIP3   OH228972   6.669   0.375   0.418  0.6174 -0.2827 -0.0909
 2494TIP3    H128973   6.624   0.298   0.383 -0.0746  0.2054 -0.3119
 2494TIP3    H228974   6.673   0.359   0.512 -1.4810  0.3591  0.1614
 2495TIP3   OH228975   2.602   2.827  13.031 -0.1916  0.2209  0.5394
 2495TIP3    H128976   2.687   2.784  13.019 -1.1839 -1.5579 -0.5825
 2495TIP3    H228977   2.562   2.782  13.105 -0.6095  0.2712  0.3479
 2496TIP3   OH228978   4.526   6.067   1.332  0.9804  0.2558  0.0959
 2496TIP3    H128979   4.565   6.054   1.418  1.1114  1.5541  0.2406
 2496TIP3    H228980   4.439   6.103   1.350  0.1567 -1.4363 -0.2661
 2497TIP3   OH228981   0.609   1.826   0.691  0.3836 -0.3940 -0.2106
 2497TIP3    H128982   0.522   1.813   0.729  0.4240 -0.2872 -0.0816
 2497TIP3    H228983   0.595   1.892   0.622  0.1797 -1.1043 -0.8628
 2498TIP3   OH228984   1.276   3.784  14.477  0.6563  0.1540  0.2494
 2498TIP3    H128985   1.317   3.793  14.391 -0.0468  0.0889 -0.0934
 2498TIP3    H228986   1.183   3.795  14.461  0.4834 -0.2321  0.9485
 2499TIP3   OH228987   6.293   4.031  15.021  0.1852  0.2496 -0.5867
 2499TIP3    H128988   6.386   4.040  15.003  0.3686 -1.3038 -0.4922
 2499TIP3    H228989   6.259   3.978  14.949 -0.0401 -1.6880  0.8609
 2500TIP3   OH228990   1.344   0.535  12.977  0.1796  0.3120  0.0441
 2500TIP3    H128991   1.249   0.527  12.969  0.1270  0.6745  0.3173
 2500TIP3    H228992   1.359   0.625  13.004  0.6304  0.3849 -0.4253
 2501TIP3   OH228993   2.522   4.844   3.806  0.6657 -0.5312  0.3273
 2501TIP3    H128994   2.599   4.900   3.799  0.0508  0.1677 -1.3351
 2501TIP3    H228995   2.532   4.800   3.891  0.9335  2.4512  1.9955
 2502TIP3   OH228996   5.178   0.572  12.480  0.1417  0.6765 -0.2412
 2502TIP3    H128997   5.268   0.563  12.448 -0.2005 -1.7495 -0.7316
 2502TIP3    H228998   5.188   0.616  12.565  1.7350  0.8749 -0.4870
 2503TIP3   OH228999   5.737   2.796   5.069 -0.2227 -0.2976  0.2186
 2503TIP3    H129000   5.807   2.861   5.073 -0.9507  0.5096  0.0802
 2503TIP3    H229001   5.771   2.722   5.119  0.5756  0.2323  0.4840
 2504TIP3   OH229002   0.559   5.362  14.089  0.7996  0.0522 -0.2596
 2504TIP3    H129003   0.493   5.301  14.122 -0.2021  2.2624  2.1612
 2504TIP3    H229004   0.532   5.380  13.999 -1.2535  0.0185  0.3023
 2505TIP3   OH229005   3.241   2.125  15.134 -0.3899 -0.1491 -0.2335
 2505TIP3    H129006   3.224   2.136  15.041  0.3407  0.9394 -0.2583
 2505TIP3    H229007   3.272   2.210  15.163  0.9926 -0.9098  0.6466
 2506TIP3   OH229008   4.584   4.360  13.476  0.0939 -0.7681  0.3837
 2506TIP3    H129009   4.517   4.427  13.464  1.5407  0.7398  0.3327
 2506TIP3    H229010   4.535   4.280  13.497 -1.7525 -0.0332 -0.8801
 2507TIP3   OH229011   2.590   5.572  12.938 -0.4316 -0.2001 -0.1955
 2507TIP3    H129012   2.663   5.547  12.995 -0.4199 -0.3904 -0.2946
 2507TIP3    H229013   2.604   5.522  12.858 -0.3237  0.2374 -0.4499
 2508TIP3   OH229014   5.508   6.340  14.443 -0.0669 -0.5423  0.5265
 2508TIP3    H129015   5.509   6.255  14.400  0.6007 -0.6806  0.7929
 2508TIP3    H229016   5.587   6.384  14.411  0.0583 -0.3693  1.0630
 2509TIP3   OH229017   0.471   2.290   4.998 -0.5413  0.0614 -0.3899
 2509TIP3    H129018   0.431   2.210   5.033  1.2322 -1.6399 -2.0339
 2509TIP3    H229019   0.415   2.315   4.924  0.0493 -0.9193 -1.1869
 2510TIP3   OH229020   3.773   1.570  15.443 -0.2309  0.4322 -0.2175
 2510TIP3    H129021   3.697   1.526  15.480  0.0501  0.5420  0.5034
 2510TIP3    H229022   3.752   1.663  15.447  0.2232  0.5074  0.6497
 2511TIP3   OH229023   1.101   1.170  12.627 -0.1454 -0.3959 -0.0157
 2511TIP3    H129024   1.035   1.141  12.690  0.1143 -0.2678  0.3175
 2511TIP3    H229025   1.075   1.260  12.605  0.1382 -0.2090  0.4113
 2512TIP3   OH229026   1.608   6.041   3.292 -0.5576  0.0271  0.0702
 2512TIP3    H129027   1.694   6.071   3.320 -0.8363 -0.4557  1.5436
 2512TIP3    H229028   1.548   6.076   3.358 -1.5546  0.6656 -1.1347
 2513TIP3   OH229029   2.839   1.850  15.545 -0.3132 -0.3149  0.2131
 2513TIP3    H129030   2.923   1.887  15.573 -0.7894 -0.4377  1.8975
 2513TIP3    H229031   2.862   1.768  15.501  0.3746 -1.6256  2.8357
 2514TIP3   OH229032   2.344   4.890  15.606  0.4966  0.9220 -0.5569
 2514TIP3    H129033   2.282   4.823  15.576  2.4683 -0.8875 -0.8000
 2514TIP3    H229034   2.352   4.874  15.700  2.9252 -1.0170 -1.0022
 2515TIP3   OH229035   5.030   5.965   1.693 -0.7690 -0.2210 -0.1330
 2515TIP3    H129036   4.943   5.998   1.715 -0.8135 -0.2373 -0.2810
 2515TIP3    H229037   5.055   5.910   1.767 -1.3173 -1.0455 -0.5494
 2516TIP3   OH229038   5.544   2.333  11.764  0.0368 -0.1470  0.7088
 2516TIP3    H129039   5.560   2.270  11.834  0.7119  1.8943  2.5298
 2516TIP3    H229040   5.632   2.360  11.736 -0.2171  0.7917  0.7767
 2517TIP3   OH229041   4.875   5.760  12.002 -0.4598 -0.1907  0.5734
 2517TIP3    H129042   4.781   5.777  11.997 -0.4924 -0.2958  0.8067
 2517TIP3    H229043   4.894   5.705  11.926 -0.3981  0.6746 -0.0457
 2518TIP3   OH229044   3.579   4.531   1.660 -0.5085  0.0174 -0.4119
 2518TIP3    H129045   3.530   4.495   1.734 -0.9579 -1.9203 -1.5634
 2518TIP3    H229046   3.655   4.473   1.651 -0.0016  0.7473 -0.9330
 2519TIP3   OH229047   0.121   1.418  13.500  0.3947  0.6892  0.4552
 2519TIP3    H129048   0.063   1.343  13.489  0.0166  0.9885  0.4145
 2519TIP3    H229049   0.192   1.385  13.556  0.3064  0.2611  0.3174
 2520TIP3   OH229050   3.330   3.231  17.144 -0.1908  1.0574 -0.0371
 2520TIP3    H129051   3.291   3.203  17.227  1.0463 -2.3998 -0.4606
 2520TIP3    H229052   3.286   3.178  17.078  1.4554  0.9539 -1.1020
 2521TIP3   OH229053   1.634   0.443  14.671 -0.5749  0.0712  0.7669
 2521TIP3    H129054   1.563   0.410  14.726 -0.6596  0.6343  1.0045
 2521TIP3    H229055   1.675   0.513  14.723  0.6677 -0.7698  0.9666
 2522TIP3   OH229056   6.515   4.693   2.603  0.2467  0.3179  0.4034
 2522TIP3    H129057   6.563   4.613   2.582  0.3197  0.1782  1.0574
 2522TIP3    H229058   6.424   4.672   2.579  0.8579  1.7128 -3.9412
 2523TIP3   OH229059   6.121   0.591  10.373  0.5468  0.1406 -0.3040
 2523TIP3    H129060   6.213   0.586  10.402  0.5219 -0.0401 -0.2552
 2523TIP3    H229061   6.121   0.661  10.308  0.5812  0.6407  0.2285
 2524TIP3   OH229062   0.273   5.454  17.049 -0.2788  0.3300 -0.0641
 2524TIP3    H129063   0.223   5.443  16.968 -0.4094 -0.5563  0.1216
 2524TIP3    H229064   0.319   5.370  17.060 -1.0554  0.0512  1.3060
 2525TIP3   OH229065   4.906   1.024  15.250 -0.2368  0.2776 -0.3710
 2525TIP3    H129066   4.890   1.113  15.219 -1.3664 -0.3682 -1.7306
 2525TIP3    H229067   4.975   1.034  15.316 -0.8473  2.2326  0.0421
 2526TIP3   OH229068   6.506   3.551  15.362  0.3210 -0.7222 -0.3231
 2526TIP3    H129069   6.443   3.590  15.423 -0.4039 -1.5948 -0.5055
 2526TIP3    H229070   6.461   3.550  15.278  1.4263  0.7592 -0.9945
 2527TIP3   OH229071   4.511   2.048  12.658 -0.4389  0.2080 -0.3762
 2527TIP3    H129072   4.427   2.008  12.681  0.3841 -0.9862  0.6842
 2527TIP3    H229073   4.544   2.084  12.741 -0.0440  0.9778 -0.8477
 2528TIP3   OH229074   0.154   5.338   1.661  0.0253 -0.0956  0.4133
 2528TIP3    H129075   0.091   5.270   1.638 -1.4252  1.0172  0.8833
 2528TIP3    H229076   0.119   5.417   1.621  0.6288  0.7330  1.4643
 2529TIP3   OH229077   5.123   4.887  11.794  0.0038  0.1243  0.6205
 2529TIP3    H129078   5.133   4.792  11.783 -0.7887  0.1918 -1.0861
 2529TIP3    H229079   5.059   4.896  11.865 -0.3094 -0.6507  0.4480
 2530TIP3   OH229080   3.338   0.980   2.644 -1.0322  0.2171 -0.0477
 2530TIP3    H129081   3.419   1.032   2.638 -1.1520  0.5886  1.2746
 2530TIP3    H229082   3.336   0.950   2.734 -2.1408 -0.1973 -0.2037
 2531TIP3   OH229083   0.157   0.591  14.197  0.1332  0.0910 -0.6867
 2531TIP3    H129084   0.222   0.659  14.178 -0.1741  0.9526  1.0594
 2531TIP3    H229085   0.109   0.626  14.272 -1.3667 -1.1939 -1.0148
 2532TIP3   OH229086   2.993   0.417   2.286 -0.4476  0.5152 -0.3410
 2532TIP3    H129087   3.040   0.450   2.209  0.6403  1.0403  0.5256
 2532TIP3    H229088   3.010   0.323   2.287  1.7413  0.8771  0.6936
 2533TIP3   OH229089   2.588   3.411  15.295  0.6150  0.0432 -0.0773
 2533TIP3    H129090   2.572   3.356  15.372 -0.4465 -1.6925 -1.4730
 2533TIP3    H229091   2.578   3.500  15.327 -1.7743 -0.6718  1.4184
 2534TIP3   OH229092   2.177   0.338   3.711  0.3582  0.6949  0.1605
 2534TIP3    H129093   2.112   0.269   3.701 -0.3274  1.4760 -0.9868
 2534TIP3    H229094   2.226   0.339   3.629  0.9477  1.0049  0.4979
 2535TIP3   OH229095   4.010   3.675   0.032  0.4593 -0.1536 -0.1195
 2535TIP3    H129096   3.991   3.753  -0.019  1.6543  0.1824 -0.0823
 2535TIP3    H229097   4.002   3.602  -0.030 -0.6780 -0.0252 -0.1452
 2536TIP3   OH229098   6.496   3.215   1.104  0.0674 -0.1784 -0.4154
 2536TIP3    H129099   6.456   3.221   1.017 -0.5307 -1.3660 -0.2319
 2536TIP3    H229100   6.452   3.284   1.154  1.3276  1.3910 -1.3721
 2537TIP3   OH229101   3.590   5.325  15.980  0.5055  0.1946  0.5378
 2537TIP3    H129102   3.548   5.391  16.036 -3.2583  0.1458 -1.9213
 2537TIP3    H229103   3.592   5.246  16.034 -3.1993  0.0778  0.7658
 2538TIP3   OH229104   4.390   2.290  11.592 -0.7187  0.0066 -0.3785
 2538TIP3    H129105   4.364   2.355  11.526 -0.0062 -1.0283 -1.7275
 2538TIP3    H229106   4.439   2.340  11.657 -2.8544  1.3556  0.3219
 2539TIP3   OH229107   5.115   5.940   2.474  0.6129  0.7201 -0.1796
 2539TIP3    H129108   5.027   5.956   2.508  0.6783  0.5409  0.0806
 2539TIP3    H229109   5.104   5.930   2.380  0.6021  2.5105 -0.3953
 2540TIP3   OH229110   3.311   4.939  11.952  0.0282 -0.1932 -0.4798
 2540TIP3    H129111   3.238   4.960  11.894 -0.2053 -1.9514 -0.8917
 2540TIP3    H229112   3.389   4.967  11.904 -0.1511 -1.7264 -1.7536
 2541TIP3   OH229113   4.791   6.267   2.427  0.1952  0.3127  0.6882
 2541TIP3    H129114   4.728   6.338   2.424 -0.8168 -0.5560  1.0407
 2541TIP3    H229115   4.779   6.221   2.344 -0.4204 -0.5001  1.2114
 2542TIP3   OH229116   6.194   6.206   4.600 -0.5316 -0.7933 -0.6669
 2542TIP3    H129117   6.144   6.133   4.564  1.0747 -1.2971 -2.0362
 2542TIP3    H229118   6.182   6.277   4.537  0.0114 -0.7476 -0.7268
 2543TIP3   OH229119   1.201   5.916   3.102  0.2283 -0.1047 -0.3106
 2543TIP3    H129120   1.135   5.922   3.034  0.8048 -2.2816 -1.1615
 2543TIP3    H229121   1.252   5.838   3.079  1.8987  0.4137  1.3513
 2544TIP3   OH229122   1.903   3.149   4.757  0.3359  0.4164  0.4588
 2544TIP3    H129123   1.816   3.137   4.794  0.8542 -0.7621  1.3581
 2544TIP3    H229124   1.889   3.205   4.681 -1.0703  1.0266  1.1267
 2545TIP3   OH229125   6.080   3.641  12.020  0.3443 -0.5856 -0.0531
 2545TIP3    H129126   5.986   3.627  12.006  0.1536  0.3744  0.2165
 2545TIP3    H229127   6.121   3.563  11.982 -0.4707 -0.3652 -1.4810
 2546TIP3   OH229128   0.674   5.744   1.458  0.0128  0.3625 -0.3019
 2546TIP3    H129129   0.652   5.659   1.497 -1.0474  0.5466 -0.4588
 2546TIP3    H229130   0.651   5.808   1.526 -1.2718  0.6488 -0.9797
 2547TIP3   OH229131   2.880   0.091  15.309 -0.3262 -0.0565 -0.0420
 2547TIP3    H129132   2.831   0.065  15.387  1.3583 -1.1376  0.7075
 2547TIP3    H229133   2.863   0.021  15.246 -1.5044  0.7039 -0.6125
 2548TIP3   OH229134   4.569   2.772   0.233  0.1528  0.1151  0.2115
 2548TIP3    H129135   4.569   2.755   0.139  0.1425  0.4082  0.1570
 2548TIP3    H229136   4.636   2.714   0.268  1.0825  0.9489 -0.1542
 2549TIP3   OH229137   4.022   5.821  12.724  0.0479  0.0316 -0.3695
 2549TIP3    H129138   4.083   5.794  12.792  0.9596  0.7688 -0.8890
 2549TIP3    H229139   3.938   5.830  12.770  0.4594 -0.3281  0.4748
 2550TIP3   OH229140   5.120   2.883   4.237 -0.1707 -0.2820 -0.0860
 2550TIP3    H129141   5.214   2.901   4.228 -0.5890  2.2716 -0.0461
 2550TIP3    H229142   5.092   2.935   4.312 -1.3483 -2.3973  1.0557
 2551TIP3   OH229143   1.286   2.136   6.197 -0.4695  0.3148 -0.6070
 2551TIP3    H129144   1.295   2.041   6.189 -0.4183  0.4359 -2.4405
 2551TIP3    H229145   1.368   2.171   6.162  0.4843  1.0551  2.0895
 2552TIP3   OH229146   6.708   1.908  15.617 -0.4532  0.4427 -0.4665
 2552TIP3    H129147   6.796   1.936  15.595  0.8514 -2.1662  0.9050
 2552TIP3    H229148   6.698   1.930  15.710 -1.2228  0.6613 -0.5930
 2553TIP3   OH229149   4.141   2.149   1.871 -0.1730  0.4993 -0.0190
 2553TIP3    H129150   4.070   2.207   1.899  0.7707  1.2172  0.9232
 2553TIP3    H229151   4.152   2.089   1.945  1.2979  1.4347  0.5533
 2554TIP3   OH229152   3.819   0.603  12.608  0.2750 -0.2922  0.3166
 2554TIP3    H129153   3.793   0.546  12.535  0.3262  1.3307 -1.0327
 2554TIP3    H229154   3.819   0.545  12.684 -0.2382 -1.9574 -0.8751
 2555TIP3   OH229155   1.675   0.821  15.728  0.1371  0.5466 -0.1819
 2555TIP3    H129156   1.606   0.766  15.766  0.7473 -0.0916  0.0065
 2555TIP3    H229157   1.683   0.790  15.638 -0.0270  0.8269 -0.2955
 2556TIP3   OH229158   6.199   1.564  15.663  1.1577  0.2422  0.1242
 2556TIP3    H129159   6.215   1.517  15.744  0.2807 -0.4864 -0.1080
 2556TIP3    H229160   6.263   1.530  15.601  1.1463  0.0516  0.2188
 2557TIP3   OH229161   6.101   0.880  15.617 -0.3312 -0.2347 -0.7377
 2557TIP3    H129162   6.127   0.927  15.538 -0.8943 -0.4436 -1.0516
 2557TIP3    H229163   6.094   0.789  15.591 -0.3158 -0.3372 -0.3955
 2558TIP3   OH229164   3.707   1.925   4.949 -0.1709 -0.6316  0.1834
 2558TIP3    H129165   3.786   1.958   4.905  0.9869 -0.5603  2.1828
 2558TIP3    H229166   3.636   1.980   4.916  0.7633 -0.0863 -0.9883
 2559TIP3   OH229167   3.887   2.289  16.092 -0.2196 -0.1282 -0.3613
 2559TIP3    H129168   3.976   2.312  16.119 -0.5798  1.7028 -0.6413
 2559TIP3    H229169   3.898   2.208  16.041  1.3563  0.4010 -0.9258
 2560TIP3   OH229170   2.385   3.220   2.656  0.1361  0.4585  0.1915
 2560TIP3    H129171   2.307   3.164   2.661  1.2765 -1.1454  0.7424
 2560TIP3    H229172   2.406   3.242   2.746  0.7702  0.2459  0.1007
 2561TIP3   OH229173   2.064   1.683   1.965  0.2768  0.1161 -0.3342
 2561TIP3    H129174   2.130   1.614   1.973 -0.1457 -0.2931 -0.2749
 2561TIP3    H229175   2.049   1.691   1.871  0.3405  0.1338 -0.3423
 2562TIP3   OH229176   0.070   2.990   4.905  0.1122 -0.2098 -0.7416
 2562TIP3    H129177   0.086   3.082   4.925 -0.0787 -0.0881 -1.1407
 2562TIP3    H229178   0.133   2.969   4.835  1.9562 -1.0956  1.0775
 2563TIP3   OH229179   6.367   1.938   3.163 -0.2886  0.5941  0.1708
 2563TIP3    H129180   6.380   2.002   3.093 -2.4498  0.6794 -0.2193
 2563TIP3    H229181   6.304   1.979   3.222  0.0087 -0.2810  1.1253
 2564TIP3   OH229182   1.850   1.704  13.927  0.0555  0.0895 -0.0522
 2564TIP3    H129183   1.899   1.691  13.846  2.4828  0.2791  1.2902
 2564TIP3    H229184   1.855   1.619  13.972 -0.3247  0.2887  0.3702
 2565TIP3   OH229185   0.644   4.892   6.252 -0.3817  0.6654  0.6701
 2565TIP3    H129186   0.720   4.873   6.308  0.1673  1.3442  0.1686
 2565TIP3    H229187   0.595   4.810   6.250  1.0051 -0.1732 -0.0351
 2566TIP3   OH229188   1.262   3.646  11.247  0.1689  0.3292 -0.1580
 2566TIP3    H129189   1.216   3.575  11.202  0.0330  0.2598  0.0878
 2566TIP3    H229190   1.252   3.626  11.340  1.0924  0.0608 -0.1024
 2567TIP3   OH229191   0.898   0.925   3.331 -0.0696  0.3637 -0.6282
 2567TIP3    H129192   0.912   1.011   3.293 -1.2099  0.4939 -0.8005
 2567TIP3    H229193   0.978   0.876   3.312  0.7241  1.4768 -0.2362
 2568TIP3   OH229194   6.768   0.737   3.755  0.2681  0.1341  0.2941
 2568TIP3    H129195   6.709   0.712   3.826 -0.8515 -0.3853 -0.7823
 2568TIP3    H229196   6.719   0.803   3.705  0.5276 -0.3706 -0.6680
 2569TIP3   OH229197   4.805   0.912   0.325  0.0742 -0.2556  0.1341
 2569TIP3    H129198   4.842   0.892   0.411  1.0440 -1.9313 -0.6162
 2569TIP3    H229199   4.848   0.993   0.298 -0.4618  0.4530  1.3133
 2570TIP3   OH229200   6.773   1.262  14.760  0.4089 -0.2687  0.1343
 2570TIP3    H129201   6.837   1.248  14.829 -0.0188  0.0075  0.5958
 2570TIP3    H229202   6.704   1.314  14.802 -0.1485 -0.6240 -0.3314
 2571TIP3   OH229203   5.450   4.801   4.017  0.2421  0.0947  0.1803
 2571TIP3    H129204   5.542   4.784   4.034  0.6002  2.0348  0.4604
 2571TIP3    H229205   5.435   4.768   3.928  1.6851  1.2612 -0.5491
 2572TIP3   OH229206   4.642   3.108   4.602  0.2701 -0.1555 -0.4476
 2572TIP3    H129207   4.593   3.189   4.585  0.3437  0.1538  0.7491
 2572TIP3    H229208   4.598   3.042   4.547 -1.1100  0.2499  0.1165
 2573TIP3   OH229209   0.334   2.169  15.856 -0.0706  0.2391  0.3364
 2573TIP3    H129210   0.321   2.126  15.940  2.6494 -0.4953  0.5009
 2573TIP3    H229211   0.282   2.249  15.862 -3.1506 -1.6662  1.0656
 2574TIP3   OH229212   4.584   1.571  11.091 -0.2980 -0.2841 -0.2641
 2574TIP3    H129213   4.508   1.521  11.123 -0.7187 -0.1560 -1.0485
 2574TIP3    H229214   4.631   1.596  11.171 -1.4184  0.1709  0.2735
 2575TIP3   OH229215   0.364   6.686  17.211  0.9462  0.1287 -0.1061
 2575TIP3    H129216   0.364   6.643  17.297  0.5434 -1.8299 -1.0366
 2575TIP3    H229217   0.302   6.758  17.221  1.4254  0.3789  1.4343
 2576TIP3   OH229218   5.631   0.342  11.711  0.3518  0.3880 -0.0283
 2576TIP3    H129219   5.543   0.377  11.709 -0.2569 -1.0407 -1.7126
 2576TIP3    H229220   5.626   0.267  11.770  0.6309  0.7032  0.4055
 2577TIP3   OH229221   4.201   2.374  17.091  0.3607 -0.1762  0.3099
 2577TIP3    H129222   4.189   2.469  17.083  0.4312 -0.2531 -0.9690
 2577TIP3    H229223   4.118   2.337  17.059  1.0229 -0.5633 -1.0487
 2578TIP3   OH229224   3.165   3.045  17.049 -0.2850 -0.3309 -0.3030
 2578TIP3    H129225   3.190   3.000  16.968 -1.0843 -0.5070 -0.4642
 2578TIP3    H229226   3.085   3.092  17.026  1.3094  2.4589 -0.5634
 2579TIP3   OH229227   6.342   3.725   1.424  0.2214  0.3886 -0.4169
 2579TIP3    H129228   6.344   3.702   1.517 -0.6012  1.8539  0.0038
 2579TIP3    H229229   6.253   3.705   1.396  0.2982  0.4875 -0.7359
 2580TIP3   OH229230   0.290   6.283  16.374  0.2896 -0.1013 -0.1919
 2580TIP3    H129231   0.210   6.309  16.330  0.3151  1.1208  0.4522
 2580TIP3    H229232   0.271   6.293  16.467  0.6011 -1.5761  0.0554
 2581TIP3   OH229233   4.767   4.211   1.286  0.1900 -0.4768  0.2315
 2581TIP3    H129234   4.713   4.271   1.339 -0.4145 -0.9152  0.1285
 2581TIP3    H229235   4.769   4.251   1.199  4.5830  2.4856  1.3413
 2582TIP3   OH229236   2.731   3.498  12.086 -0.0474  0.2297  0.2148
 2582TIP3    H129237   2.683   3.503  12.003  0.2039 -0.5033  0.0152
 2582TIP3    H229238   2.812   3.547  12.070 -0.0966  0.2755  0.1038
 2583TIP3   OH229239   1.605   0.185   1.393 -0.1514  0.4332  0.6669
 2583TIP3    H129240   1.665   0.111   1.384 -0.3962  0.4353 -1.5560
 2583TIP3    H229241   1.557   0.167   1.474  0.7504 -1.1225  0.8948
 2584TIP3   OH229242   4.884   4.653  12.594  0.8590 -0.0446 -0.0840
 2584TIP3    H129243   4.855   4.595  12.524 -1.0221 -0.1015  0.6831
 2584TIP3    H229244   4.929   4.596  12.656  2.6616  0.0286 -1.2530
 2585TIP3   OH229245   0.996   3.574  10.716  0.3329  0.0405  0.4434
 2585TIP3    H129246   1.027   3.485  10.734 -0.5775 -0.0775  1.5456
 2585TIP3    H229247   1.056   3.607  10.650  1.9782 -0.6568  1.5210
 2586TIP3   OH229248   4.046   5.197  16.273 -0.2602  0.0955 -0.4651
 2586TIP3    H129249   3.984   5.203  16.201  1.7864  0.9603 -2.2648
 2586TIP3    H229250   4.132   5.215  16.233  1.0677 -0.1638  2.0424
 2587TIP3   OH229251   4.266   3.529   4.051 -0.2583 -0.4806  0.1849
 2587TIP3    H129252   4.216   3.542   4.131 -0.7856 -2.2220  0.1955
 2587TIP3    H229253   4.221   3.581   3.985 -0.5664 -0.0250  0.7493
 2588TIP3   OH229254   5.510   2.868   1.910  0.1861 -0.4658  0.5509
 2588TIP3    H129255   5.521   2.794   1.969  1.0388 -0.9712 -0.2188
 2588TIP3    H229256   5.536   2.945   1.961  1.6375 -0.9782  0.6198
 2589TIP3   OH229257   2.432   1.534   5.540  0.8107  0.0181 -0.1153
 2589TIP3    H129258   2.378   1.505   5.613  3.0946 -2.6990  0.6861
 2589TIP3    H229259   2.377   1.522   5.463 -0.6486  0.0989  0.8691
 2590TIP3   OH229260   2.292   3.672   0.216 -0.1181  0.1431  0.1524
 2590TIP3    H129261   2.257   3.755   0.183  0.1423  0.3659  0.4330
 2590TIP3    H229262   2.242   3.605   0.169  1.9077  0.3922 -2.6370
 2591TIP3   OH229263   4.572   1.173   4.431  0.0803  0.0439  0.1798
 2591TIP3    H129264   4.509   1.127   4.486  0.8077  0.6888  1.5895
 2591TIP3    H229265   4.584   1.258   4.474  0.7206  0.5427 -0.9370
 2592TIP3   OH229266   0.126   6.513   2.331 -0.5557  0.2862  0.2823
 2592TIP3    H129267   0.170   6.587   2.289 -0.9845 -0.2167 -1.0982
 2592TIP3    H229268   0.193   6.476   2.389 -0.8752  2.8140  2.4591
 2593TIP3   OH229269   1.621   2.979   2.795  0.3430  0.2023  0.4303
 2593TIP3    H129270   1.595   3.064   2.832 -1.0725  0.5178 -1.1308
 2593TIP3    H229271   1.589   2.914   2.857 -0.1823  0.7715  0.7672
 2594TIP3   OH229272   2.610   6.193   0.444  0.1675 -0.2409 -0.3505
 2594TIP3    H129273   2.592   6.155   0.530 -0.0780  0.7638  0.0557
 2594TIP3    H229274   2.562   6.276   0.444  1.8958  0.8038 -0.6208
 2595TIP3   OH229275   3.683   6.512  15.327  0.1047  0.1718 -0.0799
 2595TIP3    H129276   3.677   6.484  15.419  1.4152  0.9854  0.2733
 2595TIP3    H229277   3.597   6.550  15.308 -1.1415 -2.3802 -0.0436
 2596TIP3   OH229278   1.875   4.328  14.047  0.1268  0.0637  0.5820
 2596TIP3    H129279   1.905   4.284  13.967  1.6990  1.2664  0.4535
 2596TIP3    H229280   1.798   4.278  14.074  0.7283 -1.6070 -0.5651
 2597TIP3   OH229281   4.952   4.645   2.269  0.4892  0.4804  0.1684
 2597TIP3    H129282   4.939   4.629   2.176  1.6006 -0.1245  0.1032
 2597TIP3    H229283   4.869   4.683   2.299  0.0320  0.4304 -1.0034
 2598TIP3   OH229284   3.222   2.774   3.177  0.5293 -0.2744  0.1287
 2598TIP3    H129285   3.166   2.850   3.194 -0.1013 -0.4953 -0.8826
 2598TIP3    H229286   3.279   2.801   3.105  3.3242  0.7299  2.5364
 2599TIP3   OH229287   6.013   3.289   2.385 -0.1519 -0.6627 -0.6094
 2599TIP3    H129288   6.065   3.353   2.434 -0.9883  1.6885 -2.5753
 2599TIP3    H229289   5.935   3.276   2.438 -0.8577  1.5293 -1.0180
 2600TIP3   OH229290   0.205   3.415  17.040  0.0371  0.0380 -0.6489
 2600TIP3    H129291   0.205   3.510  17.053  1.3515 -0.0581  0.2940
 2600TIP3    H229292   0.189   3.403  16.947 -0.8024  1.1495 -0.6712
 2601TIP3   OH229293   6.369   2.049  11.363  0.6100 -0.4609 -0.1872
 2601TIP3    H129294   6.447   1.998  11.387  0.9671 -0.1773 -0.7284
 2601TIP3    H229295   6.363   2.116  11.432  1.9311  0.6705 -1.0993
 2602TIP3   OH229296   1.716   6.398   5.787  0.1329  0.3338  0.5516
 2602TIP3    H129297   1.667   6.316   5.798 -0.0648  0.3963  0.1682
 2602TIP3    H229298   1.798   6.372   5.747 -0.4111  0.4418 -0.6862
 2603TIP3   OH229299   0.072   1.401  16.664 -0.2938 -0.0283  0.0602
 2603TIP3    H129300   0.026   1.482  16.644  1.6858  1.1518  0.0460
 2603TIP3    H229301   0.086   1.404  16.759  0.1121 -0.1723  0.0075
 2604TIP3   OH229302   1.366   4.617  15.349 -0.3365  0.0165  0.0424
 2604TIP3    H129303   1.442   4.560  15.361 -1.3046 -1.0743  1.2415
 2604TIP3    H229304   1.309   4.569  15.289 -0.8083  0.0749  0.4376
 2605TIP3   OH229305   5.464   4.246   6.682  0.0603 -0.1021  0.1272
 2605TIP3    H129306   5.547   4.233   6.728  0.0061 -1.0849 -0.0406
 2605TIP3    H229307   5.489   4.255   6.590 -0.0597 -1.0862 -0.0132
 2606TIP3   OH229308   1.817   6.055  12.753  0.1943  0.0979 -0.2766
 2606TIP3    H129309   1.813   6.123  12.820  0.8889  0.8484 -0.9823
 2606TIP3    H229310   1.739   6.001  12.770 -0.8299  1.5396 -0.2054
 2607TIP3   OH229311   1.967   3.821   3.137  0.5629 -0.3890 -0.1184
 2607TIP3    H129312   1.931   3.763   3.205  0.3264 -1.4344 -1.1007
 2607TIP3    H229313   2.039   3.771   3.099  0.0907 -0.2339 -1.2697
 2608TIP3   OH229314   5.942   6.161   3.955  0.3271 -0.3987  0.1437
 2608TIP3    H129315   5.973   6.213   3.882  0.7456 -1.2811 -0.3221
 2608TIP3    H229316   6.017   6.154   4.014  1.4200 -3.2418 -1.3797
 2609TIP3   OH229317   4.183   2.047  12.026 -0.0694  0.4936 -0.4943
 2609TIP3    H129318   4.168   2.030  11.933 -1.0579 -1.9517  0.0320
 2609TIP3    H229319   4.096   2.063  12.062 -0.1316 -1.8460  0.5281
 2610TIP3   OH229320   4.117   2.700  16.864 -0.0569 -0.6963 -0.1482
 2610TIP3    H129321   4.147   2.610  16.851  0.4276 -0.7090  0.9253
 2610TIP3    H229322   4.191   2.743  16.907 -0.3666  0.1584 -0.4613
 2611TIP3   OH229323   0.671   4.423  16.191 -0.3143 -0.0752 -0.2040
 2611TIP3    H129324   0.617   4.423  16.112  0.1147  1.8289 -0.5454
 2611TIP3    H229325   0.649   4.340  16.235 -1.1785 -0.7832 -1.8751
 2612TIP3   OH229326   0.055   0.889  11.221  0.1915  0.8335 -0.2066
 2612TIP3    H129327   0.072   0.958  11.156  0.5575 -0.1613 -1.1963
 2612TIP3    H229328  -0.030   0.911  11.258 -0.7056  0.6236 -2.0706
 2613TIP3   OH229329   5.354   6.021   0.587  0.6720  0.6142  0.3534
 2613TIP3    H129330   5.327   6.006   0.496 -1.1805 -0.4395  1.0212
 2613TIP3    H229331   5.422   5.955   0.603 -0.2346 -0.3777  0.2278
 2614TIP3   OH229332   5.811   3.600   4.797  0.1020  0.2440 -0.2812
 2614TIP3    H129333   5.834   3.535   4.730  0.8500  1.5602 -1.3532
 2614TIP3    H229334   5.865   3.676   4.775 -0.7617  1.2366  0.9424
 2615TIP3   OH229335   6.608   6.718  13.322 -0.0792 -0.5064 -0.2539
 2615TIP3    H129336   6.560   6.650  13.369  0.5270  0.1218  1.3467
 2615TIP3    H229337   6.630   6.783  13.389  0.9805  0.3610 -1.3827
 2616TIP3   OH229338   5.285   0.000   3.095 -0.3276 -0.1358 -0.6356
 2616TIP3    H129339   5.196  -0.033   3.103  0.0949 -1.2595 -0.4579
 2616TIP3    H229340   5.275   0.085   3.051 -1.3779 -0.7163 -1.5591
 2617TIP3   OH229341   2.267   6.576   3.511  0.3426 -0.1485  0.2176
 2617TIP3    H129342   2.185   6.575   3.561  0.8208 -0.9802  1.0214
 2617TIP3    H229343   2.239   6.566   3.420 -0.4823  0.1085  0.4306
 2618TIP3   OH229344   6.566   6.068   5.007 -0.4401 -0.1200 -0.2664
 2618TIP3    H129345   6.626   6.090   4.935 -0.2314  0.8010  0.1745
 2618TIP3    H229346   6.599   5.985   5.041  0.4212  0.2323 -0.2147
 2619TIP3   OH229347   1.653   0.255   2.807 -0.4178  0.2356 -0.4544
 2619TIP3    H129348   1.604   0.199   2.867 -0.5114  1.3405  0.5357
 2619TIP3    H229349   1.606   0.338   2.806 -0.3839  0.2735 -2.0387
 2620TIP3   OH229350   3.832   1.522   0.570  0.0175 -0.1987  0.0182
 2620TIP3    H129351   3.852   1.482   0.485 -0.4493 -0.1897 -0.0998
 2620TIP3    H229352   3.819   1.615   0.551 -0.0323 -0.1873  0.1065
 2621TIP3   OH229353   1.372   5.269  12.398 -0.6210  0.1633  0.0975
 2621TIP3    H129354   1.287   5.312  12.390 -0.6921 -0.1259 -0.9077
 2621TIP3    H229355   1.388   5.231  12.311 -1.2636 -3.1517  1.2543
 2622TIP3   OH229356   6.758   1.017   1.648 -0.1266 -0.1423  0.1023
 2622TIP3    H129357   6.818   1.082   1.612 -1.7660  0.5837 -1.4370
 2622TIP3    H229358   6.794   0.933   1.619 -0.9633  0.3861 -2.7032
 2623TIP3   OH229359   4.844   0.789   2.849 -0.3274  0.2356 -0.2032
 2623TIP3    H129360   4.755   0.793   2.812 -0.7125 -1.1895  0.4969
 2623TIP3    H229361   4.900   0.773   2.773 -0.7867  0.1813 -0.5411
 2624TIP3   OH229362   4.980   0.043   4.427 -0.2573  0.3395  0.5932
 2624TIP3    H129363   4.946   0.132   4.433  0.6562  0.9412 -2.0427
 2624TIP3    H229364   5.044   0.037   4.499  0.5029  2.2245  0.1298
 2625TIP3   OH229365   1.456   0.332   1.656  0.1817  0.0474  0.1488
 2625TIP3    H129366   1.501   0.249   1.667  1.2099  0.6576  0.6864
 2625TIP3    H229367   1.526   0.397   1.651 -0.6209  0.9503  0.3534
 2626TIP3   OH229368   3.994   2.569  13.235  0.4262 -0.0419 -0.4802
 2626TIP3    H129369   3.915   2.573  13.182 -0.0612 -1.6071  0.0856
 2626TIP3    H229370   4.034   2.655  13.225 -1.6058  0.9632 -0.3652
 2627TIP3   OH229371   1.220   2.282  15.920 -0.0934 -0.0719  0.2762
 2627TIP3    H129372   1.209   2.256  16.012 -2.1287 -0.2888  0.0331
 2627TIP3    H229373   1.223   2.199  15.872 -4.5268 -0.1867 -0.2915
 2628TIP3   OH229374   2.103   6.385   0.212  0.3899 -0.3225 -0.4211
 2628TIP3    H129375   2.025   6.418   0.167  0.6107  0.6094 -0.1302
 2628TIP3    H229376   2.104   6.430   0.296  1.2252 -0.3530 -0.4064
 2629TIP3   OH229377   2.904   1.562   2.931 -0.2100  0.3762  0.3964
 2629TIP3    H129378   2.840   1.633   2.926 -1.5007 -0.8117 -2.5087
 2629TIP3    H229379   2.860   1.494   2.982  0.4635  1.0811  1.9661
 2630TIP3   OH229380   3.165   5.693   4.209 -0.2108 -0.2122 -0.5272
 2630TIP3    H129381   3.213   5.650   4.138 -0.1198 -0.6527 -0.2063
 2630TIP3    H229382   3.074   5.669   4.195 -0.0020 -1.6508  0.4214
 2631TIP3   OH229383   5.089   1.572  17.073 -0.4105 -0.7529  0.0493
 2631TIP3    H129384   5.046   1.606  16.995 -2.2952 -2.7116  0.1351
 2631TIP3    H229385   5.062   1.632  17.143  0.7958  0.6542 -0.6234
 2632TIP3   OH229386   3.257   2.059   5.120  0.0052  0.0236 -0.1752
 2632TIP3    H129387   3.195   2.100   5.059  1.2711  1.6080 -0.4438
 2632TIP3    H229388   3.291   1.984   5.072 -2.0667 -1.2315  0.1802
 2633TIP3   OH229389   5.238   3.240   0.558 -0.1019 -0.1777  0.1930
 2633TIP3    H129390   5.175   3.277   0.495 -0.6891  0.7296  1.2796
 2633TIP3    H229391   5.189   3.173   0.605  0.5606 -1.4148 -0.8037
 2634TIP3   OH229392   5.198   1.359   0.990  0.1448 -0.0425 -0.5251
 2634TIP3    H129393   5.137   1.312   1.047  0.4082  1.9045  1.5201
 2634TIP3    H229394   5.165   1.449   0.987  1.7179  0.5603 -1.1202
 2635TIP3   OH229395   6.010   0.989  11.186 -0.7330  0.2936  0.1213
 2635TIP3    H129396   6.022   1.072  11.231  0.5180  0.7748 -1.0290
 2635TIP3    H229397   5.986   1.013  11.097 -1.5976 -0.6110  0.0945
 2636TIP3   OH229398   6.538   5.057  14.557 -0.2332  0.5954 -0.2384
 2636TIP3    H129399   6.475   5.061  14.485  0.1237 -0.9394 -0.6640
 2636TIP3    H229400   6.546   4.964  14.577  3.5995  0.4473 -1.7128
 2637TIP3   OH229401   3.044   4.326  16.110 -0.3795 -0.0982  0.2873
 2637TIP3    H129402   3.012   4.375  16.034  0.2918  1.5604  1.0074
 2637TIP3    H229403   2.985   4.351  16.181  0.5643  0.4795  0.8938
 2638TIP3   OH229404   1.208   5.134  12.919  0.1860 -0.1411 -0.3949
 2638TIP3    H129405   1.115   5.136  12.898  0.4618 -1.3668 -1.8878
 2638TIP3    H229406   1.243   5.213  12.877 -0.1783  0.3497  0.2140
 2639TIP3   OH229407   5.835   1.551   0.974  0.0618 -0.5772  0.2361
 2639TIP3    H129408   5.771   1.613   0.940 -1.2955 -1.9656  0.1624
 2639TIP3    H229409   5.902   1.546   0.906 -0.1006  0.3727 -0.0073
 2640TIP3   OH229410   4.915   0.908  15.832  0.1679  0.0381  0.3631
 2640TIP3    H129411   4.872   0.994  15.832 -0.6106 -0.3465  0.0443
 2640TIP3    H229412   4.992   0.922  15.777 -0.9575  0.0726 -1.2893
 2641TIP3   OH229413   6.230   4.158  13.482  0.3479  0.1472  0.5067
 2641TIP3    H129414   6.316   4.119  13.497  0.5544 -0.0625 -1.0543
 2641TIP3    H229415   6.236   4.198  13.395 -0.9308  0.6986  0.6417
 2642TIP3   OH229416   0.120   1.797  15.340 -0.1393 -0.2616  0.0347
 2642TIP3    H129417   0.177   1.720  15.333  1.9893  1.1978  0.2308
 2642TIP3    H229418   0.153   1.844  15.417 -2.5904 -0.0379  1.0329
 2643TIP3   OH229419   0.616   3.449   0.284 -0.1641 -0.3520 -0.3370
 2643TIP3    H129420   0.628   3.525   0.340 -0.4219 -0.4601 -0.1293
 2643TIP3    H229421   0.640   3.479   0.197  1.1856 -0.4522 -0.0186
 2644TIP3   OH229422   4.984   3.015   1.767  0.1665 -0.0754  0.2217
 2644TIP3    H129423   5.034   3.091   1.738 -0.3780  0.6535  1.1602
 2644TIP3    H229424   5.033   2.982   1.843  1.5203 -1.9025 -1.3194
 2645TIP3   OH229425   0.965   1.541   6.492 -0.3156 -0.1038  0.7598
 2645TIP3    H129426   0.962   1.550   6.397 -1.0616  0.1748  0.8047
 2645TIP3    H229427   0.891   1.484   6.514 -0.8365  0.7490  1.2699
 2646TIP3   OH229428   5.368   1.583  13.118  0.2460  0.4279 -0.1483
 2646TIP3    H129429   5.455   1.595  13.079  0.1762 -0.8422 -0.7555
 2646TIP3    H229430   5.370   1.494  13.152 -0.8979  0.3106 -0.3725
 2647TIP3   OH229431   0.471   5.735  12.475  0.2362  0.4243  0.1560
 2647TIP3    H129432   0.398   5.690  12.517  1.1528  0.1345  1.4967
 2647TIP3    H229433   0.447   5.828  12.476 -0.4525  0.2593 -0.1642
 2648TIP3   OH229434   4.731   2.153  11.563  0.3668  0.2960 -0.1825
 2648TIP3    H129435   4.639   2.146  11.589  0.1595  1.4243 -0.5376
 2648TIP3    H229436   4.743   2.085  11.497 -0.4556  0.7102 -0.7684
 2649TIP3   OH229437   5.174   1.329  16.247  0.1718 -0.3117 -0.4267
 2649TIP3    H129438   5.253   1.373  16.216 -1.2390  3.0946  0.3608
 2649TIP3    H229439   5.179   1.334  16.342 -0.3529 -1.3430 -0.3304
 2650TIP3   OH229440   0.673   0.607  17.050  0.0325  0.3742 -0.5433
 2650TIP3    H129441   0.677   0.690  17.099 -1.2353  0.8967 -1.2646
 2650TIP3    H229442   0.762   0.574  17.051 -0.0887 -0.1880  3.0096
 2651TIP3   OH229443   1.686   3.362  15.186  0.1902  0.3171  0.2509
 2651TIP3    H129444   1.677   3.452  15.153  0.6642  0.8086  1.4012
 2651TIP3    H229445   1.762   3.366  15.245  0.5206 -0.9577 -0.0633
 2652TIP3   OH229446   0.448   5.220  13.869  0.0812 -0.3851  0.2224
 2652TIP3    H129447   0.420   5.200  13.959  0.2301 -0.0326  0.3475
 2652TIP3    H229448   0.438   5.314  13.861 -1.8064 -0.6287 -0.7787
 2653TIP3   OH229449   5.620   1.130   5.558  0.3804 -0.7487 -0.0309
 2653TIP3    H129450   5.716   1.120   5.551  0.9054  2.8396  0.3992
 2653TIP3    H229451   5.600   1.104   5.648  1.0165 -0.9635  0.0587
 2654TIP3   OH229452   5.893   3.579  16.925 -0.1306 -0.3053 -0.5700
 2654TIP3    H129453   5.942   3.574  17.007 -1.2398 -0.6749  0.0766
 2654TIP3    H229454   5.907   3.669  16.895 -1.4856  0.5420  1.1613
 2655TIP3   OH229455   2.127   2.566  12.506  0.1825  0.2582  0.3077
 2655TIP3    H129456   2.141   2.597  12.596 -1.7096  0.7765  0.4555
 2655TIP3    H229457   2.038   2.594  12.484  0.5941  0.1242 -1.7344
 2656TIP3   OH229458   5.779   5.194   4.496  0.0997  0.1127  0.3911
 2656TIP3    H129459   5.792   5.225   4.586  0.0883 -0.9439  0.7703
 2656TIP3    H229460   5.723   5.117   4.505 -1.5264  1.1261 -0.7078
 2657TIP3   OH229461   2.644   3.490  14.139  0.0842 -0.1605  0.0682
 2657TIP3    H129462   2.655   3.583  14.122  0.1051  0.1906  1.8114
 2657TIP3    H229463   2.731   3.452  14.125  0.4029  0.3236  0.7342
 2658TIP3   OH229464   3.836   2.815   1.671 -0.0682 -0.4851 -0.2004
 2658TIP3    H129465   3.874   2.901   1.657  0.5875 -0.7254  0.0497
 2658TIP3    H229466   3.759   2.831   1.726 -1.4149  0.2051 -2.1954
 2659TIP3   OH229467   4.032   4.299  14.427 -0.0282 -0.2643 -0.5246
 2659TIP3    H129468   4.067   4.215  14.455 -0.3524 -0.0216  0.6505
 2659TIP3    H229469   3.947   4.306  14.469  0.0749  0.7357 -0.4483
 2660TIP3   OH229470   0.514   4.949  13.191  0.1500  0.0466  0.3061
 2660TIP3    H129471   0.476   5.011  13.253 -0.0754  0.8215 -0.5644
 2660TIP3    H229472   0.452   4.947  13.118  0.8196 -0.1672 -0.2793
 2661TIP3   OH229473   3.472   6.168  11.867  0.3789 -0.3454  0.1898
 2661TIP3    H129474   3.381   6.137  11.868  0.9726 -2.2219 -0.5081
 2661TIP3    H229475   3.499   6.165  11.959 -0.5137  1.1317  0.5384
 2662TIP3   OH229476   0.720   5.944   4.558  0.4754 -0.3082 -0.1031
 2662TIP3    H129477   0.777   6.017   4.580  2.0179 -1.6002  0.3589
 2662TIP3    H229478   0.662   5.978   4.490  1.7953  1.0602 -0.5900
 2663TIP3   OH229479   3.440   6.635  12.776  0.7460 -0.0532 -0.0813
 2663TIP3    H129480   3.467   6.675  12.858  0.0480  0.1478  0.0591
 2663TIP3    H229481   3.365   6.580  12.800 -0.1087  0.7942 -0.7350
 2664TIP3   OH229482   6.463   3.443   3.294  0.1058  0.2304  0.0782
 2664TIP3    H129483   6.368   3.450   3.301  0.2211  0.6053  1.7774
 2664TIP3    H229484   6.485   3.365   3.344  0.6967  0.2048 -0.2199
 2665TIP3   OH229485   3.216   5.753   3.765 -0.1578 -0.4443 -0.3335
 2665TIP3    H129486   3.136   5.752   3.714 -0.0370 -1.0710 -0.5218
 2665TIP3    H229487   3.283   5.718   3.706  0.1857 -0.2317 -0.0747
 2666TIP3   OH229488   2.763   3.872   4.304  0.5627  0.0775 -0.6358
 2666TIP3    H129489   2.851   3.854   4.338 -0.0630 -0.2555  0.9018
 2666TIP3    H229490   2.745   3.801   4.242  0.6784 -0.9001  0.4257
 2667TIP3   OH229491   5.904   5.144   1.715 -0.4237  1.0381  0.1654
 2667TIP3    H129492   5.841   5.199   1.669 -1.2997  0.7219  0.9539
 2667TIP3    H229493   5.851   5.091   1.774  0.3498 -0.8306 -0.7107
 2668TIP3   OH229494   4.150   3.179  13.257  0.1001  0.2442 -0.1267
 2668TIP3    H129495   4.135   3.085  13.271 -0.8017  0.6304  1.8254
 2668TIP3    H229496   4.093   3.201  13.183 -0.4889 -0.5332  0.0760
 2669TIP3   OH229497   1.340   0.369  14.547  0.0998 -0.7198  0.5840
 2669TIP3    H129498   1.276   0.439  14.544  0.7600 -0.0485  1.5146
 2669TIP3    H229499   1.361   0.359  14.640  1.2105 -1.0319  0.3234
 2670TIP3   OH229500   3.552   6.143   3.446  0.6654  0.1595 -0.3816
 2670TIP3    H129501   3.643   6.143   3.415  0.7258  0.8661 -0.2306
 2670TIP3    H229502   3.554   6.086   3.523  0.6210 -1.1752 -1.3423
 2671TIP3   OH229503   5.786   4.004  13.945  0.3306  0.1391  0.0371
 2671TIP3    H129504   5.798   4.026  14.038  1.7393  0.1011 -0.1096
 2671TIP3    H229505   5.816   3.914  13.938 -0.0425  0.0521 -0.4072
 2672TIP3   OH229506   6.658   6.334   3.265 -0.5352 -0.0889  0.6530
 2672TIP3    H129507   6.602   6.364   3.194  0.4866  0.0017 -0.1411
 2672TIP3    H229508   6.598   6.316   3.338 -1.9028 -2.5018 -0.9441
 2673TIP3   OH229509   0.160   1.891  12.561  0.0506 -0.5214 -0.1939
 2673TIP3    H129510   0.116   1.900  12.646 -0.3651 -0.9200 -0.3666
 2673TIP3    H229511   0.239   1.945  12.570 -0.5731  0.3672  0.0446
 2674TIP3   OH229512   6.269   2.544  17.056 -0.0363  0.2270  0.1885
 2674TIP3    H129513   6.216   2.571  16.981  0.8099  1.1217 -0.1050
 2674TIP3    H229514   6.338   2.490  17.018 -1.0259 -1.4198  0.6361
 2675TIP3   OH229515   2.589   4.001   6.308 -0.0263 -0.4118  0.5798
 2675TIP3    H129516   2.580   3.906   6.314 -0.9581 -0.4597 -1.0050
 2675TIP3    H229517   2.592   4.019   6.214  1.7089  1.0150  0.8592
 2676TIP3   OH229518   3.129   1.675   3.767  0.0381  0.3426  0.3588
 2676TIP3    H129519   3.163   1.734   3.701  1.1677 -0.0097  0.5973
 2676TIP3    H229520   3.123   1.729   3.846 -0.6314  0.5829  0.1456
 2677TIP3   OH229521   6.490   3.994  16.559  0.4880  0.2907  0.4404
 2677TIP3    H129522   6.580   4.025  16.563  1.3495 -1.7973 -1.2516
 2677TIP3    H229523   6.492   3.909  16.603 -0.1169 -0.8056 -1.5615
 2678TIP3   OH229524   1.819   2.673   5.820 -0.0194  0.0401 -0.5501
 2678TIP3    H129525   1.854   2.658   5.908 -0.1105 -0.3932 -0.5812
 2678TIP3    H229526   1.890   2.648   5.761  0.0480  0.3470 -0.5986
 2679TIP3   OH229527   6.775   6.759  13.987  0.2271 -0.7263 -0.2332
 2679TIP3    H129528   6.797   6.773  14.079 -0.4918 -1.4263  0.0604
 2679TIP3    H229529   6.718   6.832  13.964  1.1736 -0.0234 -0.4137
 2680TIP3   OH229530   2.366   2.423   6.326 -0.2875  0.4053 -0.0237
 2680TIP3    H129531   2.445   2.475   6.311 -0.4654  0.8633  0.5849
 2680TIP3    H229532   2.397   2.341   6.363 -0.0836  0.5062  0.0276
 2681TIP3   OH229533   1.546   2.836  11.651  0.0702  0.4187  0.0698
 2681TIP3    H129534   1.517   2.789  11.573  1.3734 -1.6068  0.7321
 2681TIP3    H229535   1.584   2.917  11.616  0.3502 -0.3002 -1.3833
 2682TIP3   OH229536   6.718   2.806   1.876 -0.2169  0.1262  0.2724
 2682TIP3    H129537   6.667   2.883   1.900 -1.0269 -0.7436  1.5076
 2682TIP3    H229538   6.685   2.737   1.934  0.6212 -1.0974 -0.6575
 2683TIP3   OH229539   4.592   4.381   5.890 -0.4608  0.7011  0.1045
 2683TIP3    H129540   4.576   4.447   5.957 -1.2224  1.8787 -1.1907
 2683TIP3    H229541   4.624   4.304   5.939 -3.0053  0.7571  2.0536
 2684TIP3   OH229542   6.686   1.810   3.134  0.1681  0.1117 -0.6628
 2684TIP3    H129543   6.656   1.895   3.166  1.2352 -0.1047  1.0793
 2684TIP3    H229544   6.605   1.760   3.121 -0.4076  0.1013  2.2266
 2685TIP3   OH229545   3.872   1.452  15.902 -0.3391  0.1122 -0.0568
 2685TIP3    H129546   3.845   1.487  15.987 -2.0248  0.9938 -0.8965
 2685TIP3    H229547   3.793   1.409  15.868  0.4570 -0.6912 -0.9541
 2686TIP3   OH229548   1.124   2.618  12.442 -0.2085 -0.0309 -0.2400
 2686TIP3    H129549   1.066   2.564  12.388 -0.2953 -1.2866  1.0565
 2686TIP3    H229550   1.206   2.620  12.394 -1.0102  1.0367 -1.6670
 2687TIP3   OH229551   6.559   6.329   3.549  0.2402 -0.1171 -0.1685
 2687TIP3    H129552   6.473   6.340   3.589  0.7747 -0.0902  1.0171
 2687TIP3    H229553   6.580   6.414   3.511 -0.1649 -0.0696 -0.2839
 2688TIP3   OH229554   5.925   1.578   5.979  0.0331 -0.0269  0.0738
 2688TIP3    H129555   5.830   1.574   5.991 -0.0479 -0.5883 -0.7040
 2688TIP3    H229556   5.958   1.502   6.026  0.0666 -0.0386  0.0309
 2689TIP3   OH229557   3.461   4.276  14.610 -0.0154 -0.1268 -0.3787
 2689TIP3    H129558   3.369   4.301  14.608 -0.1343 -0.5249 -2.2555
 2689TIP3    H229559   3.462   4.182  14.592  0.7257 -0.3010  0.4790
 2690TIP3   OH229560   0.135   5.582  15.120  0.2102  0.5305 -0.1486
 2690TIP3    H129561   0.207   5.634  15.083  1.9595 -1.8190 -0.2793
 2690TIP3    H229562   0.145   5.593  15.215  0.6275  0.3548 -0.1704
 2691TIP3   OH229563   5.251   5.886   5.707  0.0215 -0.0418 -0.5421
 2691TIP3    H129564   5.255   5.931   5.623 -0.5029  1.0962  0.0123
 2691TIP3    H229565   5.172   5.833   5.702  0.8482 -1.2538 -1.3452
 2692TIP3   OH229566   4.085   5.143  16.544 -0.2176  0.6711  0.0099
 2692TIP3    H129567   3.991   5.160  16.553 -0.1897  1.3916 -1.0333
 2692TIP3    H229568   4.104   5.157  16.452  0.5290 -1.5036 -0.2220
 2693TIP3   OH229569   5.381   6.782   0.215  0.3523  0.1445  0.5540
 2693TIP3    H129570   5.410   6.722   0.146 -0.4218 -0.4397  0.7302
 2693TIP3    H229571   5.448   6.851   0.215  0.9243 -0.3871 -0.0678
 2694TIP3   OH229572   5.344   6.110  13.867  0.0881 -0.3443  0.2494
 2694TIP3    H129573   5.325   6.023  13.902 -0.6132  0.7028  2.7722
 2694TIP3    H229574   5.439   6.117  13.871  0.1238 -0.8761  0.4001
 2695TIP3   OH229575   3.689   6.718   3.992  0.0143 -0.0020 -0.2610
 2695TIP3    H129576   3.678   6.712   3.897  3.2879  0.2293 -0.7763
 2695TIP3    H229577   3.693   6.812   4.010  0.4323 -0.0541 -0.0682
 2696TIP3   OH229578   5.481   4.769   0.395  0.0005 -0.1368  0.5884
 2696TIP3    H129579   5.450   4.708   0.328  0.2800  0.2300  0.1158
 2696TIP3    H229580   5.475   4.720   0.477 -0.2164 -0.6390  0.2793
 2697TIP3   OH229581   4.861   1.938   1.625 -0.3904 -0.0350 -0.2011
 2697TIP3    H129582   4.893   1.960   1.712 -1.7604 -1.2900  0.6539
 2697TIP3    H229583   4.941   1.923   1.573  0.4585 -1.6414  1.4569
 2698TIP3   OH229584   5.742   2.760  14.631 -0.0491 -0.7013 -0.2447
 2698TIP3    H129585   5.789   2.748  14.549 -1.1916  1.7051 -1.3628
 2698TIP3    H229586   5.806   2.739  14.699  0.8937 -2.8916 -1.6767
 2699TIP3   OH229587   2.722   6.263   5.063  0.5835 -0.1902 -0.8428
 2699TIP3    H129588   2.646   6.224   5.107 -0.7673 -2.1870 -4.4131
 2699TIP3    H229589   2.707   6.357   5.067 -1.3553 -0.4810 -0.2367
 2700TIP3   OH229590   0.788   4.547   3.350  0.3184  0.2178  0.1619
 2700TIP3    H129591   0.835   4.503   3.279  1.1471  0.0738  0.7848
 2700TIP3    H229592   0.722   4.600   3.306 -0.1051 -0.9443 -0.6535
 2701TIP3   OH229593   4.982   5.950  12.174 -0.1560  0.5564  0.9882
 2701TIP3    H129594   4.937   5.883  12.123 -1.0371  1.8036  0.0608
 2701TIP3    H229595   5.075   5.932  12.162 -0.3827 -0.3936  0.6257
 2702TIP3   OH229596   6.575   0.064  12.777 -0.7151  0.1399 -0.2433
 2702TIP3    H129597   6.521   0.142  12.764  0.0753  0.8207  0.3929
 2702TIP3    H229598   6.556   0.036  12.867  0.6797  0.9804  0.3543
 2703TIP3   OH229599   3.737   0.655   2.827  0.0900  0.1457 -0.0180
 2703TIP3    H129600   3.693   0.732   2.789 -0.6709  0.3569  1.2239
 2703TIP3    H229601   3.762   0.683   2.915 -1.7553 -1.5340  1.1167
 2704TIP3   OH229602   1.061   1.227   4.448 -0.4345 -0.0636  0.2852
 2704TIP3    H129603   1.028   1.202   4.362 -1.7429  0.0998  0.7155
 2704TIP3    H229604   1.081   1.320   4.440  1.2180 -0.4398 -0.3475
 2705TIP3   OH229605   2.636   2.805  13.977 -1.1069  0.3633 -0.1561
 2705TIP3    H129606   2.609   2.885  14.022 -0.3609  0.6304 -0.1755
 2705TIP3    H229607   2.624   2.736  14.043 -0.3273  0.7064  0.3583
 2706TIP3   OH229608   3.630   1.948   3.215 -0.7499 -0.2601  0.0591
 2706TIP3    H129609   3.657   1.857   3.199  1.1791  0.4874 -1.2672
 2706TIP3    H229610   3.563   1.965   3.149  0.1436 -0.2073 -0.8481
 2707TIP3   OH229611   4.206   0.847   2.414 -0.7521 -0.1992  0.5832
 2707TIP3    H129612   4.277   0.791   2.447 -0.1996 -0.9116 -1.6508
 2707TIP3    H229613   4.129   0.790   2.413 -0.5496 -0.4773 -0.1854
 2708TIP3   OH229614   0.743   4.440  11.234 -0.0319 -0.2019 -0.5551
 2708TIP3    H129615   0.772   4.531  11.223  4.7742 -1.3923  0.0963
 2708TIP3    H229616   0.726   4.431  11.328 -0.1970 -0.0605 -0.5709
 2709TIP3   OH229617   0.063   5.185  14.897 -0.3271  0.3447  0.3246
 2709TIP3    H129618   0.066   5.121  14.827  0.5190  0.2223  0.4683
 2709TIP3    H229619  -0.000   5.150  14.960  1.9517 -1.6745  1.6568
 2710TIP3   OH229620   2.658   4.426  12.621  0.4981 -0.4154  0.3427
 2710TIP3    H129621   2.634   4.369  12.547 -0.6538 -0.0940  0.4430
 2710TIP3    H229622   2.678   4.365  12.692  0.6733 -0.7169  0.0372
 2711TIP3   OH229623   0.652   0.219   5.088 -0.9717  0.2625  0.5042
 2711TIP3    H129624   0.608   0.136   5.067  0.0243 -0.4970  1.2935
 2711TIP3    H229625   0.664   0.262   5.003  0.9563 -1.6889 -0.3172
 2712TIP3   OH229626   2.981   0.651   4.776 -0.5283  0.2209  0.7881
 2712TIP3    H129627   3.034   0.731   4.773 -0.1863 -0.0200  0.2615
 2712TIP3    H229628   2.918   0.662   4.704 -1.3347  0.5893  1.5235
 2713TIP3   OH229629   2.841   2.917   4.538  0.2078  0.1120 -0.3343
 2713TIP3    H129630   2.811   2.869   4.616  1.1776  1.7281  1.1184
 2713TIP3    H229631   2.810   3.006   4.552  1.3459  0.6811 -1.2456
 2714TIP3   OH229632   6.534   1.010   6.427 -0.1702  0.6710  0.5805
 2714TIP3    H129633   6.472   0.970   6.365  0.4812  1.9185 -0.9447
 2714TIP3    H229634   6.539   0.947   6.499 -1.4309 -0.5564 -0.3326
 2715TIP3   OH229635   5.031   4.798   3.627 -0.2801  0.6307 -0.4404
 2715TIP3    H129636   5.033   4.815   3.533 -2.0066 -3.1853 -1.3546
 2715TIP3    H229637   4.947   4.835   3.656 -0.4710  0.4513 -0.7548
 2716TIP3   OH229638   3.743   1.241   1.380  0.3024  0.2801 -0.2797
 2716TIP3    H129639   3.658   1.263   1.418  0.6628  0.7503  0.2788
 2716TIP3    H229640   3.762   1.312   1.320  0.2371  0.1005 -0.5147
 2717TIP3   OH229641   6.397   1.807   4.298  0.1811  0.5438  0.4393
 2717TIP3    H129642   6.350   1.743   4.243  1.4396  0.5664 -0.7018
 2717TIP3    H229643   6.344   1.812   4.378 -1.7547  0.5604 -0.7663
 2718TIP3   OH229644   6.460   3.622   2.768  0.0095 -0.0190 -0.1908
 2718TIP3    H129645   6.394   3.679   2.729  0.2096  0.8050  0.6386
 2718TIP3    H229646   6.530   3.681   2.795  0.7412 -0.7965 -0.3547
 2719TIP3   OH229647   6.425   2.444  13.982 -0.2964  0.3907  0.8920
 2719TIP3    H129648   6.394   2.504  13.914 -0.1673  0.0028  0.4841
 2719TIP3    H229649   6.458   2.502  14.052  0.0430  0.7994  0.4059
 2720TIP3   OH229650   3.250   0.452  14.390 -0.3681 -0.4861 -0.0797
 2720TIP3    H129651   3.320   0.518  14.393 -1.3322  0.6832 -1.6624
 2720TIP3    H229652   3.249   0.422  14.299 -1.0271 -1.4992  0.2418
 2721TIP3   OH229653   6.199   4.143   0.756 -0.0754  0.0020 -0.7595
 2721TIP3    H129654   6.285   4.169   0.723 -1.2082  0.6281 -3.4531
 2721TIP3    H229655   6.217   4.111   0.844  2.8563  0.4566 -1.0706
 2722TIP3   OH229656   3.084   0.575   1.726 -0.1623 -0.0010 -0.0263
 2722TIP3    H129657   2.999   0.554   1.688 -0.1980 -0.9248  0.5194
 2722TIP3    H229658   3.096   0.509   1.794  0.7497  0.4534  0.2651
 2723TIP3   OH229659   4.358   4.386  14.069 -0.0068 -0.5893  0.0310
 2723TIP3    H129660   4.282   4.400  14.127  0.6467 -1.2077  1.0806
 2723TIP3    H229661   4.320   4.354  13.987 -0.9468  0.0362  0.2056
 2724TIP3   OH229662   3.762   4.413   1.370 -1.1201  0.0151 -0.3195
 2724TIP3    H129663   3.776   4.404   1.465  0.4713 -1.3794 -0.6209
 2724TIP3    H229664   3.687   4.471   1.362 -1.8752 -0.5532  1.8229
 2725TIP3   OH229665   4.097   4.067   6.362 -0.0348 -0.5966  0.3000
 2725TIP3    H129666   4.193   4.064   6.354 -0.0900 -0.9911 -0.2589
 2725TIP3    H229667   4.071   4.144   6.312  0.0996  0.4207  1.7172
 2726TIP3   OH229668   5.948   4.458  12.351 -0.1435  0.0641 -0.0837
 2726TIP3    H129669   5.952   4.396  12.423  0.3409  0.9274  0.6493
 2726TIP3    H229670   5.931   4.543  12.392  1.1376  0.7413 -0.8666
 2727TIP3   OH229671   3.148   5.781   0.031  0.4699  0.3438 -0.0660
 2727TIP3    H129672   3.239   5.769   0.004  0.6198  0.8449  0.2053
 2727TIP3    H229673   3.097   5.742  -0.040  0.8848  0.4654 -0.4370
 2728TIP3   OH229674   6.147   2.329   4.659 -0.5242  0.0883  0.4025
 2728TIP3    H129675   6.158   2.420   4.687 -0.3614 -0.0406  0.7631
 2728TIP3    H229676   6.222   2.283   4.698 -0.4652 -0.1504  0.0099
 2729TIP3   OH229677   0.405   1.154   4.392 -0.0385  0.6681 -0.1720
 2729TIP3    H129678   0.351   1.218   4.346  2.2510  0.1662 -3.9979
 2729TIP3    H229679   0.347   1.079   4.406 -1.4500  1.7352 -0.0918
 2730TIP3   OH229680   3.180   0.729   2.127  0.1613 -0.1822 -0.5906
 2730TIP3    H129681   3.212   0.771   2.047 -0.0864 -0.5152 -0.8661
 2730TIP3    H229682   3.173   0.636   2.104 -2.5126  0.0751 -1.0435
 2731TIP3   OH229683   1.266   2.914  16.166 -0.0911  0.4442 -0.2271
 2731TIP3    H129684   1.349   2.870  16.148  0.8445  1.7988  0.5889
 2731TIP3    H229685   1.199   2.846  16.151  1.0314 -0.3244 -2.1905
 2732TIP3   OH229686   0.403   4.488  14.092 -0.4177  0.3589  0.5048
 2732TIP3    H129687   0.326   4.487  14.150 -1.4172 -1.7757 -0.7152
 2732TIP3    H229688   0.464   4.426  14.132 -0.9792 -0.8779 -0.4685
 2733TIP3   OH229689   1.073   4.451   1.791 -0.1421 -0.4938 -0.3140
 2733TIP3    H129690   1.060   4.397   1.713  0.9135  0.5277 -1.2439
 2733TIP3    H229691   1.140   4.405   1.841  0.7962 -0.0527 -1.1311
 2734TIP3   OH229692   6.186   0.723  16.552  0.2579 -0.8600  0.1773
 2734TIP3    H129693   6.206   0.638  16.512  2.7684  0.0590 -0.6962
 2734TIP3    H229694   6.271   0.761  16.572 -0.8009  1.5109  0.5062
 2735TIP3   OH229695   4.849   1.569   2.161 -0.3024  0.3706 -1.0909
 2735TIP3    H129696   4.765   1.610   2.181  0.3666  1.0840  0.4377
 2735TIP3    H229697   4.888   1.551   2.247  0.2444 -1.8072 -1.7290
 2736TIP3   OH229698   6.234   4.744   4.498 -0.3541 -0.0102 -0.2870
 2736TIP3    H129699   6.211   4.804   4.569 -0.8812 -1.0864  0.4864
 2736TIP3    H229700   6.282   4.798   4.436 -0.0566  1.0148  0.7877
 2737TIP3   OH229701   4.741   4.411  10.570  0.2091  0.3667  0.0981
 2737TIP3    H129702   4.757   4.448  10.656  0.7782 -0.2854  0.2761
 2737TIP3    H229703   4.825   4.418  10.525  0.4138 -0.9956  0.2466
 2738TIP3   OH229704   5.010   2.181   5.092  0.4680  0.1980  0.3431
 2738TIP3    H129705   4.923   2.142   5.102  0.0919  0.7948 -0.4512
 2738TIP3    H229706   5.064   2.111   5.056 -0.4511  0.6060 -2.0762
 2739TIP3   OH229707   6.055   2.596  11.738 -0.1151  0.5152  0.6901
 2739TIP3    H129708   6.061   2.501  11.752  0.7786  0.5047  0.3189
 2739TIP3    H229709   6.011   2.629  11.817 -0.7210 -0.2377  0.6820
 2740TIP3   OH229710   5.181   6.017  13.155 -0.0949  0.3553  0.3798
 2740TIP3    H129711   5.191   5.991  13.064 -0.4201  0.3475  0.3439
 2740TIP3    H229712   5.254   6.077  13.172  0.5452 -0.4291  0.4079
 2741TIP3   OH229713   3.772   2.717   5.742 -0.2888  0.1467  0.0105
 2741TIP3    H129714   3.839   2.649   5.748 -1.1123 -0.6759  0.1415
 2741TIP3    H229715   3.821   2.799   5.744  0.7606 -0.4445 -0.6641
 2742TIP3   OH229716   5.707   0.336   4.700 -0.1251  0.1290  0.5180
 2742TIP3    H129717   5.614   0.334   4.722  0.3057 -0.3974  2.5146
 2742TIP3    H229718   5.752   0.320   4.783  1.7784  1.0131 -0.2714
 2743TIP3   OH229719   5.025   1.235  16.030  0.0793 -0.1615  0.3774
 2743TIP3    H129720   5.074   1.283  16.096  1.5432  0.1739 -0.9086
 2743TIP3    H229721   5.068   1.150  16.025 -0.5358 -0.4801  0.4230
 2744TIP3   OH229722   6.078   3.701  14.221  0.7423  0.4543  0.1827
 2744TIP3    H129723   6.014   3.746  14.275  1.3761  1.3659  0.1922
 2744TIP3    H229724   6.082   3.612  14.258  0.7948  0.9094  1.3010
 2745TIP3   OH229725   6.444   1.900   5.967  0.2154 -0.3933 -0.6889
 2745TIP3    H129726   6.366   1.934   5.923 -0.4672  1.2978  1.6157
 2745TIP3    H229727   6.516   1.917   5.905 -0.9071  0.3297 -1.8335
 2746TIP3   OH229728   2.163   3.743  11.371 -0.1454 -0.1900 -0.1377
 2746TIP3    H129729   2.166   3.816  11.309  0.9944  1.0179  1.2601
 2746TIP3    H229730   2.072   3.742  11.402 -0.3358  0.1941 -0.6739
 2747TIP3   OH229731   1.753   2.399   3.231 -0.5204  0.2412 -0.1146
 2747TIP3    H129732   1.824   2.427   3.289 -1.4256 -0.2314  1.2614
 2747TIP3    H229733   1.798   2.362   3.155  0.7005  0.6391  0.3845
 2748TIP3   OH229734   5.675   5.570  12.238  0.2733  0.0400  0.0114
 2748TIP3    H129735   5.622   5.498  12.272 -0.7947  1.3893  1.3792
 2748TIP3    H229736   5.735   5.591  12.310 -2.5235  3.4337  1.6731
 2749TIP3   OH229737   2.735   4.200  11.255  0.1714 -0.1212 -0.6287
 2749TIP3    H129738   2.783   4.174  11.176  1.3998 -0.6640  0.2501
 2749TIP3    H229739   2.759   4.134  11.320  0.0509  0.9176  0.5067
 2750TIP3   OH229740   0.745   2.019   3.553  0.2520 -0.0146 -0.4002
 2750TIP3    H129741   0.713   2.051   3.469  2.1303  3.3395 -0.0365
 2750TIP3    H229742   0.689   2.062   3.618  0.8973  0.1309  0.0740
 2751TIP3   OH229743   1.152   0.016   0.240  0.8250 -0.2367 -0.0370
 2751TIP3    H129744   1.186   0.097   0.278 -0.2659  0.3009 -0.1877
 2751TIP3    H229745   1.169  -0.050   0.307  2.6276 -0.1125 -0.3104
 2752TIP3   OH229746   3.435   4.407  13.406  0.1007 -0.1592  0.1118
 2752TIP3    H129747   3.451   4.364  13.490  1.0548 -2.8666 -1.3353
 2752TIP3    H229748   3.460   4.499  13.420 -0.7197 -0.3061  3.0059
 2753TIP3   OH229749   2.523   6.734  13.222 -0.1570  0.0040 -1.2268
 2753TIP3    H129750   2.611   6.770  13.230 -0.9000  1.7186 -0.1379
 2753TIP3    H229751   2.528   6.648  13.262  1.1690 -0.2272 -1.8331
 2754TIP3   OH229752   2.281   6.183  11.217  0.2370 -0.0233  0.8323
 2754TIP3    H129753   2.225   6.237  11.273  3.1171  0.7451  3.2989
 2754TIP3    H229754   2.300   6.239  11.142 -2.7231 -0.5947 -0.4653
 2755TIP3   OH229755   3.706   4.124  16.408 -0.2355 -0.4656 -0.2092
 2755TIP3    H129756   3.642   4.151  16.342 -0.0202  0.4749 -0.0608
 2755TIP3    H229757   3.790   4.155  16.374  0.0940 -1.3912 -0.2444
 2756TIP3   OH229758   2.495   3.361   0.185 -0.0329  0.2192  0.1776
 2756TIP3    H129759   2.455   3.274   0.193 -0.4021  0.5015  1.8732
 2756TIP3    H229760   2.491   3.397   0.274  0.6851  1.7252 -0.3682
 2757TIP3   OH229761   6.374   0.656  14.011  0.5500 -0.4464  0.1788
 2757TIP3    H129762   6.391   0.566  13.983 -0.0856  0.0557 -2.0577
 2757TIP3    H229763   6.295   0.682  13.962  0.1447  1.0220  1.5153
 2758TIP3   OH229764   4.118   2.873  16.635  0.3056 -0.1774 -0.0085
 2758TIP3    H129765   4.107   2.802  16.698 -2.3023  0.1036 -0.0434
 2758TIP3    H229766   4.075   2.841  16.556  1.8092  0.2706 -1.0513
 2759TIP3   OH229767   1.702   2.680  13.533 -0.0912 -0.4574 -0.3405
 2759TIP3    H129768   1.792   2.692  13.562 -0.3982  0.2018  0.3817
 2759TIP3    H229769   1.697   2.727  13.450  0.0183  0.2417  0.0374
 2760TIP3   OH229770   0.704   2.730   3.675  0.6284  0.1204  0.7676
 2760TIP3    H129771   0.684   2.703   3.586 -1.0522  0.5779  0.9711
 2760TIP3    H229772   0.710   2.826   3.670 -0.3573  0.2245  1.2783
 2761TIP3   OH229773   1.011   6.345   4.896 -0.2839 -0.1276  0.0701
 2761TIP3    H129774   1.010   6.346   4.800  0.0598  0.2376  0.0709
 2761TIP3    H229775   0.923   6.317   4.920 -0.4857  0.1327 -0.3503
 2762TIP3   OH229776   1.737   5.532  15.439  0.0486 -0.2379 -0.3854
 2762TIP3    H129777   1.687   5.594  15.385 -0.9323 -1.7754 -1.3157
 2762TIP3    H229778   1.696   5.539  15.525 -0.7969 -0.3858 -0.7619
 2763TIP3   OH229779   1.323   1.126   1.907  0.0978  0.1724  0.4027
 2763TIP3    H129780   1.327   1.219   1.885  0.6866 -0.0076 -0.3148
 2763TIP3    H229781   1.352   1.082   1.827 -0.0558 -0.6196  0.7784
 2764TIP3   OH229782   3.901   0.261  10.750 -0.0645  0.0329  0.0508
 2764TIP3    H129783   3.858   0.342  10.723 -2.3495 -0.1372  2.7115
 2764TIP3    H229784   3.994   0.275  10.731 -0.8263  1.6228 -3.2522
 2765TIP3   OH229785   3.084   1.583  15.032 -0.0311 -0.2970 -0.3439
 2765TIP3    H129786   3.061   1.643  14.962  0.0636 -0.4693 -0.5232
 2765TIP3    H229787   3.179   1.579  15.030  0.1974  1.8019  1.5391
 2766TIP3   OH229788   3.972   2.328   2.423  0.2590 -0.2738  0.4503
 2766TIP3    H129789   4.002   2.418   2.417  1.6133 -0.7425 -0.2036
 2766TIP3    H229790   3.905   2.320   2.355  0.9382 -0.0605 -0.2469
 2767TIP3   OH229791   6.796   6.512   1.173 -0.0818  0.5122 -0.3631
 2767TIP3    H129792   6.743   6.591   1.162  1.6116  1.7237 -0.1687
 2767TIP3    H229793   6.833   6.495   1.086 -2.2215 -1.4846 -0.9979
 2768TIP3   OH229794   6.082   6.212   3.057 -0.1682 -0.0155  0.1003
 2768TIP3    H129795   6.175   6.222   3.077 -0.3847  1.9401  0.3329
 2768TIP3    H229796   6.080   6.167   2.973  0.9367 -1.1106  0.6261
 2769TIP3   OH229797   5.808   2.696  15.233 -0.4685 -0.2297 -0.2284
 2769TIP3    H129798   5.839   2.776  15.192  0.4427 -0.8882 -0.8660
 2769TIP3    H229799   5.741   2.725  15.294  1.8403  1.3532  1.7330
 2770TIP3   OH229800   5.672   0.197   2.867  0.3986  0.3924 -0.2377
 2770TIP3    H129801   5.588   0.155   2.889  0.5972  0.2670  0.3141
 2770TIP3    H229802   5.685   0.179   2.775  0.0554 -0.0125 -0.2100
 2771TIP3   OH229803   2.233   2.215   4.548 -0.3004 -0.1610  0.2212
 2771TIP3    H129804   2.300   2.236   4.613 -0.3128 -1.8293  0.8254
 2771TIP3    H229805   2.153   2.205   4.598 -0.7067  0.3684 -0.3084
 2772TIP3   OH229806   0.096   2.695  15.256  0.1782  0.4450  0.2303
 2772TIP3    H129807   0.026   2.668  15.317 -0.9242  2.7008  0.0490
 2772TIP3    H229808   0.169   2.718  15.313 -0.1254  0.5269  0.5944
 2773TIP3   OH229809   4.389   5.801   0.216  0.3058  0.0915  0.1256
 2773TIP3    H129810   4.456   5.831   0.276  0.6820 -1.9379  0.7956
 2773TIP3    H229811   4.312   5.854   0.237  0.8654  0.4498  1.3523
 2774TIP3   OH229812   3.183   2.388   5.183 -0.0407 -0.4454 -0.1423
 2774TIP3    H129813   3.132   2.314   5.218 -1.6019  0.9200  0.6092
 2774TIP3    H229814   3.117   2.445   5.143  0.4164  2.6172  3.0324
 2775TIP3   OH229815   3.836   6.609   5.260  0.2053  0.6880  0.4149
 2775TIP3    H129816   3.814   6.650   5.176 -1.0120 -0.9251 -0.0923
 2775TIP3    H229817   3.754   6.607   5.308  0.3605 -0.5643  0.6594
 2776TIP3   OH229818   0.567   1.180   2.790 -0.3110 -0.4134 -0.6617
 2776TIP3    H129819   0.548   1.190   2.883  0.1928  0.2681 -0.6197
 2776TIP3    H229820   0.658   1.149   2.787 -0.0108  0.4451 -0.9275
 2777TIP3   OH229821   2.375   1.447   0.921 -0.9473 -0.4528  0.2481
 2777TIP3    H129822   2.282   1.472   0.924 -0.7406  0.2763  0.8171
 2777TIP3    H229823   2.396   1.444   0.828 -1.4904 -0.4365  0.1208
 2778TIP3   OH229824   0.871   0.802   4.286 -0.2097  0.1219  0.3519
 2778TIP3    H129825   0.779   0.777   4.280 -0.4468  1.1875 -1.0039
 2778TIP3    H229826   0.872   0.877   4.345 -0.5586  1.4518 -1.2469
 2779TIP3   OH229827   6.429   3.756  10.937 -0.7721  0.6458 -0.2398
 2779TIP3    H129828   6.373   3.681  10.957 -0.1136  0.2986  0.3824
 2779TIP3    H229829   6.369   3.824  10.907 -1.3949 -0.0883 -0.6976
 2780TIP3   OH229830   4.444   0.216  11.545 -0.2363 -0.1089  0.0553
 2780TIP3    H129831   4.482   0.301  11.523  1.0800 -1.2982 -2.8139
 2780TIP3    H229832   4.385   0.197  11.473  0.5550 -2.2042 -0.0931
 2781TIP3   OH229833   4.737   5.250  11.790 -0.2346  0.2703  0.3933
 2781TIP3    H129834   4.777   5.226  11.707 -0.2740 -0.0847  0.4756
 2781TIP3    H229835   4.645   5.268  11.768 -0.1186  0.7085  0.2691
 2782TIP3   OH229836   3.116   4.234   1.640 -0.1420  0.2883 -0.1817
 2782TIP3    H129837   3.201   4.247   1.597 -1.0234  0.9879 -1.8392
 2782TIP3    H229838   3.077   4.160   1.594 -0.4054 -0.0817  0.6254
 2783TIP3   OH229839   6.242   0.844   0.038  0.4668  0.1328  0.2221
 2783TIP3    H129840   6.281   0.914  -0.015  0.7295 -0.0943  0.1111
 2783TIP3    H229841   6.148   0.857   0.031  0.5019  0.0960 -0.3132
 2784TIP3   OH229842   2.005   2.255  11.900 -0.1708 -0.1728  0.2690
 2784TIP3    H129843   2.033   2.305  11.976  2.1670 -0.8179 -0.0894
 2784TIP3    H229844   1.956   2.181  11.937  3.1150 -1.9568  1.5015
 2785TIP3   OH229845   3.088   5.301  10.601 -0.2023 -0.0398 -0.9043
 2785TIP3    H129846   3.179   5.272  10.605 -0.6962 -1.6459 -0.7911
 2785TIP3    H229847   3.093   5.396  10.612  1.3744 -0.2136  0.3189
 2786TIP3   OH229848   3.750   1.442   1.202 -0.1025 -0.2963 -0.3569
 2786TIP3    H129849   3.687   1.418   1.134  0.8387 -0.2449 -1.2738
 2786TIP3    H229850   3.797   1.518   1.166  0.2678 -0.1310  0.4437
 2787TIP3   OH229851   4.185   5.240  13.367  0.2709 -0.3326 -0.3071
 2787TIP3    H129852   4.278   5.261  13.361 -0.1447  1.6882 -0.1867
 2787TIP3    H229853   4.184   5.146  13.387  2.3268 -0.0961  1.2914
 2788TIP3   OH229854   2.108   1.216  12.377 -0.5989  0.4861  0.0172
 2788TIP3    H129855   2.100   1.191  12.286  2.2833 -0.6334 -0.0403
 2788TIP3    H229856   2.133   1.309  12.374 -1.0305  0.5939 -0.2974
 2789TIP3   OH229857   4.623   5.518   2.184 -0.0490 -0.2066 -0.0457
 2789TIP3    H129858   4.687   5.560   2.125 -0.6970 -0.5823 -1.0372
 2789TIP3    H229859   4.567   5.590   2.213  1.0622  0.2017  1.1770
 2790TIP3   OH229860   1.092   6.736  11.926  0.2682 -0.2040 -0.0397
 2790TIP3    H129861   1.149   6.694  11.991  1.2899 -0.3543 -1.0025
 2790TIP3    H229862   1.044   6.802  11.976  1.2886 -0.0739  0.8107
 2791TIP3   OH229863   2.027   6.144  14.723  0.1418  0.3405 -0.3096
 2791TIP3    H129864   1.973   6.221  14.707  2.0706  1.5462 -1.5517
 2791TIP3    H229865   1.985   6.074  14.672 -1.0277  0.8513 -0.0635
 2792TIP3   OH229866   0.538   0.196   4.555 -0.4929  0.0913  0.0341
 2792TIP3    H129867   0.469   0.130   4.547 -3.3947  2.8205  0.2960
 2792TIP3    H229868   0.571   0.208   4.466 -1.1303 -0.5207 -0.2916
 2793TIP3   OH229869   3.513   3.473   3.925  0.0447 -0.0533  0.1900
 2793TIP3    H129870   3.553   3.560   3.918 -0.6057  0.2244 -0.1458
 2793TIP3    H229871   3.575   3.415   3.880  0.0379  0.3884 -0.4084
 2794TIP3   OH229872   5.803   6.109  16.350 -0.1393 -0.1013  0.0708
 2794TIP3    H129873   5.779   6.068  16.433 -0.6133  0.5671  0.2744
 2794TIP3    H229874   5.721   6.114  16.301  0.0704 -0.1562 -0.2932
 2795TIP3   OH229875   0.345   2.247  12.528 -0.0900 -0.1318 -0.2674
 2795TIP3    H129876   0.255   2.215  12.524 -0.0966 -0.4932  1.9142
 2795TIP3    H229877   0.382   2.225  12.442 -1.7457 -0.9653 -0.8010
 2796TIP3   OH229878   5.771   2.204   2.029 -0.1246  0.0323  0.0517
 2796TIP3    H129879   5.824   2.131   1.997 -0.3135  0.9748 -2.5978
 2796TIP3    H229880   5.698   2.210   1.968 -0.0953  2.4413  0.1522
 2797TIP3   OH229881   6.643   1.108   1.920 -0.6783 -0.2762 -0.3328
 2797TIP3    H129882   6.669   1.073   1.835  0.7456 -0.8380  0.2859
 2797TIP3    H229883   6.615   1.031   1.969 -1.6375  0.0644 -0.3330
 2798TIP3   OH229884   2.288   2.720  13.309  0.1119  0.1891  0.4078
 2798TIP3    H129885   2.292   2.632  13.347  0.9258 -0.1218 -0.3469
 2798TIP3    H229886   2.197   2.747  13.320 -0.7916 -1.7178 -1.4544
 2799TIP3   OH229887   3.801   2.942   5.199  0.0137 -0.2125 -0.1244
 2799TIP3    H129888   3.764   3.025   5.171 -0.0521 -0.2631 -0.1859
 2799TIP3    H229889   3.864   2.920   5.131 -1.5505 -1.3192 -1.2730
 2800TIP3   OH229890   5.630   5.401   5.620 -0.4168 -0.0730 -0.8362
 2800TIP3    H129891   5.608   5.475   5.564  0.1175 -0.2425 -1.2817
 2800TIP3    H229892   5.699   5.433   5.678 -0.8281  0.0430 -0.4040
 2801TIP3   OH229893   2.263   2.784   2.891 -1.1405 -0.5418 -0.3555
 2801TIP3    H129894   2.271   2.878   2.906  1.1612 -0.4076 -1.9405
 2801TIP3    H229895   2.172   2.773   2.863 -2.2108  0.7550  2.3001
 2802TIP3   OH229896   6.158   5.352   1.355  0.4119 -0.1179  0.2001
 2802TIP3    H129897   6.091   5.301   1.311 -1.2045 -1.0819  3.4648
 2802TIP3    H229898   6.233   5.292   1.363  0.4755 -0.1494 -0.5807
 2803TIP3   OH229899   5.027   6.172   0.018  0.4830  0.7181  0.0003
 2803TIP3    H129900   5.062   6.084   0.030  0.3279  0.5440 -0.7567
 2803TIP3    H229901   5.093   6.216  -0.036  0.3827  0.9508  0.0674
 2804TIP3   OH229902   0.027   1.396  15.424 -0.2405 -0.0167 -0.3471
 2804TIP3    H129903   0.068   1.341  15.491 -1.0622  0.2380  0.3715
 2804TIP3    H229904  -0.002   1.474  15.470  0.3823  0.7710 -1.2555
 2805TIP3   OH229905   0.002   1.863   5.184 -0.0241 -0.1046  0.2735
 2805TIP3    H129906  -0.068   1.802   5.206 -1.0757  1.0629  0.2946
 2805TIP3    H229907   0.036   1.832   5.100 -1.7155  0.2500 -0.5806
 2806TIP3   OH229908   4.338   5.479   5.471 -0.1498 -0.2125  0.2505
 2806TIP3    H129909   4.285   5.487   5.551  1.7543 -2.2261  1.8678
 2806TIP3    H229910   4.292   5.415   5.417 -1.1190  0.6737  0.0023
 2807TIP3   OH229911   0.324   4.912  16.731 -0.1945  0.0945  0.2139
 2807TIP3    H129912   0.248   4.969  16.737  0.1064  0.6352 -0.9163
 2807TIP3    H229913   0.399   4.969  16.748  0.0092 -0.2903  0.6374
 2808TIP3   OH229914   3.864   2.664   3.094  0.4254 -0.5395  0.0135
 2808TIP3    H129915   3.849   2.713   3.013  0.3726  0.7836  0.8050
 2808TIP3    H229916   3.811   2.585   3.085  0.2280 -0.2870 -1.1280
 2809TIP3   OH229917   0.376   0.158   3.353 -0.4295 -0.5018  0.1839
 2809TIP3    H129918   0.328   0.080   3.379  0.4917 -1.1001  0.1508
 2809TIP3    H229919   0.378   0.213   3.431  0.4179 -1.3009  0.7514
 2810TIP3   OH229920   3.453   4.044  16.692 -0.1554  0.2878 -0.1619
 2810TIP3    H129921   3.458   3.950  16.711  2.4297  0.1334 -1.2372
 2810TIP3    H229922   3.379   4.053  16.631 -1.8786 -0.6548  1.6684
 2811TIP3   OH229923   1.021   3.463   4.197  0.4760 -0.3187  0.5095
 2811TIP3    H129924   0.938   3.508   4.186  1.7865  2.4090  0.8660
 2811TIP3    H229925   0.999   3.380   4.238 -2.2869 -0.9238 -1.9243
 2812TIP3   OH229926   5.070   1.888   4.188 -0.9719  0.1755 -0.3275
 2812TIP3    H129927   5.003   1.956   4.188 -0.8694  0.2767 -0.9836
 2812TIP3    H229928   5.123   1.907   4.266 -0.4475  1.3403 -0.9476
 2813TIP3   OH229929   3.401   4.014   2.659  0.2791 -0.8037  0.0657
 2813TIP3    H129930   3.327   4.062   2.696 -1.0444 -1.6267 -1.4115
 2813TIP3    H229931   3.445   4.077   2.602  0.5628 -0.3973  0.7224
 2814TIP3   OH229932   5.238   5.030   3.160 -0.3309 -0.1741  0.6294
 2814TIP3    H129933   5.301   4.982   3.214 -0.3852 -0.8353  0.1136
 2814TIP3    H229934   5.190   5.085   3.222 -0.3713 -0.9037  1.2569
 2815TIP3   OH229935   1.493   4.030   2.338  0.2634  0.0213  0.1696
 2815TIP3    H129936   1.565   4.024   2.400  1.0406  1.1431 -0.5787
 2815TIP3    H229937   1.426   3.972   2.373  0.5691  0.7956  2.1973
 2816TIP3   OH229938   6.297   6.761  12.674 -0.1343 -0.4128 -0.1379
 2816TIP3    H129939   6.338   6.681  12.708 -0.2399 -0.2426  0.4120
 2816TIP3    H229940   6.370   6.813  12.641 -0.1691 -1.1986 -1.5238
 2817TIP3   OH229941   2.573   4.104   3.381  0.4819 -0.2619  0.0401
 2817TIP3    H129942   2.493   4.125   3.428  0.8145  0.5291  0.2730
 2817TIP3    H229943   2.613   4.034   3.432  1.8372  1.8739  2.1688
 2818TIP3   OH229944   1.197   5.581   3.313 -0.2147  0.4284  0.6596
 2818TIP3    H129945   1.116   5.574   3.364 -0.8262  2.1331  0.0103
 2818TIP3    H229946   1.230   5.669   3.334  1.2089 -0.0576  0.5356
 2819TIP3   OH229947   2.854   6.227   0.322  0.3262  0.0619  0.2881
 2819TIP3    H129948   2.767   6.222   0.361  0.2048 -2.9561 -0.0998
 2819TIP3    H229949   2.914   6.203   0.393  1.1279  3.6101  0.9892
 2820TIP3   OH229950   3.533   6.323  13.777  0.6197  0.1764 -0.2428
 2820TIP3    H129951   3.458   6.265  13.790  1.1050 -0.5239 -0.5091
 2820TIP3    H229952   3.569   6.298  13.691  0.8817  0.8189 -0.3297
 2821TIP3   OH229953   3.568   5.251  12.004 -0.0983 -0.0877  0.5475
 2821TIP3    H129954   3.568   5.277  12.096  1.0813  0.4209  0.4179
 2821TIP3    H229955   3.619   5.318  11.960 -1.5017  0.2315 -0.6642
 2822TIP3   OH229956   0.492   4.697   0.539  0.1093  0.0672  0.1804
 2822TIP3    H129957   0.448   4.734   0.616  1.6657  1.1815  0.5980
 2822TIP3    H229958   0.546   4.627   0.574 -1.7088 -1.7220 -0.4160
 2823TIP3   OH229959   6.340   5.123   5.212 -0.0993 -0.1670  0.4035
 2823TIP3    H129960   6.248   5.136   5.239 -0.6677 -1.8189 -0.6264
 2823TIP3    H229961   6.346   5.030   5.190  1.4291  0.2321 -1.0591
 2824TIP3   OH229962   5.108   3.228   1.665 -0.0450  0.0503  0.2014
 2824TIP3    H129963   5.151   3.176   1.597 -0.9075 -1.6604  0.9192
 2824TIP3    H229964   5.179   3.280   1.702  1.0791 -1.3482  0.1183
 2825TIP3   OH229965   5.985   4.182   5.147  0.1716  0.2344  0.0314
 2825TIP3    H129966   5.972   4.128   5.069 -1.6706 -0.6114  0.8692
 2825TIP3    H229967   6.035   4.127   5.207  0.7753  0.5478 -0.1667
 2826TIP3   OH229968   5.372   5.193   5.617  0.4640  0.3593 -0.5292
 2826TIP3    H129969   5.447   5.190   5.676 -0.6354 -1.5054  0.8910
 2826TIP3    H229970   5.409   5.183   5.529  1.8536 -1.2207  0.1926
 2827TIP3   OH229971   3.459   0.618  11.577  0.9105  0.4189  0.1863
 2827TIP3    H129972   3.481   0.589  11.665  0.4807  0.7780  0.4143
 2827TIP3    H229973   3.532   0.675  11.551  1.9310 -1.0726 -0.3916
 2828TIP3   OH229974   5.978   1.975  12.148 -0.0095 -0.6668 -0.0917
 2828TIP3    H129975   6.004   2.029  12.223  2.1234  1.4493 -2.2130
 2828TIP3    H229976   6.032   1.896  12.155  3.0299  1.1669 -1.3103
 2829TIP3   OH229977   3.597   5.724  15.484 -0.0838 -0.0028  0.3532
 2829TIP3    H129978   3.556   5.660  15.543 -1.1996  0.0709 -0.3178
 2829TIP3    H229979   3.611   5.675  15.403  0.0287  0.3089  0.1864
 2830TIP3   OH229980   3.740   2.178  15.037  0.3231 -0.2283 -0.5003
 2830TIP3    H129981   3.781   2.258  15.070  0.5143 -0.7537  0.5820
 2830TIP3    H229982   3.713   2.130  15.116  0.0738 -1.1615 -1.1308
 2831TIP3   OH229983   6.295   5.191   1.932 -0.0188 -0.0811 -0.2104
 2831TIP3    H129984   6.388   5.179   1.914 -0.2703 -1.3667 -0.7114
 2831TIP3    H229985   6.252   5.118   1.888 -1.1382 -0.2959  1.1665
 2832TIP3   OH229986   5.645   2.246  16.144 -0.6322  0.0041  0.2914
 2832TIP3    H129987   5.582   2.260  16.074 -0.0509 -0.9633 -0.4558
 2832TIP3    H229988   5.656   2.151  16.148 -1.0286 -0.0028  2.0507
 2833TIP3   OH229989   3.936   0.085   1.734 -0.2930  0.0001 -0.5940
 2833TIP3    H129990   3.939  -0.003   1.697 -3.5829  0.3349 -2.0759
 2833TIP3    H229991   3.946   0.072   1.828 -0.4132 -1.9236 -0.8095
 2834TIP3   OH229992   5.232   2.638   4.600 -0.3053  0.3806 -0.3640
 2834TIP3    H129993   5.277   2.681   4.527  0.3500  1.5085  0.6656
 2834TIP3    H229994   5.227   2.546   4.574  2.5965  0.1846 -0.5841
 2835TIP3   OH229995   2.474   5.214   4.675 -0.3782 -0.0953 -0.0751
 2835TIP3    H129996   2.460   5.301   4.710  1.9129  0.5646 -0.6240
 2835TIP3    H229997   2.557   5.220   4.628 -1.5490 -1.8167 -2.6470
 2836TIP3   OH229998   3.789   1.448   5.003  0.4848 -0.0303  0.5537
 2836TIP3    H129999   3.765   1.532   5.042 -1.3836 -0.5264  0.5481
 2836TIP3    H230000   3.780   1.461   4.909  1.3239  0.0792  0.4810
 2837TIP3   OH230001   1.415   0.464  11.859 -0.0830  0.3366  0.6818
 2837TIP3    H130002   1.324   0.454  11.889 -1.2167 -2.4554 -2.9226
 2837TIP3    H230003   1.468   0.427  11.929 -2.4721 -5.4682 -0.0368
 2838TIP3   OH230004   2.314   6.582  15.349  0.9263 -0.1516  0.1377
 2838TIP3    H130005   2.224   6.576  15.317  1.3229  1.8503 -1.6371
 2838TIP3    H230006   2.307   6.634  15.430  0.4351 -0.6115  0.3974
 2839TIP3   OH230007   3.538   1.107  11.299 -0.2050  0.8688  0.0694
 2839TIP3    H130008   3.565   1.176  11.359 -0.6946  0.3722  0.8866
 2839TIP3    H230009   3.618   1.056  11.284  0.0897  1.4441 -0.3052
 2840TIP3   OH230010   1.721   4.258  14.376 -0.0751 -0.0733 -0.3524
 2840TIP3    H130011   1.742   4.167  14.355  1.2030  0.2187 -0.4190
 2840TIP3    H230012   1.668   4.288  14.301 -1.1155 -0.9528  0.0101
 2841TIP3   OH230013   6.199   5.710   6.435  0.3558 -0.1145 -0.8233
 2841TIP3    H130014   6.234   5.764   6.506 -0.3502 -1.3551  0.5061
 2841TIP3    H230015   6.277   5.680   6.388  0.8262  0.8393 -0.6784
 2842TIP3   OH230016   3.503   0.701   4.274 -0.4099  0.2224 -0.3184
 2842TIP3    H130017   3.573   0.748   4.318  0.2391 -0.1896 -0.9033
 2842TIP3    H230018   3.423   0.750   4.298 -0.3403 -0.9580  2.6932
 2843TIP3   OH230019   2.319   2.164  11.315  0.8622  0.5707  0.1862
 2843TIP3    H130020   2.275   2.246  11.337  1.1858  0.9673 -0.6295
 2843TIP3    H230021   2.312   2.158  11.220  0.2234 -0.7045  0.2943
 2844TIP3   OH230022   5.060   6.549  15.937 -0.1111  0.4713 -0.4217
 2844TIP3    H130023   5.113   6.627  15.924 -1.5768  2.0600  2.2360
 2844TIP3    H230024   5.028   6.527  15.849  1.4042  2.0302 -1.4308
 2845TIP3   OH230025   2.956   4.853  11.890  0.6080 -0.1392  0.0587
 2845TIP3    H130026   2.867   4.850  11.855  0.5948 -1.4057  0.1688
 2845TIP3    H230027   2.999   4.923  11.840 -0.6189  0.9167  0.4402
 2846TIP3   OH230028   6.091   6.355  12.902  0.1978  0.1420  0.0541
 2846TIP3    H130029   6.041   6.432  12.930  0.0219  0.1063 -0.1606
 2846TIP3    H230030   6.173   6.361  12.951 -0.0694  0.1276  0.5072
 2847TIP3   OH230031   4.273   3.098  15.409 -0.0877 -0.8847 -0.1119
 2847TIP3    H130032   4.281   3.025  15.348  0.3384 -0.8133 -0.1474
 2847TIP3    H230033   4.193   3.080  15.458 -1.1791 -0.2660 -1.5871
 2848TIP3   OH230034   1.296   4.827   2.650 -0.0263 -0.5305  0.5846
 2848TIP3    H130035   1.388   4.849   2.666  0.0205  0.9878 -1.3009
 2848TIP3    H230036   1.250   4.911   2.659 -0.8473 -0.8118 -0.7668
 2849TIP3   OH230037   3.339   4.488  12.921  0.1406 -0.2632 -0.9028
 2849TIP3    H130038   3.404   4.422  12.898  1.1542 -0.9222  3.1123
 2849TIP3    H230039   3.390   4.564  12.948 -0.8414  0.2574 -0.4599
 2850TIP3   OH230040   6.461   5.484   3.225 -0.6935 -0.3295 -0.0315
 2850TIP3    H130041   6.502   5.506   3.309 -0.2655  0.9825 -0.5625
 2850TIP3    H230042   6.436   5.569   3.188  0.1415 -0.7924 -1.7457
 2851TIP3   OH230043   2.064   0.104   0.472 -0.1042 -0.1220 -0.3536
 2851TIP3    H130044   2.062   0.197   0.449 -0.0645 -0.3747 -1.4245
 2851TIP3    H230045   2.016   0.061   0.401  1.0027 -1.0537 -0.5529
 2852TIP3   OH230046   2.120   3.246  10.646  0.2534 -0.6168  0.0302
 2852TIP3    H130047   2.170   3.315  10.601 -0.6477  0.8111  1.1489
 2852TIP3    H230048   2.103   3.181  10.577  0.8957  0.3871 -1.1247
 2853TIP3   OH230049   0.986   6.701  16.425 -0.3954  0.0908 -0.0128
 2853TIP3    H130050   1.023   6.616  16.452  0.0627  0.1394 -0.4747
 2853TIP3    H230051   0.894   6.681  16.406 -0.7579  0.0674  1.6164
 2854TIP3   OH230052   6.239   4.309   1.357  0.5820 -0.2986  0.2581
 2854TIP3    H130053   6.193   4.226   1.366  1.8851 -1.1111 -0.4504
 2854TIP3    H230054   6.190   4.356   1.289 -0.7561 -0.0322  1.3627
 2855TIP3   OH230055   6.123   2.038  10.804  0.1609  0.6003 -0.1825
 2855TIP3    H130056   6.136   2.046  10.899 -0.8903  0.3444 -0.0043
 2855TIP3    H230057   6.186   1.972  10.777 -1.1903 -1.1753  0.7711
 2856TIP3   OH230058   2.471   6.395  16.695 -0.6889 -0.2106 -0.0586
 2856TIP3    H130059   2.444   6.482  16.725  0.9330  0.7970 -1.3730
 2856TIP3    H230060   2.567   6.396  16.703 -0.5538 -1.4234 -1.2428
 2857TIP3   OH230061   3.137   3.891   2.466  0.2351  0.4809  0.3109
 2857TIP3    H130062   3.068   3.955   2.487  0.5445  0.9596 -0.0879
 2857TIP3    H230063   3.204   3.905   2.533  1.1051  1.8293 -0.7656
 2858TIP3   OH230064   2.679   5.584  13.938  0.1376  0.2935  0.3950
 2858TIP3    H130065   2.713   5.671  13.958  2.0401 -0.8136  2.4170
 2858TIP3    H230066   2.625   5.560  14.013  0.5844 -0.7089  0.4235
 2859TIP3   OH230067   1.248   4.755  14.671 -0.2595 -0.5501  0.2839
 2859TIP3    H130068   1.310   4.772  14.600  0.1665 -0.9347  0.5565
 2859TIP3    H230069   1.191   4.832  14.671 -0.5055 -0.7133 -0.7152
 2860TIP3   OH230070   4.452   0.077   2.616  1.1804  0.0524  0.2967
 2860TIP3    H130071   4.416   0.018   2.681  0.1586  2.5590  2.1766
 2860TIP3    H230072   4.395   0.067   2.539  0.0257 -0.2362  1.1661
 2861TIP3   OH230073   0.614   2.767   1.542  0.1114  0.2073 -0.2090
 2861TIP3    H130074   0.575   2.686   1.509 -1.7367  0.8539  0.2629
 2861TIP3    H230075   0.685   2.738   1.599  0.7465 -1.0162 -1.5448
 2862TIP3   OH230076   0.100   0.519   2.496 -0.3767 -0.1741 -0.1170
 2862TIP3    H130077   0.018   0.554   2.461 -0.5839  0.7560  1.2318
 2862TIP3    H230078   0.148   0.596   2.528  0.0818 -0.9018  1.0195
 2863TIP3   OH230079   6.529   0.917  14.056  0.1825  0.4173  0.2815
 2863TIP3    H130080   6.598   0.932  13.991 -0.5873  2.2514 -0.1803
 2863TIP3    H230081   6.508   0.824  14.048  0.3574  0.5128 -1.8605
 2864TIP3   OH230082   6.748   3.240   2.574 -0.3847 -0.4457 -0.0181
 2864TIP3    H130083   6.817   3.305   2.580 -0.2448 -0.6502  0.8654
 2864TIP3    H230084   6.667   3.290   2.574 -0.2418 -0.2119 -0.8913
 2865TIP3   OH230085   5.599   1.877  10.809  0.1043 -0.0357 -0.0074
 2865TIP3    H130086   5.680   1.828  10.795 -0.4852 -1.1666  0.4166
 2865TIP3    H230087   5.610   1.957  10.758  2.0804  0.5276  1.1683
 2866TIP3   OH230088   5.834   6.074  15.289 -0.1819 -0.0266  0.2354
 2866TIP3    H130089   5.899   6.057  15.221 -0.3431 -0.4266  0.1775
 2866TIP3    H230090   5.877   6.051  15.370  0.5052  1.7759  0.4364
 2867TIP3   OH230091   3.339   6.688   5.639 -0.7830 -0.2362  0.0444
 2867TIP3    H130092   3.350   6.602   5.679 -0.4054  0.5089  1.6028
 2867TIP3    H230093   3.253   6.718   5.670 -1.2295 -0.3140 -1.0572
 2868TIP3   OH230094   3.602   0.976  15.291  0.7780  0.0075  0.1644
 2868TIP3    H130095   3.693   1.002  15.298  0.7423 -0.1957  1.6921
 2868TIP3    H230096   3.602   0.882  15.310  0.2228  0.0717  0.5217
 2869TIP3   OH230097   0.857   2.188  15.914  0.2016 -0.3928 -0.0459
 2869TIP3    H130098   0.910   2.168  15.991 -0.3148  0.6953  0.6253
 2869TIP3    H230099   0.774   2.220  15.951 -0.3590 -0.6631 -1.0612
 2870TIP3   OH230100   0.284   5.815  13.259  0.6206  0.3915  0.3149
 2870TIP3    H130101   0.353   5.802  13.193  3.2304 -0.9338  3.0693
 2870TIP3    H230102   0.226   5.740  13.248  1.1444  0.0665 -0.3190
 2871TIP3   OH230103   6.414   0.251   4.499  0.2350  0.0993 -0.3560
 2871TIP3    H130104   6.447   0.318   4.558 -0.5110 -0.8089  1.1433
 2871TIP3    H230105   6.444   0.278   4.412  1.3872  1.4505  0.4342
 2872TIP3   OH230106   3.052   4.140   4.002 -0.5468  0.2568  0.1829
 2872TIP3    H130107   2.977   4.189   3.968 -0.0917 -0.6642 -2.3943
 2872TIP3    H230108   3.127   4.177   3.955  0.1003 -1.2692 -0.0336
 2873TIP3   OH230109   4.842   6.587   2.398 -0.4807  0.3793 -0.2119
 2873TIP3    H130110   4.833   6.554   2.309 -0.7382  0.1698 -0.1089
 2873TIP3    H230111   4.758   6.569   2.439  0.1998 -1.1455  0.6019
 2874TIP3   OH230112   1.086   2.398   1.615  0.1619  0.2261  0.6076
 2874TIP3    H130113   1.101   2.341   1.540  0.3994  1.4657 -0.3285
 2874TIP3    H230114   0.999   2.375   1.646 -1.2134  1.6411 -1.8909
 2875TIP3   OH230115   4.822   6.078  12.358  0.0868  0.2745 -0.0562
 2875TIP3    H130116   4.828   5.986  12.331 -0.0081  0.5027 -0.8621
 2875TIP3    H230117   4.904   6.118  12.327  0.9591  0.0870  1.8439
 2876TIP3   OH230118   3.609   1.386  12.802  0.1361  0.1807  1.0178
 2876TIP3    H130119   3.573   1.300  12.822  0.8126 -0.6060 -0.8839
 2876TIP3    H230120   3.540   1.448  12.827 -0.0858 -0.8197  3.0840
 2877TIP3   OH230121   2.098   0.411  13.993 -0.0288  0.3486  0.0553
 2877TIP3    H130122   2.095   0.486  13.934  0.1174  0.0753 -0.3084
 2877TIP3    H230123   2.146   0.344  13.944  1.4724  0.6269  1.0853
 2878TIP3   OH230124   5.924   2.081   5.369  0.0338 -0.7843 -0.3364
 2878TIP3    H130125   5.996   2.082   5.306  0.5615 -1.2544  0.2387
 2878TIP3    H230126   5.941   2.157   5.426  0.1817 -0.9917 -0.0978
 2879TIP3   OH230127   2.522   5.653   4.570  0.1105 -0.2005  0.4250
 2879TIP3    H130128   2.601   5.693   4.605 -0.8895  0.4616  2.0680
 2879TIP3    H230129   2.553   5.585   4.510  1.8668  2.2874 -1.6813
 2880TIP3   OH230130   0.748   2.199   4.289 -0.5860  0.1527 -0.3688
 2880TIP3    H130131   0.731   2.241   4.373  0.2731  0.6127 -0.4148
 2880TIP3    H230132   0.661   2.185   4.251 -1.1865 -2.3635  1.6646
 2881TIP3   OH230133   1.312   3.851   1.398 -0.5131  0.4773  0.1693
 2881TIP3    H130134   1.375   3.883   1.463 -0.9223  1.8042 -0.0671
 2881TIP3    H230135   1.298   3.759   1.422  1.4011  0.1748  0.3168
 2882TIP3   OH230136   4.485   3.693   5.410 -0.3957 -0.1159 -0.0144
 2882TIP3    H130137   4.542   3.640   5.466 -1.8528  0.0739  1.7605
 2882TIP3    H230138   4.410   3.637   5.393 -0.5783  0.3216 -0.6620
 2883TIP3   OH230139   6.790   6.689   3.115  0.3930 -0.0587  0.6491
 2883TIP3    H130140   6.773   6.595   3.107 -0.5347  0.0523  1.1027
 2883TIP3    H230141   6.860   6.696   3.180 -0.6657 -0.3785  1.8523
 2884TIP3   OH230142   1.461   3.959  16.893 -0.0631 -0.3583 -0.3818
 2884TIP3    H130143   1.464   3.999  16.806  0.7768 -0.2639 -0.3171
 2884TIP3    H230144   1.474   3.866  16.877  0.5096 -0.2899 -0.3258
 2885TIP3   OH230145   4.289   3.507   2.129  0.0446  0.2728 -0.2252
 2885TIP3    H130146   4.321   3.584   2.080  1.3081 -0.5645 -0.7808
 2885TIP3    H230147   4.354   3.439   2.110  0.9473  0.0561  3.0945
 2886TIP3   OH230148   0.025   0.562  15.099 -0.2032  0.0184 -0.9642
 2886TIP3    H130149   0.109   0.577  15.055 -0.2191 -0.1012 -1.0362
 2886TIP3    H230150  -0.038   0.613  15.048 -0.4674 -1.2529 -1.9505
 2887TIP3   OH230151   2.801   4.338   0.604  0.4378 -0.1792 -0.1957
 2887TIP3    H130152   2.726   4.391   0.576  0.2447 -0.9918 -1.2569
 2887TIP3    H230153   2.858   4.401   0.650 -0.3114  0.7044 -0.4412
 2888TIP3   OH230154   5.372   5.469   2.328  0.0587 -1.1496  0.5059
 2888TIP3    H130155   5.356   5.554   2.368 -0.4394 -0.1781 -1.6023
 2888TIP3    H230156   5.450   5.436   2.372  1.5277  1.3716 -0.0150
 2889TIP3   OH230157   0.551   0.236  16.772 -0.1571 -0.3269 -0.0707
 2889TIP3    H130158   0.644   0.218  16.788  0.2371  1.1257 -0.5403
 2889TIP3    H230159   0.508   0.217  16.855  0.7480  0.1319  0.5205
 2890TIP3   OH230160   1.910   5.964   5.945  0.0519  0.1528 -0.0853
 2890TIP3    H130161   1.846   5.906   5.986  1.1184 -1.3441 -0.4502
 2890TIP3    H230162   1.961   5.999   6.018  0.8666 -1.1952  0.0295
 2891TIP3   OH230163   2.006   5.861  16.159  0.0534  0.1172 -0.0245
 2891TIP3    H130164   1.980   5.814  16.079 -2.5559 -0.2610  0.9501
 2891TIP3    H230165   2.026   5.791  16.222 -2.0697  0.2355  0.8752
 2892TIP3   OH230166   0.330   4.301  16.391 -0.1123 -0.0856 -0.2014
 2892TIP3    H130167   0.357   4.248  16.466 -0.3686  0.3913  0.2391
 2892TIP3    H230168   0.393   4.279  16.322  0.3528 -0.2599  0.2702
 2893TIP3   OH230169   6.133   5.229   2.592  0.2268 -0.3177  0.0920
 2893TIP3    H130170   6.102   5.266   2.674 -4.2634 -0.2392 -1.4090
 2893TIP3    H230171   6.199   5.164   2.618  0.1284  0.7917  3.5470
 2894TIP3   OH230172   3.084   0.024  11.841  0.1297 -0.4697 -0.1830
 2894TIP3    H130173   3.113  -0.068  11.843  2.0921  0.1124  1.1442
 2894TIP3    H230174   3.158   0.073  11.875 -0.4507  1.7690 -1.9417
 2895TIP3   OH230175   0.958   6.588  14.768 -0.2235  0.0435 -1.0662
 2895TIP3    H130176   0.977   6.546  14.685  1.3188  0.4071 -0.9268
 2895TIP3    H230177   1.034   6.643  14.785 -0.8770  0.6054  0.1921
 2896TIP3   OH230178   0.755   0.904   1.311  0.2653  0.2098  0.4663
 2896TIP3    H130179   0.819   0.839   1.282  0.3074  0.7514 -0.7224
 2896TIP3    H230180   0.681   0.852   1.344  0.6271 -0.4306  0.2887
 2897TIP3   OH230181   4.082   1.360  13.697  0.0279 -0.2090  0.3751
 2897TIP3    H130182   4.127   1.288  13.742 -0.5699 -0.9460 -0.1990
 2897TIP3    H230183   4.117   1.439  13.739  0.9281 -0.8109  0.7990
 2898TIP3   OH230184   0.002   3.575   6.135  0.2826 -0.2096 -0.6955
 2898TIP3    H130185  -0.020   3.489   6.171 -0.6717  0.1856 -0.2897
 2898TIP3    H230186  -0.067   3.593   6.071  1.8810 -0.8375 -2.6914
 2899TIP3   OH230187   3.783   5.931  14.172  0.2888 -0.4701 -0.1686
 2899TIP3    H130188   3.794   6.021  14.140 -0.7925 -0.7964 -1.5113
 2899TIP3    H230189   3.757   5.881  14.095  1.6105 -2.1116  0.3924
 2900TIP3   OH230190   1.063   2.321   4.177  0.6704  0.1162 -0.2417
 2900TIP3    H130191   1.154   2.321   4.208  1.4570  1.8338 -2.2511
 2900TIP3    H230192   1.071   2.333   4.082 -1.6648 -0.3648 -0.5481
 2901TIP3   OH230193   0.797   2.823  10.905  0.4823  0.1514  0.2500
 2901TIP3    H130194   0.790   2.918  10.909  0.0904  0.2614 -1.8907
 2901TIP3    H230195   0.767   2.800  10.817 -0.7595 -2.0903  1.1662
 2902TIP3   OH230196   3.162   5.598   2.962  0.4484 -0.3153  0.2174
 2902TIP3    H130197   3.069   5.584   2.976 -0.0760  1.9991 -0.5359
 2902TIP3    H230198   3.197   5.511   2.941 -1.9022 -0.9645 -1.4051
 2903TIP3   OH230199   6.261   2.525   4.405 -0.2218 -0.0054 -0.1445
 2903TIP3    H130200   6.278   2.440   4.364  0.7941 -0.0902  0.4315
 2903TIP3    H230201   6.237   2.504   4.495 -2.7789  0.1582 -0.7052
 2904TIP3   OH230202   0.720   3.972   4.715 -0.0956 -0.2122 -0.2411
 2904TIP3    H130203   0.670   3.971   4.634  2.0277 -0.3683 -1.6161
 2904TIP3    H230204   0.748   3.881   4.728 -0.4087 -0.1889  0.6666
 2905TIP3   OH230205   0.324   3.900   2.891  0.1893  0.0783  0.3891
 2905TIP3    H130206   0.373   3.931   2.967 -1.8236  0.2196  1.6825
 2905TIP3    H230207   0.299   3.979   2.844  1.3797 -0.0066 -0.4496
 2906TIP3   OH230208   4.062   3.592  15.126 -0.4270  0.2640  0.0470
 2906TIP3    H130209   4.144   3.575  15.079  0.5095 -3.2071  2.5051
 2906TIP3    H230210   4.090   3.620  15.213 -1.5561 -2.9320  1.6251
 2907TIP3   OH230211   5.541   2.043  12.274  0.2387  0.2498  0.1628
 2907TIP3    H130212   5.514   1.965  12.321  0.4611  0.4943  0.7041
 2907TIP3    H230213   5.595   2.011  12.202 -1.2702 -0.2260 -0.7927
 2908TIP3   OH230214   1.318   6.477  13.329  0.6809  0.5996  0.1911
 2908TIP3    H130215   1.397   6.509  13.373  2.0135  1.5604 -2.6769
 2908TIP3    H230216   1.271   6.430  13.397  1.6427  3.4577  3.1298
 2909TIP3   OH230217   1.312   5.752  14.409 -0.1820  0.1663  0.2174
 2909TIP3    H130218   1.268   5.677  14.449  0.2426 -1.0089 -1.4340
 2909TIP3    H230219   1.240   5.807  14.377 -0.5054 -0.7600 -0.6992
 2910TIP3   OH230220   1.811   5.305   2.757 -0.0342 -0.0861 -0.1989
 2910TIP3    H130221   1.797   5.293   2.851 -0.5806 -0.1448 -0.2854
 2910TIP3    H230222   1.811   5.400   2.744  2.9419  0.0798  0.2830
 2911TIP3   OH230223   2.832   3.131   0.844  0.6336 -0.5087  0.0050
 2911TIP3    H130224   2.855   3.088   0.762 -0.7013 -0.5579 -0.3635
 2911TIP3    H230225   2.802   3.059   0.901  2.0925 -0.5592  0.7706
 2912TIP3   OH230226   4.343   5.735   4.504  0.2906  0.1983 -1.0261
 2912TIP3    H130227   4.335   5.788   4.424  0.8775  2.0398  0.0792
 2912TIP3    H230228   4.280   5.664   4.492  0.1017  0.6304 -2.9605
 2913TIP3   OH230229   0.589   5.746   6.747  0.5098 -0.1856 -0.2607
 2913TIP3    H130230   0.509   5.756   6.695 -0.3683 -0.4637  0.9856
 2913TIP3    H230231   0.613   5.835   6.772  1.1824 -0.0136 -1.4823
 2914TIP3   OH230232   3.805   0.144  12.081 -0.3306 -0.6609  0.0897
 2914TIP3    H130233   3.818   0.166  12.174 -0.6046  0.7032 -0.1676
 2914TIP3    H230234   3.713   0.120  12.075 -1.8036  4.0939 -0.5946
 2915TIP3   OH230235   0.317   1.081  15.847  0.0767  0.2174 -0.7918
 2915TIP3    H130236   0.302   1.168  15.884 -0.1302  0.1587 -0.7377
 2915TIP3    H230237   0.405   1.086  15.809 -0.6378  1.0115 -2.4213
 2916TIP3   OH230238   0.732   1.475   2.035  0.0401  0.1478 -0.3475
 2916TIP3    H130239   0.725   1.464   1.940  2.5880 -1.3141 -0.4493
 2916TIP3    H230240   0.782   1.556   2.046  1.4743 -0.6987 -0.3728
 2917TIP3   OH230241   3.898   0.871  13.774 -0.4727 -0.4827 -0.0184
 2917TIP3    H130242   3.881   0.911  13.859 -0.9180 -2.5259  0.9298
 2917TIP3    H230243   3.817   0.883  13.724 -0.3907  0.2677  0.0210
 2918TIP3   OH230244   5.772   2.164   6.648  0.0992  0.0328  0.1877
 2918TIP3    H130245   5.737   2.120   6.725 -0.0235 -1.2380 -0.5712
 2918TIP3    H230246   5.856   2.123   6.633 -0.4198 -0.6158 -1.0757
 2919TIP3   OH230247   4.255   4.854  11.383 -0.0218  0.3631 -0.1768
 2919TIP3    H130248   4.303   4.917  11.329  2.0127 -1.1524 -0.2635
 2919TIP3    H230249   4.239   4.780  11.325  0.0795 -0.3166  0.6490
 2920TIP3   OH230250   1.777   6.544   4.806 -0.1592  0.1811  0.4572
 2920TIP3    H130251   1.871   6.560   4.810 -0.0529 -0.1642 -0.3455
 2920TIP3    H230252   1.744   6.570   4.892  0.7200 -0.0190  0.8666
 2921TIP3   OH230253   0.319   6.740   4.838  0.0947 -0.3323 -0.2479
 2921TIP3    H130254   0.238   6.718   4.882 -0.0250 -1.0417 -0.8033
 2921TIP3    H230255   0.383   6.677   4.871  0.4885  0.3767  0.3724
 2922TIP3   OH230256   3.587   1.125   0.061 -0.3602 -0.1659  0.4095
 2922TIP3    H130257   3.622   1.105  -0.026 -1.4052  1.2616 -0.3791
 2922TIP3    H230258   3.496   1.094   0.057 -0.8246  1.1371  0.4898
 2923TIP3   OH230259   4.013   5.187   1.489  0.4126 -0.3002 -0.1978
 2923TIP3    H130260   4.045   5.261   1.438  0.9967 -0.3920  0.0277
 2923TIP3    H230261   4.076   5.117   1.471  0.5898 -0.3500  0.5972
 2924TIP3   OH230262   1.130   2.019  11.608 -0.4577  0.3577  0.3676
 2924TIP3    H130263   1.191   1.955  11.646 -1.0114 -0.3232  0.1370
 2924TIP3    H230264   1.127   2.090  11.671 -1.6654 -0.9270  1.8314
 2925TIP3   OH230265   2.470   3.716   3.051  0.3711  0.8974  0.0799
 2925TIP3    H130266   2.376   3.731   3.059 -0.1941 -0.5494 -2.7338
 2925TIP3    H230267   2.510   3.798   3.079 -1.7378  1.7810  0.6885
 2926TIP3   OH230268   0.681   3.733   4.198  0.6608 -0.0212 -0.0887
 2926TIP3    H130269   0.699   3.644   4.166 -1.9524  0.0032 -2.0330
 2926TIP3    H230270   0.751   3.751   4.260  1.3649 -3.3971  0.3206
 2927TIP3   OH230271   5.909   0.555   5.830  0.3477  0.0170 -0.4573
 2927TIP3    H130272   5.873   0.496   5.895  1.1748 -0.6435 -0.5849
 2927TIP3    H230273   6.004   0.538   5.831  0.3879  0.0422 -1.7584
 2928TIP3   OH230274   4.448   6.459   1.416  0.0300  0.1585 -0.6996
 2928TIP3    H130275   4.414   6.447   1.327 -1.6518  1.3052 -0.2843
 2928TIP3    H230276   4.528   6.407   1.420 -1.3244 -2.1739 -2.0074
 2929TIP3   OH230277   5.490   3.420  13.737  0.6873 -0.1320  0.3355
 2929TIP3    H130278   5.447   3.505  13.743  2.5614  0.9132 -0.1659
 2929TIP3    H230279   5.576   3.439  13.698  1.5402 -2.1117  1.0920
 2930TIP3   OH230280   1.819   3.741   1.762 -0.0052 -0.1802  0.1862
 2930TIP3    H130281   1.901   3.774   1.799  1.4579 -1.5716 -1.6057
 2930TIP3    H230282   1.810   3.787   1.678 -0.2872 -1.0417 -0.2683
 2931TIP3   OH230283   5.993   0.894   2.709  0.2444 -0.1599  0.6306
 2931TIP3    H130284   5.984   0.980   2.749 -0.0252  0.3751 -0.5342
 2931TIP3    H230285   5.979   0.832   2.781  2.4193  0.7373  1.9236
 2932TIP3   OH230286   4.909   0.365  16.337  0.0349 -0.0003  0.1096
 2932TIP3    H130287   4.969   0.407  16.398 -0.4516  0.9251 -0.0358
 2932TIP3    H230288   4.878   0.436  16.280  0.4323 -0.8320 -1.1824
 2933TIP3   OH230289   6.721   0.850   5.618  0.3787  0.2957  0.3233
 2933TIP3    H130290   6.714   0.942   5.593  0.0691  0.3963  0.7740
 2933TIP3    H230291   6.737   0.851   5.712  0.2288 -0.1139  0.3552
 2934TIP3   OH230292   0.923   3.223   0.957 -1.2951 -0.2930  0.1670
 2934TIP3    H130293   0.895   3.191   1.043 -3.0787  1.3637  0.2654
 2934TIP3    H230294   0.880   3.307   0.948  3.0364  2.1814 -0.1125
 2935TIP3   OH230295   2.839   1.630  14.433 -0.3550  0.0275 -0.2991
 2935TIP3    H130296   2.906   1.597  14.373  1.5237  1.0631  1.1281
 2935TIP3    H230297   2.774   1.671  14.375  0.9420  0.2240 -1.6998
 2936TIP3   OH230298   3.314   2.924  11.714 -0.0537 -0.1545  0.2519
 2936TIP3    H130299   3.382   2.991  11.721 -1.3316  1.3761 -1.1265
 2936TIP3    H230300   3.301   2.914  11.620  0.1507 -2.4609  0.4179
 2937TIP3   OH230301   6.311   2.799  11.588 -0.0437 -0.1608 -0.2403
 2937TIP3    H130302   6.251   2.859  11.633  1.3774  0.9725  0.2038
 2937TIP3    H230303   6.313   2.722  11.645 -1.7342 -0.5977 -0.7160
 2938TIP3   OH230304   5.341   4.881   1.111  0.0462 -0.7379 -0.4732
 2938TIP3    H130305   5.381   4.809   1.159 -0.5639 -1.1976 -0.6471
 2938TIP3    H230306   5.304   4.938   1.179 -0.8404 -1.4028 -0.3852
 2939TIP3   OH230307   0.461   1.932   1.519  0.3922  0.4307 -0.3790
 2939TIP3    H130308   0.477   2.002   1.455 -1.5792  0.8912 -0.4463
 2939TIP3    H230309   0.410   1.867   1.471 -2.1867  1.3401  0.9225
 2940TIP3   OH230310   6.311   4.149   1.754  0.1988 -0.3584 -0.2863
 2940TIP3    H130311   6.375   4.212   1.721 -0.2769 -1.0813 -2.7477
 2940TIP3    H230312   6.227   4.184   1.725 -0.3069 -0.8029  0.6134
 2941TIP3   OH230313   4.530   0.832   1.243 -0.1217  0.5006 -0.0404
 2941TIP3    H130314   4.468   0.762   1.267  0.4649  0.1266  0.4291
 2941TIP3    H230315   4.475   0.901   1.208 -1.0129  0.8597  1.9019
 2942TIP3   OH230316   6.635   0.950  13.013  0.0862  0.2232  0.3741
 2942TIP3    H130317   6.663   0.890  12.943 -1.0493 -0.1298  0.2078
 2942TIP3    H230318   6.547   0.921  13.036  0.0093  1.0468  1.1801
 2943TIP3   OH230319   5.189   5.151  16.599  0.0428  0.2096  0.1295
 2943TIP3    H130320   5.266   5.203  16.622  0.4391 -0.2884 -0.0476
 2943TIP3    H230321   5.221   5.061  16.598 -0.5238  0.0087 -0.0441
 2944TIP3   OH230322   4.402   4.837  16.044  0.0117  0.7240 -0.0669
 2944TIP3    H130323   4.309   4.861  16.050 -0.4076 -1.0282  2.0036
 2944TIP3    H230324   4.445   4.914  16.007 -2.0860  2.0205  0.0176
 2945TIP3   OH230325   2.945   4.212   5.307  0.1127 -0.5007  0.1514
 2945TIP3    H130326   3.006   4.283   5.286 -1.2297  0.2913 -1.3698
 2945TIP3    H230327   3.000   4.134   5.317  1.4649  0.4328  0.1429
 2946TIP3   OH230328   2.777   0.652  12.791  0.3229  0.0911 -0.2156
 2946TIP3    H130329   2.860   0.654  12.743 -0.2948  1.7625 -1.3125
 2946TIP3    H230330   2.745   0.563  12.778  1.1991 -0.1126 -1.1268
 2947TIP3   OH230331   5.430   6.084   1.828  0.2363 -0.3781  0.0976
 2947TIP3    H130332   5.456   5.993   1.840 -1.8210 -0.7824  2.3474
 2947TIP3    H230333   5.502   6.135   1.865  0.0364 -1.2566  1.7959
 2948TIP3   OH230334   5.434   5.504   1.087  0.0636  0.1188 -0.2342
 2948TIP3    H130335   5.339   5.511   1.086 -0.1291 -1.7395 -2.2929
 2948TIP3    H230336   5.454   5.471   1.175 -1.2026  0.3753  0.1735
 2949TIP3   OH230337   2.205   5.880   4.310 -0.8992 -0.2828 -0.4103
 2949TIP3    H130338   2.257   5.961   4.304 -1.0645 -0.2371 -1.5349
 2949TIP3    H230339   2.260   5.814   4.268 -1.5683 -0.3269 -1.2384
 2950TIP3   OH230340   5.146   2.037  16.058 -0.1063 -0.1337 -0.1471
 2950TIP3    H130341   5.221   2.086  16.026  0.0793  1.7516  2.7365
 2950TIP3    H230342   5.072   2.096  16.045 -0.5100 -0.5938  0.0311
 2951TIP3   OH230343   4.185   2.266   4.059  0.0256 -0.7947 -0.2342
 2951TIP3    H130344   4.095   2.238   4.076  0.2994 -1.7983 -0.3734
 2951TIP3    H230345   4.184   2.293   3.968 -0.3065 -0.0745 -0.0241
 2952TIP3   OH230346   1.813   4.724   5.252  0.7460 -0.2937  0.2961
 2952TIP3    H130347   1.860   4.776   5.317  0.5980 -0.8892  0.8915
 2952TIP3    H230348   1.841   4.634   5.268 -0.6398 -0.6808  0.7456
 2953TIP3   OH230349   2.050   3.256  13.146 -0.1107  0.1356  0.7132
 2953TIP3    H130350   2.058   3.164  13.171  0.4617 -0.2589 -0.7887
 2953TIP3    H230351   2.055   3.255  13.050 -1.3050  1.6188  0.5881
 2954TIP3   OH230352   1.983   0.584  11.026 -0.4267  0.0009  0.6278
 2954TIP3    H130353   2.032   0.658  11.062  1.3829 -0.2809 -1.1108
 2954TIP3    H230354   1.968   0.606  10.935 -0.7188 -1.3455  0.3209
 2955TIP3   OH230355   4.268   2.802  15.467 -0.4705  0.2917 -0.2171
 2955TIP3    H130356   4.187   2.785  15.419 -0.9784 -0.0964  0.7507
 2955TIP3    H230357   4.306   2.716  15.482  0.0750  0.4659 -0.5779
 2956TIP3   OH230358   4.215   3.128   3.566 -0.2982  0.2592 -0.0661
 2956TIP3    H130359   4.309   3.130   3.584 -0.3390  0.3414  0.1346
 2956TIP3    H230360   4.202   3.050   3.512 -0.1877 -0.0110  0.2967
 2957TIP3   OH230361   6.726   0.885  16.610  0.6209  1.0368  0.1362
 2957TIP3    H130362   6.754   0.975  16.630 -0.7318  1.4036  0.4762
 2957TIP3    H230363   6.783   0.830  16.664  1.5610  1.6749 -0.1819
 2958TIP3   OH230364   6.237   1.880   0.651  0.4126 -0.5421 -0.1025
 2958TIP3    H130365   6.264   1.792   0.675 -1.2236 -1.6012 -1.9070
 2958TIP3    H230366   6.154   1.893   0.696 -0.6717 -1.0100 -1.8514
 2959TIP3   OH230367   6.609   6.195   4.191 -0.0766 -0.1380 -0.7848
 2959TIP3    H130368   6.568   6.112   4.166  0.3128 -0.2206 -1.1456
 2959TIP3    H230369   6.537   6.246   4.229 -0.2356 -0.7970 -0.1661
 2960TIP3   OH230370   1.466   1.789  13.727  0.3441  0.5213 -0.2740
 2960TIP3    H130371   1.485   1.712  13.780 -0.0393  1.1133  0.7639
 2960TIP3    H230372   1.525   1.856  13.762 -0.4638  1.1386 -0.0586
 2961TIP3   OH230373   0.683   3.090   0.820 -0.2310 -0.5052 -0.3034
 2961TIP3    H130374   0.684   2.994   0.810 -1.0235 -0.6372  0.6842
 2961TIP3    H230375   0.653   3.104   0.910 -2.2669  0.7090 -1.0957
 2962TIP3   OH230376   6.529   1.181   3.500  0.4513 -0.3379 -0.0283
 2962TIP3    H130377   6.540   1.249   3.434 -3.8018 -0.0451 -0.7087
 2962TIP3    H230378   6.505   1.229   3.579  2.8295 -0.8636  1.1106
 2963TIP3   OH230379   3.313   0.318   4.461  0.0588  0.0136 -0.2459
 2963TIP3    H130380   3.247   0.248   4.461 -0.5488  0.5178 -2.1748
 2963TIP3    H230381   3.391   0.278   4.498 -0.6903 -1.2617  0.0108
 2964TIP3   OH230382   1.192   6.770  14.672 -0.0231  0.5081  0.3917
 2964TIP3    H130383   1.248   6.703  14.711  1.1999  1.5509  0.4968
 2964TIP3    H230384   1.238   6.797  14.592 -1.6315 -0.3661 -0.9020
 2965TIP3   OH230385   3.673   1.613  17.094  0.0799  0.8631  0.1742
 2965TIP3    H130386   3.749   1.598  17.038  0.7972 -0.5115  1.4209
 2965TIP3    H230387   3.683   1.549  17.165 -3.1556 -0.6210 -0.5220
 2966TIP3   OH230388   1.655   3.427  12.233 -0.5399 -0.4243  0.0384
 2966TIP3    H130389   1.569   3.387  12.239 -0.6223 -0.3082 -0.3124
 2966TIP3    H230390   1.716   3.354  12.222 -0.5663 -0.5211  0.5419
 2967TIP3   OH230391   5.305   5.938  14.362 -0.3171 -0.2470 -0.1588
 2967TIP3    H130392   5.276   5.902  14.278 -1.1098  0.2215 -0.0943
 2967TIP3    H230393   5.287   5.870  14.426  2.3605 -1.5302 -0.6443
 2968TIP3   OH230394   1.725   3.854   0.812  0.3302 -0.1255  0.6016
 2968TIP3    H130395   1.810   3.889   0.840  0.1156 -0.1149  1.2568
 2968TIP3    H230396   1.711   3.891   0.725  0.7888  0.2318  0.6768
 2969TIP3   OH230397   6.084   3.229   3.315 -0.5104 -0.3388  0.2781
 2969TIP3    H130398   6.128   3.311   3.289  0.6478 -1.4054 -1.3768
 2969TIP3    H230399   6.146   3.186   3.373 -0.3045 -0.8387 -0.2961
 2970TIP3   OH230400   6.156   6.123   2.638 -0.2606  0.1587  0.1095
 2970TIP3    H130401   6.188   6.036   2.661 -2.3667 -0.6628  0.1581
 2970TIP3    H230402   6.226   6.161   2.585  0.2664 -2.0123 -0.8608
 2971TIP3   OH230403   3.839   1.442  13.396  0.5762  0.3293 -0.1037
 2971TIP3    H130404   3.931   1.426  13.417  0.6852  1.3100  0.2293
 2971TIP3    H230405   3.836   1.440  13.300  0.4209 -2.3368 -0.1294
 2972TIP3   OH230406   6.324   4.875  16.123 -0.3863  0.3152 -0.5017
 2972TIP3    H130407   6.322   4.966  16.095 -0.8027  0.8414  1.1218
 2972TIP3    H230408   6.231   4.849  16.126 -0.3058  0.0452 -0.3436
 2973TIP3   OH230409   6.188   6.594  16.225 -0.1976  0.4908  0.0682
 2973TIP3    H130410   6.217   6.564  16.139 -1.4470  0.1037 -0.2297
 2973TIP3    H230411   6.194   6.516  16.281 -0.1329  0.5492  0.1433
 2974TIP3   OH230412   6.800   5.163   1.563  0.1048 -0.4491  0.2106
 2974TIP3    H130413   6.758   5.151   1.479  0.3713 -1.4510  0.2148
 2974TIP3    H230414   6.820   5.075   1.594  2.0063 -0.0206  0.3068
 2975TIP3   OH230415   3.541   1.052   0.333 -0.3791 -0.2025  0.6497
 2975TIP3    H130416   3.563   1.085   0.246  0.0636 -0.9972  0.4493
 2975TIP3    H230417   3.619   1.071   0.385 -0.6713  0.3376  0.8988
 2976TIP3   OH230418   6.081   2.731   4.442 -0.1278 -0.2284  0.0404
 2976TIP3    H130419   6.107   2.711   4.532 -0.9411 -0.6544  0.1830
 2976TIP3    H230420   6.141   2.680   4.388 -1.2465 -1.9847  0.3828
 2977TIP3   OH230421   1.195   0.709  15.565 -0.3443 -0.1917 -0.3010
 2977TIP3    H130422   1.121   0.767  15.581 -1.7939 -2.4120  1.8169
 2977TIP3    H230423   1.234   0.695  15.652 -0.3672 -2.6411 -0.5956
 2978TIP3   OH230424   5.925   2.359   5.599 -1.1761 -0.1529 -0.4173
 2978TIP3    H130425   5.952   2.418   5.528 -2.1752 -0.4181 -1.0390
 2978TIP3    H230426   5.885   2.417   5.664 -2.1720 -0.1090 -1.0355
 2979TIP3   OH230427   6.593   1.152  11.723  0.2728 -0.1043 -0.2915
 2979TIP3    H130428   6.598   1.086  11.792  1.9041  0.0365 -0.2386
 2979TIP3    H230429   6.638   1.112  11.649 -0.2325  0.2958 -0.8242
 2980TIP3   OH230430   2.006   6.302   5.479 -0.0424  0.1011 -0.2311
 2980TIP3    H130431   2.021   6.371   5.414  1.2277 -0.4755 -0.5756
 2980TIP3    H230432   2.079   6.241   5.467  0.2982  0.0400  1.8072
 2981TIP3   OH230433   3.684   4.433   2.764  0.7100 -0.5875 -0.0610
 2981TIP3    H130434   3.609   4.375   2.774  1.0396 -0.8549  1.0119
 2981TIP3    H230435   3.646   4.516   2.734 -0.3273 -0.0891  2.3418
 2982TIP3   OH230436   2.835   4.772   0.673  0.2053  0.1090 -0.5271
 2982TIP3    H130437   2.851   4.866   0.677  0.8068  0.0033 -0.2869
 2982TIP3    H230438   2.803   4.756   0.584  1.5911  0.3217 -1.0867
 2983TIP3   OH230439   6.524   2.149   0.511  0.0114 -0.0734  0.1854
 2983TIP3    H130440   6.467   2.188   0.578 -0.8973 -0.2298 -0.4837
 2983TIP3    H230441   6.470   2.145   0.432  0.4188 -1.7379 -0.0456
 2984TIP3   OH230442   5.103   4.688   3.210  0.7397 -0.5903  0.1912
 2984TIP3    H130443   5.180   4.676   3.265 -0.7876 -1.9640  2.1607
 2984TIP3    H230444   5.057   4.762   3.249  0.0583 -1.0480  0.2760
 2985TIP3   OH230445   6.284   6.474  13.741  0.3568  0.1317  1.0886
 2985TIP3    H130446   6.222   6.422  13.690  2.9496 -0.9156 -1.2839
 2985TIP3    H230447   6.256   6.564  13.729  0.1573 -0.1845 -1.2946
 2986TIP3   OH230448   3.757   4.008   3.970  0.5124  0.3552 -0.0399
 2986TIP3    H130449   3.706   4.084   3.942 -2.2869 -0.3081  2.6428
 2986TIP3    H230450   3.745   3.944   3.900  1.5503  1.7544 -1.5692
 2987TIP3   OH230451   6.352   4.566  14.746  0.1413 -0.2073 -0.3149
 2987TIP3    H130452   6.300   4.638  14.712 -1.9819 -0.8621  1.3383
 2987TIP3    H230453   6.318   4.488  14.701 -1.0141 -0.7573  1.4190
 2988TIP3   OH230454   4.263   5.664  12.786 -0.3688  0.1461 -0.2068
 2988TIP3    H130455   4.197   5.596  12.773 -0.4938  0.2011  0.1275
 2988TIP3    H230456   4.330   5.646  12.719 -1.5580  1.1549 -1.7478
 2989TIP3   OH230457   0.185   4.717   0.089  0.7538  0.0845 -0.0257
 2989TIP3    H130458   0.143   4.710   0.003  0.5489  0.4289  0.0417
 2989TIP3    H230459   0.274   4.686   0.075 -0.6765 -5.3392  0.8539
 2990TIP3   OH230460   4.969   2.249   1.011  0.0369 -1.0353 -0.1986
 2990TIP3    H130461   4.906   2.239   0.940  2.3546 -2.4612 -2.2383
 2990TIP3    H230462   4.999   2.160   1.029  2.0036 -0.3725  0.0940
 2991TIP3   OH230463   4.216   0.705  11.260 -0.1584  0.2388  0.0035
 2991TIP3    H130464   4.291   0.757  11.232  0.8152  0.0681  2.1010
 2991TIP3    H230465   4.239   0.615  11.236  0.5008  0.1382  0.9679
 2992TIP3   OH230466   1.541   3.381  12.707  0.6766 -0.6164  0.6011
 2992TIP3    H130467   1.593   3.428  12.642 -0.2175 -1.5376 -0.8484
 2992TIP3    H230468   1.603   3.358  12.776  1.7040  0.1719 -0.0283
 2993TIP3   OH230469   5.442   0.772   2.346  0.5977  1.2067 -0.5127
 2993TIP3    H130470   5.393   0.853   2.360  1.5888  1.7929 -0.2878
 2993TIP3    H230471   5.502   0.793   2.274  0.6700  0.5829 -0.6380
 2994TIP3   OH230472   6.018   1.178  11.915  0.0442 -0.9662 -0.2352
 2994TIP3    H130473   6.043   1.151  11.827  0.3509 -2.4269  0.2818
 2994TIP3    H230474   5.922   1.181  11.913  0.0760  0.1894 -0.9355
 2995TIP3   OH230475   3.541   4.076  16.098  0.4859 -0.0375  0.8260
 2995TIP3    H130476   3.466   4.067  16.040  0.0299 -1.0089  1.5371
 2995TIP3    H230477   3.578   4.162  16.077 -1.0058  0.5883  0.6798
 2996TIP3   OH230478   0.510   4.279  14.440 -0.0754  0.0225  0.0732
 2996TIP3    H130479   0.540   4.271  14.530  0.8569 -1.5630 -0.3501
 2996TIP3    H230480   0.552   4.359  14.408 -0.7268  0.8142  1.1270
 2997TIP3   OH230481   2.650   0.376   2.551  0.2237  0.4388 -0.8409
 2997TIP3    H130482   2.605   0.317   2.490 -1.4536  1.6111 -0.7839
 2997TIP3    H230483   2.649   0.461   2.507  1.8755  0.6394 -0.5574
 2998TIP3   OH230484   1.674   3.707   2.493 -0.2803  0.4387 -0.0042
 2998TIP3    H130485   1.645   3.675   2.408 -0.9246 -0.5825  0.5807
 2998TIP3    H230486   1.625   3.655   2.556  0.5639  0.8248  1.0007
 2999TIP3   OH230487   1.192   5.236  17.024  0.6374 -0.3062 -0.1116
 2999TIP3    H130488   1.283   5.222  17.049  0.8366 -0.4176 -0.8819
 2999TIP3    H230489   1.176   5.173  16.954 -0.1907 -0.6407  0.3744
 3000TIP3   OH230490   2.167   4.730   4.107 -0.3596 -0.4090 -0.3065
 3000TIP3    H130491   2.163   4.815   4.151 -1.6119 -0.7440  0.2633
 3000TIP3    H230492   2.145   4.750   4.016 -0.8612 -0.1405 -0.1339
 3001TIP3   OH230493   4.049   4.891  16.255 -0.0423 -0.2614 -0.0005
 3001TIP3    H130494   4.030   4.829  16.326 -0.6954  0.9925  0.9650
 3001TIP3    H230495   4.117   4.947  16.291  0.7198 -0.5448 -0.9577
 3002TIP3   OH230496   6.317   4.126   0.265 -0.8351 -0.4333  0.0399
 3002TIP3    H130497   6.331   4.162   0.177 -0.6322 -0.7764 -0.0727
 3002TIP3    H230498   6.249   4.181   0.303 -1.3725 -0.6601 -0.5632
 3003TIP3   OH230499   5.313   5.317   0.412  0.3066 -0.3890  0.3339
 3003TIP3    H130500   5.221   5.291   0.421 -0.3356  1.3691 -0.6226
 3003TIP3    H230501   5.332   5.366   0.492 -0.7759  2.3505 -0.9545
 3004TIP3   OH230502   2.606   5.605  12.284  0.2599  0.1622  0.3967
 3004TIP3    H130503   2.511   5.621  12.282  0.4357  1.2442  0.0610
 3004TIP3    H230504   2.633   5.631  12.371  0.1507 -0.8687  0.7587
 3005TIP3   OH230505   4.572   0.597  11.814 -0.2978  0.3971 -0.0898
 3005TIP3    H130506   4.575   0.505  11.839  0.8857  0.3393 -0.3788
 3005TIP3    H230507   4.524   0.599  11.731 -0.2555  0.0291 -0.1216
 3006TIP3   OH230508   2.598   5.008  15.133 -0.2213  0.6536 -0.0431
 3006TIP3    H130509   2.577   5.101  15.144 -2.3737  0.2401 -0.2575
 3006TIP3    H230510   2.568   4.987  15.044 -0.8771 -0.5056  0.4291
 3007TIP3   OH230511   4.725   4.287   0.570 -0.1151 -0.3062  0.0405
 3007TIP3    H130512   4.668   4.281   0.493 -0.3096 -1.6279  0.2726
 3007TIP3    H230513   4.715   4.203   0.614  1.9274 -0.5209  0.1606
 3008TIP3   OH230514   6.379   2.895   3.312 -0.1099  0.7718 -0.2289
 3008TIP3    H130515   6.338   2.955   3.374  0.6711 -1.1786  2.3404
 3008TIP3    H230516   6.358   2.808   3.344  0.6481 -0.3652 -2.5505
 3009TIP3   OH230517   4.303   1.738  17.058  0.1961  0.3683  0.5642
 3009TIP3    H130518   4.246   1.662  17.069 -0.5313  0.5133 -1.6589
 3009TIP3    H230519   4.385   1.703  17.025 -1.0915  0.5778 -3.4609
 3010TIP3   OH230520   5.818   6.157   5.018  0.0644 -0.1491  0.3673
 3010TIP3    H130521   5.883   6.131   4.952 -2.3117 -2.1372 -1.3774
 3010TIP3    H230522   5.808   6.251   5.007  2.1890  0.1400  0.3563
 3011TIP3   OH230523   2.127   4.774  16.353 -0.0274 -0.2461  0.2382
 3011TIP3    H130524   2.109   4.688  16.391  1.4382 -0.7441 -0.1387
 3011TIP3    H230525   2.164   4.755  16.267 -1.3948  0.8251 -0.6303
 3012TIP3   OH230526   4.198   1.977  12.509  0.0023 -0.5186 -0.1071
 3012TIP3    H130527   4.142   1.939  12.441  0.3818  1.7158 -1.8031
 3012TIP3    H230528   4.138   2.028  12.563 -0.1137 -1.2052  0.4156
 3013TIP3   OH230529   0.405   6.121  12.241  0.3166 -0.4312 -0.2902
 3013TIP3    H130530   0.498   6.127  12.263  0.3299 -1.5909  0.0142
 3013TIP3    H230531   0.394   6.031  12.210 -1.0320 -0.8098  1.2259
 3014TIP3   OH230532   2.707   5.488  15.985 -0.0722 -0.2162  0.4819
 3014TIP3    H130533   2.685   5.445  15.902 -0.6336 -0.3367  0.6868
 3014TIP3    H230534   2.704   5.581  15.964  0.0270 -0.2500  0.3097
 3015TIP3   OH230535   4.712   4.903   6.128  0.1652 -0.0787  0.2154
 3015TIP3    H130536   4.735   4.937   6.215  0.6575 -1.5562  0.6951
 3015TIP3    H230537   4.640   4.958   6.099  1.3372  1.7960  0.6453
 3016TIP3   OH230538   3.592   2.928  13.925 -0.2523  0.0271  0.6826
 3016TIP3    H130539   3.605   2.931  13.830  1.1151  0.1204  0.8519
 3016TIP3    H230540   3.615   3.015  13.955  0.8512 -0.4411  1.2570
 3017TIP3   OH230541   2.604   0.462  14.893  0.2857 -1.2812  0.3602
 3017TIP3    H130542   2.620   0.490  14.983 -0.7326 -0.8782  0.4284
 3017TIP3    H230543   2.576   0.371  14.901 -4.3974 -0.0559  1.0138
 3018TIP3   OH230544   3.820   3.827  16.683 -0.6880  0.0628  0.5416
 3018TIP3    H130545   3.787   3.842  16.595 -1.3998 -1.3736  0.5232
 3018TIP3    H230546   3.915   3.827  16.674 -0.6991  1.9893  0.1720
 3019TIP3   OH230547   4.907   3.649  16.837 -0.0731  0.3584  0.0153
 3019TIP3    H130548   4.840   3.697  16.787  1.1571  1.0388 -1.0695
 3019TIP3    H230549   4.869   3.563  16.851 -1.1856  0.7255 -0.5555
 3020TIP3   OH230550   1.696   4.707   0.366  0.1602 -0.2075 -1.0987
 3020TIP3    H130551   1.615   4.681   0.411 -0.8800  0.2456 -2.6245
 3020TIP3    H230552   1.724   4.628   0.320 -0.2068  0.0068 -1.6988
 3021TIP3   OH230553   2.783   5.753  15.887  0.2879  0.1343  0.3354
 3021TIP3    H130554   2.698   5.794  15.868 -0.0355  0.4646  2.2237
 3021TIP3    H230555   2.840   5.826  15.910  0.2133 -0.2663  1.9598
 3022TIP3   OH230556   4.536   3.507   1.174 -0.3805 -0.4272  0.1336
 3022TIP3    H130557   4.487   3.582   1.141  0.2611 -0.6245 -1.3579
 3022TIP3    H230558   4.505   3.495   1.263 -0.2423  1.8329  0.5358
 3023TIP3   OH230559   4.063   4.514   1.283  0.1565 -0.1845 -0.3633
 3023TIP3    H130560   3.990   4.470   1.239  0.3502  0.2416 -1.1346
 3023TIP3    H230561   4.070   4.470   1.368 -0.6911 -0.5449 -0.4678
 3024TIP3   OH230562   1.104   0.682  13.823 -0.0464  0.6628  0.1641
 3024TIP3    H130563   1.146   0.634  13.894  1.7438  0.4484 -0.9607
 3024TIP3    H230564   1.121   0.629  13.745  0.0460  2.0187 -0.7780
 3025TIP3   OH230565   3.790   2.451   5.419 -0.6739  0.2722 -0.0121
 3025TIP3    H130566   3.726   2.413   5.359 -1.6071  0.6862  0.6938
 3025TIP3    H230567   3.740   2.514   5.471 -0.1908 -0.9787  2.0847
 3026TIP3   OH230568   1.679   3.559  14.921 -0.2338 -0.2453  0.3232
 3026TIP3    H130569   1.686   3.493  14.852  0.7199  0.9481 -0.7725
 3026TIP3    H230570   1.770   3.577  14.946 -0.5569 -0.5583  1.8301
 3027TIP3   OH230571   5.152   4.591  16.052  0.4587  0.0397 -0.1123
 3027TIP3    H130572   5.230   4.634  16.016  0.9830  1.3013  2.3048
 3027TIP3    H230573   5.103   4.662  16.094 -0.6173 -1.1674  0.7331
 3028TIP3   OH230574   1.319   6.106  11.275 -0.4774  0.3891  0.3963
 3028TIP3    H130575   1.249   6.054  11.313  0.1082  0.5015  1.6671
 3028TIP3    H230576   1.298   6.110  11.182 -3.1579  1.9491  0.9803
 3029TIP3   OH230577   3.433   2.207  14.424 -0.3075 -0.0621 -0.2530
 3029TIP3    H130578   3.494   2.254  14.367 -1.0143  0.7730 -0.3407
 3029TIP3    H230579   3.479   2.200  14.507 -0.0915  0.5832 -0.3093
 3030TIP3   OH230580   5.681   5.991  11.456  0.4072  0.5250  0.2540
 3030TIP3    H130581   5.749   6.031  11.401 -1.1919  1.4214 -1.1434
 3030TIP3    H230582   5.612   6.057  11.462 -1.4496 -1.2634 -0.4499
 3031TIP3   OH230583   6.562   5.215  10.858 -0.3059 -0.1146 -0.5212
 3031TIP3    H130584   6.469   5.190  10.857 -0.9066  1.9258 -0.3536
 3031TIP3    H230585   6.566   5.292  10.801  1.9686 -2.1291 -3.3911
 3032TIP3   OH230586   2.966   2.236   3.770 -0.0517  0.9037  0.7615
 3032TIP3    H130587   2.945   2.267   3.682  0.2960  0.1403  0.4071
 3032TIP3    H230588   2.974   2.141   3.762  1.0193  0.9236  1.3958
 3033TIP3   OH230589   4.178   6.640   6.048  0.1573 -0.0107 -0.6603
 3033TIP3    H130590   4.217   6.702   5.987  2.3573 -0.0386  0.6107
 3033TIP3    H230591   4.241   6.634   6.120 -1.3970 -1.4744  0.6707
 3034TIP3   OH230592   1.637   5.865  12.854 -0.1907 -0.1867  0.2483
 3034TIP3    H130593   1.600   5.779  12.874  0.2933 -0.8619 -1.5611
 3034TIP3    H230594   1.728   5.859  12.883 -0.2529 -0.1541  0.4516
 3035TIP3   OH230595   1.997   0.038   2.953  0.8316  0.5418 -0.4591
 3035TIP3    H130596   1.942   0.065   3.026  0.4785  1.9816 -1.2281
 3035TIP3    H230597   1.976  -0.054   2.940  2.0927 -0.2648  2.2804
 3036TIP3   OH230598   1.884   4.138  16.300  0.5167 -0.0503 -0.1511
 3036TIP3    H130599   1.935   4.090  16.234 -0.0184  1.5629 -1.8181
 3036TIP3    H230600   1.949   4.164  16.366  1.5942  0.6199 -1.4367
 3037TIP3   OH230601   4.597   5.579   2.734 -0.2057 -0.6171 -0.5155
 3037TIP3    H130602   4.691   5.582   2.718 -0.3756 -1.4191 -1.8758
 3037TIP3    H230603   4.589   5.558   2.826  0.9536 -0.7547 -0.4266
 3038TIP3   OH230604   1.040   1.838   4.922 -0.4200  0.2276 -0.0319
 3038TIP3    H130605   1.043   1.928   4.887  0.5192  0.9812  1.8354
 3038TIP3    H230606   0.950   1.827   4.952 -0.2587  0.9813  0.7585
 3039TIP3   OH230607   3.663   6.395  13.549  0.5371 -0.2968  0.1384
 3039TIP3    H130608   3.680   6.362  13.461  0.0663  1.9324 -0.8577
 3039TIP3    H230609   3.749   6.393  13.592  0.5668 -2.4825  0.0833
 3040TIP3   OH230610   1.603   4.660   2.544  0.6964  0.1947 -0.3329
 3040TIP3    H130611   1.561   4.577   2.563  0.3570 -0.5476 -3.7036
 3040TIP3    H230612   1.697   4.642   2.554  0.5495  0.0758  1.0477
 3041TIP3   OH230613   1.449   2.483   2.444  0.4485  0.2104  0.1974
 3041TIP3    H130614   1.381   2.417   2.456  1.0521 -0.0759  2.4872
 3041TIP3    H230615   1.419   2.557   2.497  0.3944  1.3417 -1.3483
 3042TIP3   OH230616   4.464   1.690  11.826 -0.0709 -0.2030  0.1926
 3042TIP3    H130617   4.421   1.606  11.840  0.5388 -0.2653  1.9548
 3042TIP3    H230618   4.517   1.703  11.904  1.6179  0.7728 -1.0426
 3043TIP3   OH230619   3.165   2.212   6.817 -0.0661  0.2841 -0.0853
 3043TIP3    H130620   3.210   2.253   6.744  0.2620  0.6837  0.3396
 3043TIP3    H230621   3.075   2.246   6.812 -0.1585 -0.0118 -0.5413
 3044TIP3   OH230622   2.048   5.458   5.659 -0.4784 -0.1794 -1.0616
 3044TIP3    H130623   1.983   5.389   5.668  0.5082 -0.8132  2.6700
 3044TIP3    H230624   2.001   5.539   5.680 -0.3938 -0.4698  0.2926
 3045TIP3   OH230625   3.872   3.254   4.900 -0.2857  0.3008 -0.3321
 3045TIP3    H130626   3.967   3.252   4.890 -0.1344 -2.0099  0.9497
 3045TIP3    H230627   3.856   3.212   4.984 -2.4821 -0.2538 -0.9615
 3046TIP3   OH230628   2.668   5.066   0.969 -0.1519 -0.4336 -0.0321
 3046TIP3    H130629   2.589   5.116   0.949  0.1005  0.4373  1.0197
 3046TIP3    H230630   2.739   5.131   0.968  0.2653 -0.8547  0.8388
 3047TIP3   OH230631   6.534   2.280  13.779 -0.2062 -0.0536  0.6905
 3047TIP3    H130632   6.520   2.295  13.872  0.2593 -0.1720  0.7834
 3047TIP3    H230633   6.457   2.318  13.736 -0.4842 -0.1157  1.1306
 3048TIP3   OH230634   2.233   1.274   2.372 -0.0491  0.2434 -0.5692
 3048TIP3    H130635   2.189   1.281   2.288 -1.0406  0.4904 -0.0504
 3048TIP3    H230636   2.217   1.185   2.401 -1.8162  0.8393  0.4436
 3049TIP3   OH230637   0.123   6.126   2.931 -0.1099  0.2287 -0.2905
 3049TIP3    H130638   0.109   6.160   2.843  0.6541  1.5177  0.0487
 3049TIP3    H230639   0.202   6.072   2.924 -0.3382 -0.0747 -0.4987
 3050TIP3   OH230640   2.635   4.223  12.818  0.1804  0.6114 -0.1663
 3050TIP3    H130641   2.672   4.214  12.905 -1.0066  0.3219  0.3358
 3050TIP3    H230642   2.541   4.210  12.831  0.2245 -2.0101 -1.8552
 3051TIP3   OH230643   3.414   3.302  12.585  0.0028  0.0320 -0.0632
 3051TIP3    H130644   3.346   3.344  12.533  1.9527  2.3531 -0.8997
 3051TIP3    H230645   3.371   3.281  12.668 -1.6976  1.5058 -0.5139
 3052TIP3   OH230646   1.609   0.001   4.554  0.0447  0.0557 -0.1455
 3052TIP3    H130647   1.657   0.055   4.617  0.8582 -0.2772 -0.4623
 3052TIP3    H230648   1.533  -0.030   4.603  0.9745 -0.6925  0.8755
 3053TIP3   OH230649   1.680   2.964  14.261 -0.0470  0.2385  0.3556
 3053TIP3    H130650   1.755   2.997  14.212 -1.3539 -0.7455 -2.5409
 3053TIP3    H230651   1.687   2.869  14.256 -0.3112  0.0964  2.0405
 3054TIP3   OH230652   1.584   5.518   4.362 -0.5677 -0.0366 -0.4830
 3054TIP3    H130653   1.646   5.485   4.298  0.4742  0.2395  0.3643
 3054TIP3    H230654   1.638   5.551   4.434 -1.5934  1.9066 -0.5193
 3055TIP3   OH230655   5.365   6.759  13.224  0.2298  0.4374 -0.9313
 3055TIP3    H130656   5.313   6.823  13.176 -1.6941  0.0142  0.4694
 3055TIP3    H230657   5.329   6.674  13.196  0.3812  0.1246 -0.2020
 3056TIP3   OH230658   3.925   0.140  14.951  0.0960  0.4897 -0.1266
 3056TIP3    H130659   3.876   0.153  14.870  0.6773  1.8787 -0.2747
 3056TIP3    H230660   3.858   0.142  15.019 -0.5079 -1.5545 -0.5970
 3057TIP3   OH230661   4.543   1.368   1.432  0.0955 -0.0739  0.3809
 3057TIP3    H130662   4.589   1.288   1.455 -1.1191 -0.3267  2.1232
 3057TIP3    H230663   4.491   1.345   1.355  2.2060  0.0198 -1.1629
 3058TIP3   OH230664   2.199   2.129  13.458 -0.3584  0.0623 -0.7634
 3058TIP3    H130665   2.211   2.190  13.531  0.1807 -0.9445  0.0142
 3058TIP3    H230666   2.233   2.175  13.382  1.0676  0.3360  0.0008
 3059TIP3   OH230667   3.489   1.216   3.273 -0.1908  0.2794  0.0451
 3059TIP3    H130668   3.517   1.224   3.365 -2.1102 -1.3968  0.8563
 3059TIP3    H230669   3.535   1.138   3.241 -1.1398 -0.3902  0.2783
 3060TIP3   OH230670   5.913   5.232   3.688  0.3480 -0.4854 -0.1753
 3060TIP3    H130671   5.947   5.152   3.727  2.2967  0.8680  1.0507
 3060TIP3    H230672   5.888   5.286   3.762 -1.3174 -0.0564 -0.9986
 3061TIP3   OH230673   4.355   5.439   2.701  0.2391 -0.1341  0.2136
 3061TIP3    H130674   4.437   5.488   2.702  0.1962 -0.0525  1.7868
 3061TIP3    H230675   4.376   5.354   2.738  0.0053 -0.8426 -1.2083
 3062TIP3   OH230676   3.619   1.750   4.080  0.2760  0.2527 -0.1156
 3062TIP3    H130677   3.663   1.670   4.050  0.7671 -0.3594  2.0540
 3062TIP3    H230678   3.690   1.807   4.108 -0.1687  0.5275  0.4682
 3063TIP3   OH230679   5.715   1.176  13.433  0.6712  0.1149 -0.2723
 3063TIP3    H130680   5.744   1.176  13.342 -0.1986  0.5305 -0.5685
 3063TIP3    H230681   5.773   1.238  13.477 -0.9475  2.5413 -1.2845
 3064TIP3   OH230682   0.349   4.347  17.101  1.1456  0.7976  0.6929
 3064TIP3    H130683   0.254   4.353  17.099  1.2536  3.2991 -0.8905
 3064TIP3    H230684   0.368   4.298  17.181 -1.4971 -2.3312 -0.3690
 3065TIP3   OH230685   4.132   1.838   4.896  0.0959 -0.2484  0.2235
 3065TIP3    H130686   4.088   1.760   4.929 -0.4450  0.3176  0.8568
 3065TIP3    H230687   4.210   1.804   4.852 -1.6103 -1.3923 -2.1233
 3066TIP3   OH230688   4.065   4.378   0.436 -0.3125  0.4403  0.4547
 3066TIP3    H130689   3.991   4.408   0.489 -1.5587 -0.6269 -0.6116
 3066TIP3    H230690   4.077   4.287   0.462 -0.8095 -0.0375 -0.8983
 3067TIP3   OH230691   0.192   4.143  13.256 -0.0458 -0.4719 -0.2549
 3067TIP3    H130692   0.201   4.049  13.238 -2.0224 -0.9418  0.8509
 3067TIP3    H230693   0.115   4.169  13.205  1.1105  0.8489 -1.4127
 3068TIP3   OH230694   0.845   0.709   2.034 -0.4773 -0.9884 -0.4106
 3068TIP3    H130695   0.882   0.787   1.993  0.1543 -1.6259 -1.1156
 3068TIP3    H230696   0.919   0.647   2.035 -0.8750 -1.4541  0.4357
 3069TIP3   OH230697   5.532   0.169  17.231  0.1782  0.2601  0.1415
 3069TIP3    H130698   5.474   0.093  17.237  0.4115  0.1446  1.2067
 3069TIP3    H230699   5.611   0.136  17.189  0.1832 -0.0277  0.3767
 3070TIP3   OH230700   1.159   4.032  14.324  0.3965 -0.1195 -0.0500
 3070TIP3    H130701   1.099   3.974  14.370  0.5261 -0.3346 -0.1489
 3070TIP3    H230702   1.122   4.119  14.334  0.3982 -0.1727  0.4157
 3071TIP3   OH230703   5.722   3.508  14.551  0.0381  0.1515 -0.1697
 3071TIP3    H130704   5.686   3.556  14.626 -1.9179  0.0905 -1.0028
 3071TIP3    H230705   5.809   3.480  14.580 -0.5658  0.3039  1.9977
 3072TIP3   OH230706   5.046   2.693  15.274  0.6837  0.1239 -0.4539
 3072TIP3    H130707   5.125   2.726  15.317  0.4383  1.1854 -0.7945
 3072TIP3    H230708   5.011   2.628  15.335  2.8836 -1.8836 -1.1747
 3073TIP3   OH230709   2.333   4.069   2.359  0.1449 -0.3422  0.0124
 3073TIP3    H130710   2.280   4.144   2.331 -1.1604 -0.2744  2.4230
 3073TIP3    H230711   2.278   3.993   2.343  1.1337 -0.7774 -1.6142
 3074TIP3   OH230712   5.559   1.945   0.439 -0.4234  0.1074 -0.2268
 3074TIP3    H130713   5.480   1.908   0.398 -0.3781  0.0748 -0.2848
 3074TIP3    H230714   5.577   2.025   0.389 -2.0245  1.6490  1.4981
 3075TIP3   OH230715   5.846   6.388   3.400  0.4447 -0.1670  0.4623
 3075TIP3    H130716   5.789   6.328   3.352  0.1239 -0.5542  1.3110
 3075TIP3    H230717   5.828   6.473   3.362 -1.0408 -0.2079  0.9967
 3076TIP3   OH230718   3.289   6.372   3.052 -0.4950  0.4287 -0.3507
 3076TIP3    H130719   3.333   6.329   3.126 -1.5298  0.4375  0.2959
 3076TIP3    H230720   3.360   6.394   2.992  0.0506 -2.9850 -1.1790
 3077TIP3   OH230721   5.681   3.346   4.350 -0.2870 -0.1646  0.0729
 3077TIP3    H130722   5.635   3.366   4.431 -1.6188  2.1047 -1.1457
 3077TIP3    H230723   5.770   3.379   4.364 -0.7805  1.1254  0.2936
 3078TIP3   OH230724   5.997   1.122   1.382  0.3036  0.1677 -0.0333
 3078TIP3    H130725   5.939   1.198   1.379 -1.9724 -1.4852 -1.7076
 3078TIP3    H230726   5.938   1.047   1.381  2.4837 -1.6451 -0.5231
 3079TIP3   OH230727   0.529   4.114   2.742 -0.0644 -0.3086  0.4829
 3079TIP3    H130728   0.561   4.071   2.821 -0.8654 -0.0210  0.9804
 3079TIP3    H230729   0.445   4.154   2.769  0.8232  1.9240  0.1787
 3080TIP3   OH230730   6.160   3.143   3.751  0.0059  0.5180  0.5446
 3080TIP3    H130731   6.081   3.194   3.768  0.1395  0.7211  0.5588
 3080TIP3    H230732   6.150   3.064   3.804 -0.6928  0.0362 -0.2900
 3081TIP3   OH230733   1.680   2.104   4.214  0.4565 -0.0871  0.3574
 3081TIP3    H130734   1.662   2.191   4.180 -3.1129 -1.7868 -2.8269
 3081TIP3    H230735   1.737   2.064   4.148 -1.0379 -1.2857 -0.2643
 3082TIP3   OH230736   6.278   3.697   0.533  0.0137 -0.5710  0.3995
 3082TIP3    H130737   6.353   3.741   0.574 -0.1440 -0.5399  0.6632
 3082TIP3    H230738   6.278   3.727   0.443 -0.1759  0.0799  0.6156
 3083TIP3   OH230739   3.186   4.993  16.748 -0.0524  0.3907 -0.4936
 3083TIP3    H130740   3.100   5.008  16.787 -0.1947 -0.9386 -0.2661
 3083TIP3    H230741   3.244   5.053  16.796 -0.6875  0.6666 -0.0516
 3084TIP3   OH230742   2.566   2.570  16.935  0.0921 -0.0707  0.1498
 3084TIP3    H130743   2.614   2.642  16.894  0.7503  0.6867  2.1756
 3084TIP3    H230744   2.498   2.612  16.987  0.1532 -0.9235  0.9446
 3085TIP3   OH230745   3.431   5.977  16.346 -0.3364 -0.4569  0.6839
 3085TIP3    H130746   3.419   6.049  16.409  0.2417 -1.1088  1.5637
 3085TIP3    H230747   3.376   5.907  16.380  1.2057 -1.3759  1.3929
 3086TIP3   OH230748   2.817   2.884  13.720 -0.3142 -0.0725  0.1585
 3086TIP3    H130749   2.734   2.919  13.752  0.7513  1.3850  1.4833
 3086TIP3    H230750   2.832   2.805  13.773 -0.9326 -0.4537 -0.2236
 3087TIP3   OH230751   5.148   5.752   2.717  0.3616 -0.2941 -0.0623
 3087TIP3    H130752   5.133   5.808   2.640 -1.0585  3.9104  2.9039
 3087TIP3    H230753   5.066   5.703   2.726  1.0981 -2.0006 -1.9383
 3088TIP3   OH230754   4.526   3.960   0.516  0.0792 -0.0326 -0.0800
 3088TIP3    H130755   4.463   3.905   0.470  1.4982 -1.7327 -0.0942
 3088TIP3    H230756   4.491   4.049   0.507 -1.4781 -0.7222 -1.4094
 3089TIP3   OH230757   0.571   3.040   5.591  0.0536  0.3727 -0.6523
 3089TIP3    H130758   0.648   3.086   5.623 -0.1887  0.3987 -0.1070
 3089TIP3    H230759   0.515   3.109   5.555  1.0747  0.1977 -2.7836
 3090TIP3   OH230760   2.130   0.865   4.283 -0.3891  0.3367 -0.0955
 3090TIP3    H130761   2.046   0.911   4.278  0.2150  1.6659  1.2482
 3090TIP3    H230762   2.188   0.914   4.224 -0.0269  0.6546  0.5179
 3091TIP3   OH230763   1.553   4.166   0.814  0.0818 -0.6565 -0.1447
 3091TIP3    H130764   1.625   4.219   0.850 -0.2242 -0.4176  0.1252
 3091TIP3    H230765   1.538   4.202   0.727  0.4059 -0.8211 -0.2696
 3092TIP3   OH230766   5.533   5.589  16.989 -0.3561 -0.0629 -0.1521
 3092TIP3    H130767   5.600   5.637  16.940 -1.4526 -0.2452 -1.9253
 3092TIP3    H230768   5.465   5.569  16.924 -0.7984 -2.4042  0.9282
 3093TIP3   OH230769   0.213   1.809  13.931 -0.6006  0.1402 -0.1600
 3093TIP3    H130770   0.191   1.726  13.889  0.9250 -0.1171 -0.5107
 3093TIP3    H230771   0.238   1.785  14.020 -0.5382  0.2703 -0.1430
 3094TIP3   OH230772   0.397   2.808   4.492  0.0979  1.0521  0.1621
 3094TIP3    H130773   0.403   2.743   4.422  0.3508  0.9518  0.2782
 3094TIP3    H230774   0.464   2.872   4.471  1.9965 -0.3024  1.6943
 3095TIP3   OH230775   6.236   3.887  14.316 -0.0494 -0.4356 -0.2037
 3095TIP3    H130776   6.197   3.805  14.288  0.2386 -0.0745 -1.7859
 3095TIP3    H230777   6.198   3.953  14.257  0.8605  0.3245  0.0304
 3096TIP3   OH230778   4.252   0.763  14.666 -0.6600  0.4144 -0.0184
 3096TIP3    H130779   4.240   0.703  14.739  0.1600  0.9403  0.5705
 3096TIP3    H230780   4.164   0.786  14.637 -0.9961 -1.4029 -0.5456
 3097TIP3   OH230781   1.631   1.576  11.982 -0.4714  0.1337  0.3831
 3097TIP3    H130782   1.580   1.524  11.920 -1.8638  0.9126  0.8455
 3097TIP3    H230783   1.706   1.520  12.004  0.1818 -0.0834 -2.1135
 3098TIP3   OH230784   6.258   3.481  11.417  0.0467  0.1563 -0.0652
 3098TIP3    H130785   6.336   3.439  11.454 -1.2127 -0.9186  1.5071
 3098TIP3    H230786   6.292   3.541  11.351  2.1303 -1.0823 -0.2052
 3099TIP3   OH230787   3.163   5.857  16.021  0.2140  0.1609 -0.7201
 3099TIP3    H130788   3.152   5.830  16.112 -1.9384  2.6886 -0.1000
 3099TIP3    H230789   3.121   5.788  15.969 -1.3075  0.1516  0.4517
 3100TIP3   OH230790   6.374   3.151  17.022 -0.4302  0.1643  0.3682
 3100TIP3    H130791   6.452   3.207  17.013  0.4891 -1.2774 -1.0501
 3100TIP3    H230792   6.409   3.066  17.047 -1.7235 -0.0955  1.3818
 3101TIP3   OH230793   5.032   1.765  13.430 -0.3624 -0.6887  0.0779
 3101TIP3    H130794   5.061   1.695  13.489 -0.4186 -0.8470 -0.0808
 3101TIP3    H230795   4.943   1.785  13.459  0.2398  0.4824  1.2010
 3102TIP3   OH230796   5.299   3.119  16.437  0.2350 -0.2043 -0.3252
 3102TIP3    H130797   5.242   3.101  16.362 -0.5157  1.8568 -0.3132
 3102TIP3    H230798   5.356   3.042  16.443  0.8082 -0.1500 -3.4566
 3103TIP3   OH230799   1.813   1.586  13.218 -0.0336 -0.1392 -0.1036
 3103TIP3    H130800   1.821   1.494  13.193  2.0294 -0.1076  0.2963
 3103TIP3    H230801   1.739   1.587  13.279 -1.5532 -1.1195 -1.8228
 3104TIP3   OH230802   1.970   4.440   3.362  0.1902 -0.1987  0.1796
 3104TIP3    H130803   1.993   4.395   3.443  2.4175  1.7322  0.7215
 3104TIP3    H230804   2.040   4.417   3.301  0.2044  0.8001 -0.2003
 3105TIP3   OH230805   5.389   4.077   1.527  0.0764  0.0567 -0.1363
 3105TIP3    H130806   5.445   4.106   1.454  0.1172 -0.5230 -0.3345
 3105TIP3    H230807   5.414   4.135   1.599  0.9811 -0.2281 -0.2069
 3106TIP3   OH230808   6.274   1.997  12.613  0.0457  0.0263  0.3228
 3106TIP3    H130809   6.222   1.919  12.634  0.7105 -0.7234 -0.7829
 3106TIP3    H230810   6.365   1.969  12.620  0.3041  0.2174 -1.7231
 3107TIP3   OH230811   2.175   1.738  15.669 -0.6269  0.2098  0.1751
 3107TIP3    H130812   2.158   1.695  15.753  0.1205  1.2099  0.8714
 3107TIP3    H230813   2.228   1.676  15.620  2.2603  1.0305  1.9658
 3108TIP3   OH230814   4.811   6.630  12.914  0.7083  0.0404 -0.2369
 3108TIP3    H130815   4.882   6.675  12.868  0.2559 -0.4447 -1.4593
 3108TIP3    H230816   4.731   6.665  12.874  0.2668  0.2302  0.7899
 3109TIP3   OH230817   0.946   2.492   5.237 -0.2042  0.3872 -0.0745
 3109TIP3    H130818   1.034   2.498   5.200 -0.2609  0.4676 -0.1983
 3109TIP3    H230819   0.890   2.534   5.172 -0.0978  2.0585  0.8487
 3110TIP3   OH230820   4.392   1.484  16.183  0.3101  0.2225  0.5354
 3110TIP3    H130821   4.329   1.489  16.112  0.5697  2.2506  0.4074
 3110TIP3    H230822   4.344   1.443  16.255 -0.8705  0.8795  0.1350
 3111TIP3   OH230823   0.640   2.813   0.755  0.4900 -0.0739 -0.2487
 3111TIP3    H130824   0.552   2.848   0.767  0.4125 -0.0398 -0.8464
 3111TIP3    H230825   0.658   2.827   0.662  1.3637  0.4660 -0.0045
 3112TIP3   OH230826   1.554   6.597   2.249  0.1903 -0.2416  0.5034
 3112TIP3    H130827   1.528   6.505   2.236  1.0890 -0.6675  1.5604
 3112TIP3    H230828   1.527   6.617   2.338 -3.4096  1.7661 -0.8155
 3113TIP3   OH230829   0.900   5.812  14.523  0.6993  0.1131  0.1096
 3113TIP3    H130830   0.900   5.804  14.428 -0.1644  0.3422  0.0855
 3113TIP3    H230831   0.827   5.758  14.552  1.6940 -0.9367  0.7457
 3114TIP3   OH230832   2.903   6.201  14.862  0.2396  0.4201 -0.2083
 3114TIP3    H130833   2.939   6.141  14.927 -1.0119  0.1062  0.2392
 3114TIP3    H230834   2.810   6.177  14.857  0.6341 -1.1023 -3.7354
 3115TIP3   OH230835   5.537   2.189   1.404 -0.2779 -0.2438  0.0854
 3115TIP3    H130836   5.491   2.267   1.373  1.1868  0.3408 -0.7643
 3115TIP3    H230837   5.537   2.197   1.499 -1.7266 -0.1771  0.0975
 3116TIP3   OH230838   5.782   5.251   4.775  0.0125 -0.0822 -0.4040
 3116TIP3    H130839   5.807   5.335   4.812  0.4792  0.5112 -1.9825
 3116TIP3    H230840   5.687   5.256   4.767 -0.0338  0.0018  0.1515
 3117TIP3   OH230841   5.159   2.406   4.476 -0.1556 -0.0352 -0.0298
 3117TIP3    H130842   5.197   2.324   4.444  1.0924  0.3696  0.3645
 3117TIP3    H230843   5.066   2.400   4.453  0.3214 -0.6106 -1.9903
 3118TIP3   OH230844   1.904   2.498  15.964  0.3781  0.0737 -0.5231
 3118TIP3    H130845   1.999   2.490  15.971  0.4145  0.2479 -0.7791
 3118TIP3    H230846   1.889   2.516  15.871 -0.1148 -2.7716 -1.0870
 3119TIP3   OH230847   3.367   2.045   1.526  0.4153 -0.3335 -0.3699
 3119TIP3    H130848   3.289   2.070   1.576  1.5018 -0.5102  1.5312
 3119TIP3    H230849   3.406   2.128   1.499 -0.0480 -0.2213 -0.6928
 3120TIP3   OH230850   4.193   6.380  12.995  0.1642  0.3664 -0.4773
 3120TIP3    H130851   4.266   6.421  12.948  0.1583  2.4300  1.1615
 3120TIP3    H230852   4.223   6.290  13.012  1.7753  0.7731 -0.9882
 3121TIP3   OH230853   6.158   3.954  15.722 -0.1772  0.5235 -0.3233
 3121TIP3    H130854   6.112   4.000  15.792 -2.5047 -2.2411  0.1566
 3121TIP3    H230855   6.214   3.891  15.767  0.6577  0.7895 -0.9635
 3122TIP3   OH230856   1.702   0.552   4.887  0.0879  0.4152 -0.4042
 3122TIP3    H130857   1.710   0.647   4.894  0.9153  0.2493  2.5614
 3122TIP3    H230858   1.786   0.518   4.919 -0.5548 -1.3044 -0.4015
 3123TIP3   OH230859   2.114   4.727  13.617  0.6843  0.5682  0.0134
 3123TIP3    H130860   2.204   4.755  13.633  0.8657  0.0947 -0.1750
 3123TIP3    H230861   2.101   4.740  13.523  0.4502  0.9375  0.0948
 3124TIP3   OH230862   4.787   4.011   2.681  0.4905  0.4056  0.1975
 3124TIP3    H130863   4.812   3.919   2.689  0.2932  0.3403  0.0721
 3124TIP3    H230864   4.812   4.051   2.764  1.1351  0.3721  0.0305
 3125TIP3   OH230865   6.501   4.855  16.728 -0.1175  0.7778  0.1516
 3125TIP3    H130866   6.590   4.879  16.703 -0.7062  0.5204 -2.4077
 3125TIP3    H230867   6.510   4.818  16.816  2.3001  0.6523 -0.0885
 3126TIP3   OH230868   6.623   0.302   5.738 -0.2644  0.5741 -0.3367
 3126TIP3    H130869   6.552   0.239   5.747  1.1217 -1.6601 -3.4144
 3126TIP3    H230870   6.702   0.254   5.764  0.5499  1.8454 -0.3716
 3127TIP3   OH230871   0.659   1.441  11.210  0.0502  0.2467  0.0015
 3127TIP3    H130872   0.754   1.429  11.217 -0.1520 -1.1959  0.6822
 3127TIP3    H230873   0.625   1.352  11.200 -1.2663  0.7167  0.1708
 3128TIP3   OH230874   4.513   1.095   3.371 -0.1405 -0.4722 -0.2512
 3128TIP3    H130875   4.445   1.028   3.366 -0.4319 -0.1651 -0.4192
 3128TIP3    H230876   4.481   1.157   3.436  0.8089 -1.2553  1.0093
 3129TIP3   OH230877   6.407   3.668   4.896 -0.3379 -0.1325  0.1417
 3129TIP3    H130878   6.325   3.643   4.938 -0.3921  0.9929  0.7507
 3129TIP3    H230879   6.392   3.756   4.863  0.2604 -0.3590 -0.7822
 3130TIP3   OH230880   6.428   2.003  15.668  0.1131 -0.1753 -0.3115
 3130TIP3    H130881   6.511   2.010  15.621 -0.1921  0.2392 -0.7890
 3130TIP3    H230882   6.368   1.965  15.605 -0.2100  0.0597 -0.1446
 3131TIP3   OH230883   5.021   4.053  13.569 -0.0479  0.6632 -0.2742
 3131TIP3    H130884   4.942   4.057  13.623 -0.1450 -1.1041 -0.2321
 3131TIP3    H230885   5.090   4.088  13.626 -0.2756 -0.5472  0.7800
 3132TIP3   OH230886   4.922   2.765  15.728 -0.0582  0.5287 -0.1169
 3132TIP3    H130887   4.997   2.735  15.780 -0.0287 -1.2033 -1.0664
 3132TIP3    H230888   4.954   2.843  15.683  1.2710 -0.2723 -0.6331
 3133TIP3   OH230889   3.325   5.529  16.719 -0.1807  0.0280 -0.1868
 3133TIP3    H130890   3.378   5.593  16.766 -0.1951  0.7600 -1.1321
 3133TIP3    H230891   3.298   5.574  16.639  2.2919 -2.0452 -2.4139
 3134TIP3   OH230892   6.121   6.195  14.034  0.0767 -0.1693 -0.3485
 3134TIP3    H130893   6.215   6.191  14.017  0.3555  0.4181  0.9544
 3134TIP3    H230894   6.113   6.177  14.128 -1.1805 -0.9042 -0.5758
 3135TIP3   OH230895   4.768   5.480   5.159  0.2134 -0.0736 -0.4220
 3135TIP3    H130896   4.694   5.482   5.097  0.0732  2.2740 -0.2863
 3135TIP3    H230897   4.726   5.486   5.245  0.4993 -0.9991 -0.2117
 3136TIP3   OH230898   3.248   6.700   4.100 -0.2248 -0.0929  0.3475
 3136TIP3    H130899   3.196   6.745   4.167 -1.3322  0.1371 -0.6369
 3136TIP3    H230900   3.268   6.768   4.036 -1.2867 -0.7890 -0.7847
 3137TIP3   OH230901   6.104   3.021  16.431 -0.4697 -0.4662 -0.0918
 3137TIP3    H130902   6.029   2.969  16.460  1.5559 -2.9126  1.2388
 3137TIP3    H230903   6.176   2.990  16.485  1.8000  0.8122 -2.1829
 3138TIP3   OH230904   6.502   4.833  13.294  0.5203 -0.0671 -0.9468
 3138TIP3    H130905   6.470   4.780  13.221  0.9058  0.0260 -1.1877
 3138TIP3    H230906   6.560   4.775  13.343  0.3583 -0.0925 -0.7835
 3139TIP3   OH230907   0.307   0.930   3.035 -0.6487 -0.0765 -0.3754
 3139TIP3    H130908   0.384   0.944   3.089 -1.6920 -0.2994  1.2312
 3139TIP3    H230909   0.341   0.923   2.946  1.2214 -0.5853  0.3408
 3140TIP3   OH230910   4.177   1.492  15.450  0.1272 -0.4986 -0.5504
 3140TIP3    H130911   4.110   1.477  15.516 -0.0530  0.4682 -0.4950
 3140TIP3    H230912   4.257   1.457  15.488  0.3648  1.4368  0.8878
 3141TIP3   OH230913   1.904   5.199   5.261  0.0346 -0.1065 -0.7384
 3141TIP3    H130914   1.967   5.151   5.316 -1.7255 -2.3096 -0.4763
 3141TIP3    H230915   1.844   5.239   5.323 -0.3303 -0.2427 -1.0019
 3142TIP3   OH230916   4.118   4.093   0.448 -0.0483 -0.1855 -0.4888
 3142TIP3    H130917   4.200   4.045   0.458 -0.2619 -0.4025  0.2428
 3142TIP3    H230918   4.102   4.094   0.353  0.0803 -1.3602 -0.5331
 3143TIP3   OH230919   0.897   6.043  15.778 -0.1046  0.4079 -0.0314
 3143TIP3    H130920   0.866   6.099  15.706 -2.1529  1.0395  1.2530
 3143TIP3    H230921   0.978   6.085  15.807 -0.6714  1.7281 -0.2411
 3144TIP3   OH230922   0.048   6.537  12.296  0.4049 -0.7533  0.6782
 3144TIP3    H130923   0.047   6.573  12.207 -0.7471  0.3115  1.0939
 3144TIP3    H230924   0.102   6.458  12.289  0.5242 -0.5700 -0.9131
 3145TIP3   OH230925   1.799   4.989   4.288 -0.3808 -0.3222  0.5943
 3145TIP3    H130926   1.859   4.920   4.318 -1.3646 -2.8930 -2.7708
 3145TIP3    H230927   1.856   5.054   4.246  0.3933  0.0740  2.1687
 3146TIP3   OH230928   5.191   5.988  11.103  0.4301 -0.1899  0.1207
 3146TIP3    H130929   5.273   6.036  11.091 -0.1827  0.7985 -0.2430
 3146TIP3    H230930   5.209   5.900  11.070  1.5322 -0.1765  0.6575
 3147TIP3   OH230931   4.632   4.577   1.187 -0.5770  0.0444 -0.4782
 3147TIP3    H130932   4.538   4.591   1.179 -0.6458  1.8803  2.0584
 3147TIP3    H230933   4.652   4.601   1.278  2.1368 -1.6308 -0.5051
 3148TIP3   OH230934   0.682   3.614   3.871 -0.3124 -0.1301  0.1266
 3148TIP3    H130935   0.593   3.615   3.838 -0.2856  1.4215  0.0345
 3148TIP3    H230936   0.679   3.558   3.948 -1.0350 -1.2965 -0.7274
 3149TIP3   OH230937   5.222   1.980   4.741  0.0744  0.5192 -0.5314
 3149TIP3    H130938   5.310   1.958   4.711  0.3162 -0.2856  0.6655
 3149TIP3    H230939   5.211   2.072   4.721  0.8494  0.4154 -1.4930
 3150TIP3   OH230940   5.557   4.322   5.627  0.0973  0.7693  0.6647
 3150TIP3    H130941   5.505   4.287   5.698  0.1375  1.3384  0.9856
 3150TIP3    H230942   5.615   4.250   5.601 -3.9488 -1.6929 -2.9740
 3151TIP3   OH230943   3.147   2.599  14.918  0.3693 -0.3605  0.1917
 3151TIP3    H130944   3.202   2.630  14.990 -0.3097  1.7146 -0.1330
 3151TIP3    H230945   3.202   2.608  14.840  1.5477 -3.7527  0.4760
 3152TIP3   OH230946   4.732   2.180   2.001  0.2611 -0.3579 -0.4534
 3152TIP3    H130947   4.805   2.217   1.952  0.4562 -3.0748 -2.4592
 3152TIP3    H230948   4.656   2.192   1.944 -0.1234 -0.8517 -0.0582
 3153TIP3   OH230949   6.531   5.729   4.880  0.6082 -0.3767 -0.0007
 3153TIP3    H130950   6.626   5.741   4.878  0.7920 -1.7942 -1.7536
 3153TIP3    H230951   6.515   5.653   4.824 -1.3402 -1.8960  2.4140
 3154TIP3   OH230952   2.389   1.661  14.136  0.3124  0.2917  0.1774
 3154TIP3    H130953   2.431   1.578  14.115  0.4513  0.5238 -0.4719
 3154TIP3    H230954   2.431   1.689  14.217  0.8061  0.0977 -0.0080
 3155TIP3   OH230955   2.596   2.109  13.779 -0.2053 -0.1796 -0.0960
 3155TIP3    H130956   2.664   2.055  13.739  0.7280  0.2153  0.9022
 3155TIP3    H230957   2.633   2.137  13.862 -1.3671  0.5478  0.2082
 3156TIP3   OH230958   2.663   4.403  15.546  0.0512  0.2548  0.3227
 3156TIP3    H130959   2.640   4.484  15.499 -1.8050  1.1042  2.5519
 3156TIP3    H230960   2.755   4.388  15.522 -0.3642  1.4091 -2.3766
 3157TIP3   OH230961   5.619   3.103  11.377  0.3431 -0.1245  0.1259
 3157TIP3    H130962   5.569   3.025  11.353 -1.2164  1.1955 -1.1151
 3157TIP3    H230963   5.555   3.160  11.419  1.4351  0.5754  0.8936
 3158TIP3   OH230964   1.195   0.775   5.339  0.0317  0.6609 -0.7355
 3158TIP3    H130965   1.148   0.857   5.319 -1.5918  0.2208  0.9398
 3158TIP3    H230966   1.181   0.762   5.433 -0.1932 -1.7986 -1.0398
 3159TIP3   OH230967   3.130   1.103   3.791 -0.9561  0.4374 -0.0121
 3159TIP3    H130968   3.126   1.022   3.740 -0.0795  0.3079  0.1130
 3159TIP3    H230969   3.212   1.144   3.764 -0.3769  0.2762  1.4170
 3160TIP3   OH230970   0.647   5.515  12.317 -0.1051 -0.1011 -0.5484
 3160TIP3    H130971   0.586   5.583  12.346 -2.1402 -1.3148 -1.7119
 3160TIP3    H230972   0.690   5.486  12.398  0.5342  2.2276  0.0147
 3161TIP3   OH230973   4.309   3.586  14.965  0.3831 -0.1722  0.1281
 3161TIP3    H130974   4.327   3.665  14.914  0.2865  0.4991  1.0996
 3161TIP3    H230975   4.293   3.518  14.899 -0.9178  0.9240 -0.7623
 3162TIP3   OH230976   2.240   5.476  13.233  0.0228 -0.0875 -0.1168
 3162TIP3    H130977   2.190   5.542  13.184 -0.1700 -1.4174 -1.8324
 3162TIP3    H230978   2.304   5.526  13.282 -0.8640  1.4506 -0.4646
 3163TIP3   OH230979   5.663   5.547   4.454  0.2060  0.4978 -0.0982
 3163TIP3    H130980   5.653   5.622   4.396  1.2614 -0.2175 -1.2618
 3163TIP3    H230981   5.581   5.497   4.443 -0.5510  1.5065  0.7781
 3164TIP3   OH230982   1.285   4.490   5.930  0.1454 -0.9784 -0.2377
 3164TIP3    H130983   1.335   4.548   5.987 -1.2479  0.3252 -0.2730
 3164TIP3    H230984   1.286   4.534   5.845  0.2671 -1.7306 -0.6284
 3165TIP3   OH230985   5.859   1.587  13.456 -0.5823  0.1134 -0.0772
 3165TIP3    H130986   5.915   1.510  13.446  0.1503  0.4711  1.0300
 3165TIP3    H230987   5.771   1.555  13.435  0.0245 -0.4175 -2.0263
 3166TIP3   OH230988   3.903   5.635  13.709  0.1632 -0.0130  0.2969
 3166TIP3    H130989   3.860   5.666  13.629 -0.3601  0.3515  0.7077
 3166TIP3    H230990   3.992   5.613  13.682 -0.0992 -0.1764 -0.4448
 3167TIP3   OH230991   4.077   2.810   3.559  0.0311  0.0454  0.0914
 3167TIP3    H130992   4.100   2.732   3.509  0.2124  0.3382 -0.2885
 3167TIP3    H230993   3.986   2.828   3.534 -0.4814 -0.8484  1.2463
 3168TIP3   OH230994   2.994   3.086  15.327  0.2184  0.6013  0.2060
 3168TIP3    H130995   2.968   3.177  15.313  2.5124  1.5252  1.3339
 3168TIP3    H230996   3.009   3.080  15.422  1.1539 -0.6232  0.0043
 3169TIP3   OH230997   2.909   5.066  12.085  0.0652  0.5373  0.0490
 3169TIP3    H130998   2.949   5.002  12.025  0.9993 -1.0590  2.2055
 3169TIP3    H230999   2.824   5.029  12.106 -0.4873  1.3705 -0.6903
 3170TIP3   OH231000   3.418   2.295   3.262 -0.0292  0.4571 -0.3527
 3170TIP3    H131001   3.404   2.219   3.318  1.7166  0.6618  0.4208
 3170TIP3    H231002   3.398   2.370   3.319 -0.3550  0.6268 -0.6847
 3171TIP3   OH231003   0.039   1.030   1.332  0.2462  0.7912  0.0423
 3171TIP3    H131004   0.125   1.070   1.343  0.0465  1.0271  0.7752
 3171TIP3    H231005   0.046   0.946   1.378 -0.1204  1.1095  0.6863
 3172TIP3   OH231006   6.680   5.763  11.394  0.3416  0.4052  0.0479
 3172TIP3    H131007   6.734   5.767  11.473 -0.7978  1.3978  0.8180
 3172TIP3    H231008   6.742   5.770  11.322  1.4178 -0.5424  0.8371
 3173TIP3   OH231009   0.274   3.485  12.489 -0.5353 -0.0350 -0.2436
 3173TIP3    H131010   0.295   3.494  12.396  1.8893  0.1837  0.2537
 3173TIP3    H231011   0.231   3.401  12.496 -1.3934  0.2594 -1.6532
 3174TIP3   OH231012   5.476   3.912  16.483  0.5829  0.1727 -0.3756
 3174TIP3    H131013   5.388   3.952  16.479 -0.3920 -1.8723 -0.5142
 3174TIP3    H231014   5.487   3.888  16.574  1.1104  0.5998 -0.3220
 3175TIP3   OH231015   2.784   5.136   1.556  0.3778 -0.5587  0.2462
 3175TIP3    H131016   2.820   5.156   1.642  0.9303 -0.2482 -0.0573
 3175TIP3    H231017   2.838   5.184   1.494 -0.3432 -0.3538 -0.2443
 3176TIP3   OH231018   4.369   6.240  15.146  0.0505 -0.0508 -0.6143
 3176TIP3    H131019   4.402   6.327  15.170  0.7024  0.0125 -1.6564
 3176TIP3    H231020   4.300   6.258  15.082 -0.6049 -0.2683  0.0186
 3177TIP3   OH231021   5.610   2.369   6.533 -0.1454  0.0849 -0.3507
 3177TIP3    H131022   5.640   2.458   6.551 -0.1043  0.3930 -1.8879
 3177TIP3    H231023   5.654   2.315   6.599  2.0883  0.8029 -1.1956
 3178TIP3   OH231024   0.834   2.790   2.313  0.2688  0.3431 -0.1580
 3178TIP3    H131025   0.874   2.843   2.383 -0.9739  0.6459  0.3441
 3178TIP3    H231026   0.907   2.740   2.277  1.5763  2.7174 -0.9603
 3179TIP3   OH231027   4.577   6.528   4.116 -0.3421  0.5779  0.2001
 3179TIP3    H131028   4.483   6.513   4.123 -0.3079 -1.2600 -2.0818
 3179TIP3    H231029   4.615   6.481   4.190 -1.0825 -1.2054 -0.4958
 3180TIP3   OH231030   0.989   4.238   0.332 -0.6839  0.5112  0.0063
 3180TIP3    H131031   0.902   4.224   0.295 -0.7472  0.4747  0.1691
 3180TIP3    H231032   0.997   4.333   0.341 -0.0748  0.6346 -1.5392
 3181TIP3   OH231033   4.726   0.590  12.983  0.5350 -0.1020 -0.2987
 3181TIP3    H131034   4.717   0.594  13.078 -0.8587  0.3844 -0.4295
 3181TIP3    H231035   4.816   0.560  12.969  0.7871 -0.1163  1.1633
 3182TIP3   OH231036   4.390   2.067  14.581  1.1272 -0.4848 -0.2117
 3182TIP3    H131037   4.305   2.048  14.620  1.4326 -1.0943  0.1826
 3182TIP3    H231038   4.454   2.040  14.647  1.6386 -0.6440 -0.7529
 3183TIP3   OH231039   0.875   2.191   2.631  0.1843  0.3253  0.7519
 3183TIP3    H131040   0.908   2.273   2.596  0.5287 -0.2010 -0.1975
 3183TIP3    H231041   0.942   2.126   2.608 -0.0195 -0.1992  1.5995
 3184TIP3   OH231042   1.722   4.522  15.640 -0.0156  0.3498  0.3202
 3184TIP3    H131043   1.789   4.473  15.689 -2.3411 -0.3785  3.0522
 3184TIP3    H231044   1.756   4.611  15.635  1.6863 -0.2450  0.4773
 3185TIP3   OH231045   3.573   1.076  10.706 -0.4117 -0.6492 -0.9407
 3185TIP3    H131046   3.480   1.092  10.723 -0.5144 -1.4370 -0.7057
 3185TIP3    H231047   3.599   1.147  10.647 -0.7761  0.4677  0.2001
 3186TIP3   OH231048   3.170   6.075   4.061  0.8161  0.0403 -0.4039
 3186TIP3    H131049   3.126   6.151   4.024  0.5916  0.4616  0.7060
 3186TIP3    H231050   3.237   6.053   3.997 -0.2290  0.1031 -1.5628
 3187TIP3   OH231051   1.299   6.106   5.315  0.2787  0.4833 -0.3868
 3187TIP3    H131052   1.276   6.096   5.407 -0.4218  1.4488 -0.4512
 3187TIP3    H231053   1.379   6.054   5.305 -0.8957 -1.5632  0.2281
 3188TIP3   OH231054   1.766   2.776  12.685 -0.0255 -0.5869 -0.0743
 3188TIP3    H131055   1.733   2.864  12.700  0.9933  0.0985 -1.5856
 3188TIP3    H231056   1.843   2.769  12.742 -1.6192 -1.5351  2.0878
 3189TIP3   OH231057   5.073   6.128   4.095  0.0288  0.1079 -0.3293
 3189TIP3    H131058   5.008   6.088   4.153  1.5519 -1.0454  0.6469
 3189TIP3    H231059   5.136   6.058   4.078  1.3524  1.3666 -0.7568
 3190TIP3   OH231060   1.775   5.920  15.417  0.3422 -0.1871 -0.0743
 3190TIP3    H131061   1.774   6.004  15.371  0.4560  0.4556  1.0396
 3190TIP3    H231062   1.725   5.861  15.361 -2.4032  1.4027  0.5001
 3191TIP3   OH231063   1.581   1.440   3.128 -0.6002  0.2119  0.2462
 3191TIP3    H131064   1.574   1.357   3.174 -0.4175  0.4024  0.6191
 3191TIP3    H231065   1.609   1.416   3.039  1.6200  0.0175  0.9474
 3192TIP3   OH231066   5.894   6.515   0.944  0.0956 -0.0486 -0.0967
 3192TIP3    H131067   5.887   6.610   0.935  0.2765  0.0853  0.9886
 3192TIP3    H231068   5.977   6.492   0.904  0.5605  0.4024  0.5923
 3193TIP3   OH231069   1.758   4.531  11.858  0.5297  0.3484  0.1720
 3193TIP3    H131070   1.796   4.462  11.804  0.6136 -0.2624  0.9793
 3193TIP3    H231071   1.793   4.613  11.822  1.1535 -0.0899 -0.2385
 3194TIP3   OH231072   0.703   1.058  11.432 -0.4220  0.2097 -0.0204
 3194TIP3    H131073   0.641   1.098  11.371 -0.1695 -1.8303 -1.7368
 3194TIP3    H231074   0.680   0.965  11.432  1.8529 -0.4216  0.1788
 3195TIP3   OH231075   0.345   2.044   2.910  0.4715  0.4336  0.0489
 3195TIP3    H131076   0.351   2.128   2.864 -1.1523  0.0399 -0.9817
 3195TIP3    H231077   0.343   1.978   2.840 -0.1252 -0.3266  0.7535
 3196TIP3   OH231078   5.525   0.731   5.805  0.0738 -0.7921  0.5237
 3196TIP3    H131079   5.480   0.652   5.774 -0.1208 -1.1562  1.6880
 3196TIP3    H231080   5.493   0.743   5.894  0.1855  0.5484  0.4018
 3197TIP3   OH231081   2.608   6.514   1.546 -0.1483  0.2060  0.2789
 3197TIP3    H131082   2.695   6.508   1.587  0.1213  1.7696 -0.0142
 3197TIP3    H231083   2.625   6.517   1.452 -0.4618  1.2248  0.2440
 3198TIP3   OH231084   6.500   2.929   1.209  0.0480 -0.0540 -0.7360
 3198TIP3    H131085   6.560   2.885   1.148 -0.9803  0.7834 -2.4150
 3198TIP3    H231086   6.493   3.018   1.176 -0.9351  0.2914  0.3303
 3199TIP3   OH231087   0.762   4.083  11.361 -0.1394  0.3433 -0.2563
 3199TIP3    H131088   0.667   4.095  11.364 -0.1512  0.2348 -0.1693
 3199TIP3    H231089   0.787   4.108  11.273 -0.1274  1.2689 -0.0016
 3200TIP3   OH231090   2.998   2.785   1.642  0.3221  0.0247  0.4895
 3200TIP3    H131091   3.041   2.826   1.567  0.2002 -0.4804  0.1287
 3200TIP3    H231092   3.066   2.777   1.708  0.1626  1.4715  0.8467
 3201TIP3   OH231093   4.850   1.353  14.862  0.0453  0.5646 -0.3306
 3201TIP3    H131094   4.822   1.328  14.950 -0.0453  0.4262 -0.3981
 3201TIP3    H231095   4.815   1.442  14.850  1.9756  1.5313  0.6343
 3202TIP3   OH231096   3.054   6.184  13.410  0.1787 -0.3679  0.5380
 3202TIP3    H131097   3.132   6.147  13.370  0.2844 -0.1327  0.5239
 3202TIP3    H231098   3.006   6.109  13.444 -0.2259 -0.6308 -0.5850
 3203TIP3   OH231099   0.498   3.240  14.638  0.0692 -0.2710  0.4357
 3203TIP3    H131100   0.521   3.257  14.729 -1.7956 -0.3708  0.9688
 3203TIP3    H231101   0.417   3.289  14.624  0.0992 -0.5944 -1.0442
 3204TIP3   OH231102   2.688   5.644   0.910 -0.1305  0.3806  0.5696
 3204TIP3    H131103   2.781   5.666   0.902 -0.0561 -0.3679 -0.8476
 3204TIP3    H231104   2.684   5.584   0.985  0.7562 -0.7521 -0.2698
 3205TIP3   OH231105   1.326   3.732   3.199  0.3001  0.3792  0.0814
 3205TIP3    H131106   1.261   3.797   3.224 -1.8312 -1.6385  0.1335
 3205TIP3    H231107   1.338   3.679   3.278  0.8994 -0.1615 -0.3597
 3206TIP3   OH231108   1.782   6.672   1.517 -0.2336  0.2620  0.3528
 3206TIP3    H131109   1.713   6.607   1.534 -0.8124  0.9436  0.6486
 3206TIP3    H231110   1.863   6.625   1.534 -0.6605 -0.2874  0.9425
 3207TIP3   OH231111   3.928   2.322  16.448 -0.2837 -0.1380 -0.4077
 3207TIP3    H131112   3.849   2.355  16.406  0.5769  1.8607 -0.5790
 3207TIP3    H231113   3.994   2.319  16.379  0.1752 -0.3877  0.0264
 3208TIP3   OH231114   1.995   1.719  13.361 -0.3800  0.1677 -0.3851
 3208TIP3    H131115   1.931   1.673  13.306  0.5808  0.5906 -1.9165
 3208TIP3    H231116   2.079   1.702  13.319  0.2803  1.2408  0.4667
 3209TIP3   OH231117   3.745   1.433  17.271  0.0331 -0.1790 -0.2055
 3209TIP3    H131118   3.737   1.380  17.351  0.2374 -0.0341 -0.0876
 3209TIP3    H231119   3.815   1.390  17.222 -0.4980 -0.6204 -0.5891
 3210TIP3   OH231120   3.300   4.310  15.981 -0.1221  0.1773  0.1073
 3210TIP3    H131121   3.214   4.308  16.022 -0.4141 -1.6598 -0.5179
 3210TIP3    H231122   3.288   4.266  15.897  1.4038  0.0066 -0.0533
 3211TIP3   OH231123   6.438   1.824  12.775 -0.0840 -0.3686 -0.1747
 3211TIP3    H131124   6.376   1.788  12.838 -1.3028  0.2904 -0.9337
 3211TIP3    H231125   6.517   1.772  12.785 -0.2343 -0.2668  1.8827
 3212TIP3   OH231126   6.791   4.434   0.525 -0.1303  0.1116 -0.3103
 3212TIP3    H131127   6.870   4.397   0.485  1.0885 -0.7230  2.5897
 3212TIP3    H231128   6.725   4.365   0.517  0.7942 -0.9886  1.0628
 3213TIP3   OH231129   2.273   0.621  17.070  0.0299 -0.4799  0.0039
 3213TIP3    H131130   2.208   0.577  17.126  0.9645 -0.7549  0.9053
 3213TIP3    H231131   2.310   0.551  17.017 -0.3884 -0.3238 -0.5044
 3214TIP3   OH231132   4.219   0.801  10.929 -0.4749 -0.2196 -0.3358
 3214TIP3    H131133   4.157   0.859  10.885 -1.1154 -1.4374 -1.0760
 3214TIP3    H231134   4.244   0.737  10.863  0.3667 -0.6848  0.4083
 3215TIP3   OH231135   1.405   3.554   1.412 -0.0138  0.3584  0.4456
 3215TIP3    H131136   1.415   3.459   1.409 -2.2647  0.0830 -0.0295
 3215TIP3    H231137   1.382   3.572   1.503 -2.5661  0.0193 -0.0575
 3216TIP3   OH231138   4.331   1.137   0.524  0.1624 -0.0102 -0.0268
 3216TIP3    H131139   4.283   1.220   0.525 -1.7928 -1.0557  1.8425
 3216TIP3    H231140   4.348   1.120   0.432 -0.4651  1.8613 -0.5329
 3217TIP3   OH231141   1.386   5.849  14.051 -0.0923 -0.2303  0.7984
 3217TIP3    H131142   1.448   5.852  13.978 -1.6365  1.5277 -0.5354
 3217TIP3    H231143   1.359   5.757  14.054 -0.0206 -0.3405 -0.8941
 3218TIP3   OH231144   6.114   0.429  15.887  0.0788 -0.1333  0.2987
 3218TIP3    H131145   6.155   0.389  15.964 -0.9403 -1.2048  0.3144
 3218TIP3    H231146   6.090   0.355  15.832 -0.3224  0.5635 -0.4775
 3219TIP3   OH231147   1.027   4.728  12.725 -0.7529 -0.1449  0.0956
 3219TIP3    H131148   0.960   4.675  12.769  0.5419 -1.6860  0.3006
 3219TIP3    H231149   1.022   4.814  12.767 -2.2250 -0.3880  0.4666
 3220TIP3   OH231150   3.779   1.722  12.840  0.7421 -0.0949 -0.5526
 3220TIP3    H131151   3.845   1.695  12.905  0.3403  0.7205  0.2186
 3220TIP3    H231152   3.698   1.684  12.872  0.1975  1.7733  0.4584
 3221TIP3   OH231153   1.447   6.275  16.607  0.4904  0.0332 -0.1426
 3221TIP3    H131154   1.415   6.343  16.666  0.3184  1.3248 -1.6569
 3221TIP3    H231155   1.541   6.272  16.623  0.3772  0.0247  0.5332
 3222TIP3   OH231156   0.589   0.352   4.291  0.0803 -0.4384 -0.3462
 3222TIP3    H131157   0.666   0.340   4.235 -0.3080 -1.4326 -0.6791
 3222TIP3    H231158   0.518   0.370   4.230 -0.1091 -0.2957 -0.0836
 3223TIP3   OH231159   6.050   0.690  16.840 -0.3927 -0.0187  0.5735
 3223TIP3    H131160   6.083   0.649  16.760 -1.0901 -0.1941  0.3678
 3223TIP3    H231161   6.023   0.778  16.812  0.5392  0.3797  0.8881
 3224TIP3   OH231162   5.947   4.871  14.643 -0.1809 -0.0417  1.0563
 3224TIP3    H131163   5.915   4.827  14.722 -1.0216 -3.2280 -0.8690
 3224TIP3    H231164   5.870   4.916  14.608 -0.1071  0.3831  1.4394
 3225TIP3   OH231165   1.476   0.145  11.631 -0.1793 -0.6754  0.3220
 3225TIP3    H131166   1.526   0.179  11.705  0.5641 -1.8416  0.3826
 3225TIP3    H231167   1.423   0.074  11.669 -1.6793  0.3362  0.1989
 3226TIP3   OH231168   3.160   2.933   5.023  0.7209 -0.4084  0.2076
 3226TIP3    H131169   3.138   2.903   4.935 -1.4500 -0.5253  0.7405
 3226TIP3    H231170   3.210   2.860   5.061  4.1130  0.6729 -1.7256
 3227TIP3   OH231171   6.273   1.068  13.557 -0.2812 -0.7903  0.2453
 3227TIP3    H131172   6.324   1.148  13.547 -0.5114 -0.7912 -1.2253
 3227TIP3    H231173   6.210   1.088  13.625 -0.2430  0.2377 -0.0049
 3228TIP3   OH231174   2.094   5.739  17.095  1.3164 -0.2180 -0.0081
 3228TIP3    H131175   2.070   5.815  17.147 -1.9327 -1.0249 -0.1478
 3228TIP3    H231176   2.142   5.776  17.020 -0.3598  1.7506 -0.1851
 3229TIP3   OH231177   5.548   3.848  12.926  0.0219 -0.4495  0.3866
 3229TIP3    H131178   5.542   3.860  13.021 -0.2502  1.4757  0.1761
 3229TIP3    H231179   5.460   3.868  12.894 -0.1057 -1.8942 -0.2197
 3230TIP3   OH231180   5.222   1.728   6.244 -0.5345  0.0475 -0.0326
 3230TIP3    H131181   5.294   1.671   6.269 -0.7902 -0.3616 -0.2271
 3230TIP3    H231182   5.166   1.731   6.322  0.9786  2.4445  1.0822
 3231TIP3   OH231183   6.292   0.242  14.966  0.4608 -0.2945 -0.3825
 3231TIP3    H131184   6.306   0.259  15.060  0.6355 -0.3084 -0.4069
 3231TIP3    H231185   6.380   0.238  14.929  0.3789  0.2007 -0.6325
 3232TIP3   OH231186   1.804   3.933   1.450 -0.5802  0.6811  0.3455
 3232TIP3    H131187   1.883   3.956   1.402 -0.9463  2.2635  0.4748
 3232TIP3    H231188   1.766   3.860   1.400  0.5670  0.3701 -0.1075
 3233TIP3   OH231189   3.133   3.108   2.218  0.2563  0.0601 -0.5533
 3233TIP3    H131190   3.149   3.017   2.194  0.1955  0.6352 -3.0349
 3233TIP3    H231191   3.055   3.105   2.274  0.5608 -1.4377 -0.1767
 3234TIP3   OH231192   1.488   1.530   5.236  0.0432  0.4208  0.4064
 3234TIP3    H131193   1.434   1.527   5.157  0.9170 -0.7937 -0.1821
 3234TIP3    H231194   1.436   1.484   5.302 -0.4593  0.9656  0.3960
 3235TIP3   OH231195   0.222   1.832   1.683  0.0470  0.5091  0.7890
 3235TIP3    H131196   0.174   1.864   1.606  1.4919  0.5271 -0.1374
 3235TIP3    H231197   0.289   1.898   1.698  0.9458 -0.4188  0.9243
 3236TIP3   OH231198   0.187   2.718   5.498 -0.3210 -0.6904  0.1311
 3236TIP3    H131199   0.138   2.788   5.541 -1.6476 -1.9176  0.6913
 3236TIP3    H231200   0.139   2.701   5.417 -0.2972 -1.2934  0.2421
 3237TIP3   OH231201   1.145   5.874   2.285  0.0669 -0.4456  0.3492
 3237TIP3    H131202   1.173   5.927   2.360  0.0516  0.6156 -0.3699
 3237TIP3    H231203   1.140   5.937   2.212 -1.2560 -1.1833 -0.2236
 3238TIP3   OH231204   1.801   6.162   6.597 -0.1485  0.2267 -0.5799
 3238TIP3    H131205   1.710   6.145   6.621 -0.1862  0.5882 -0.4618
 3238TIP3    H231206   1.799   6.248   6.555  0.5683  1.6529  2.1228
 3239TIP3   OH231207   2.940   5.332  11.972  0.3781  0.1328 -0.3476
 3239TIP3    H131208   2.945   5.241  12.003  0.7092  0.6709  1.3119
 3239TIP3    H231209   2.934   5.383  12.053  0.4346  1.6009 -1.2528
 3240TIP3   OH231210   0.652   0.835  10.075  0.3257  0.1590  0.4796
 3240TIP3    H131211   0.621   0.764  10.019  0.7009  0.0087  0.4614
 3240TIP3    H231212   0.724   0.797  10.125 -0.5820  0.0227  1.7463
 3241TIP3   OH231213   6.721   1.616   3.381 -0.1007 -0.1841  0.2649
 3241TIP3    H131214   6.655   1.665   3.331  1.3531  1.7182  0.1225
 3241TIP3    H231215   6.683   1.608   3.468 -2.4856 -3.1829 -0.8419
 3242TIP3   OH231216   6.169   5.641  15.679 -0.3831  0.7484  0.1012
 3242TIP3    H131217   6.148   5.721  15.631  0.6557  1.3706  0.6582
 3242TIP3    H231218   6.258   5.655  15.712  0.1230 -0.9353 -0.4263
 3243TIP3   OH231219   1.330   0.790   5.087 -0.1821  0.0521  0.0291
 3243TIP3    H131220   1.250   0.835   5.058 -1.8474 -2.3702  0.5535
 3243TIP3    H231221   1.325   0.791   5.182  0.5251  0.0172  0.0732
 3244TIP3   OH231222   5.704   5.947  11.012 -0.5620  0.1124  0.2210
 3244TIP3    H131223   5.745   5.916  11.093  2.0116  1.4007 -0.4918
 3244TIP3    H231224   5.649   5.873  10.984  0.4600 -1.3371  1.8096
 3245TIP3   OH231225   4.667   1.725  12.021 -0.2102  0.3697  0.3909
 3245TIP3    H131226   4.679   1.767  12.107  0.3384  0.0915  0.4563
 3245TIP3    H231227   4.732   1.656  12.020  1.8518  2.1868 -1.4246
 3246TIP3   OH231228   5.452   1.588  13.654  0.4300 -0.7394  0.2277
 3246TIP3    H131229   5.513   1.590  13.581 -0.8589 -3.3423 -1.0815
 3246TIP3    H231230   5.480   1.512  13.706 -1.1471 -1.5138  0.0152
 3247TIP3   OH231231   4.371   3.052  16.784 -0.6481  0.0382  0.0528
 3247TIP3    H131232   4.345   2.962  16.804  2.0246 -0.4903  1.6977
 3247TIP3    H231233   4.453   3.043  16.736 -1.6811  1.6226 -2.1783
 3248TIP3   OH231234   3.664   5.323  14.812 -0.3732  0.4641  0.1938
 3248TIP3    H131235   3.626   5.239  14.785  0.1669 -0.2414  1.5345
 3248TIP3    H231236   3.623   5.387  14.754  0.2742 -0.8684 -1.8301
 3249TIP3   OH231237   1.664   0.305   4.337  0.1117 -0.3537 -0.1381
 3249TIP3    H131238   1.659   0.362   4.414  2.7334 -1.5913  1.0813
 3249TIP3    H231239   1.583   0.254   4.340 -0.8715  1.1692  0.4686
 3250TIP3   OH231240   2.460   1.326  15.243 -0.1440 -0.6802 -0.0073
 3250TIP3    H131241   2.444   1.235  15.216  1.9932 -1.1903  0.2570
 3250TIP3    H231242   2.381   1.350  15.292 -1.3011 -1.9301 -1.1547
 3251TIP3   OH231243   6.669   1.070   3.785  0.1329  0.1099 -0.3968
 3251TIP3    H131244   6.705   1.146   3.739  2.3787 -1.1994 -0.9512
 3251TIP3    H231245   6.650   1.008   3.715 -0.5290 -0.2933  0.1397
 3252TIP3   OH231246   1.752   2.493   0.462 -0.5405  0.2926  0.1256
 3252TIP3    H131247   1.756   2.422   0.525  2.1213 -2.1355 -2.4767
 3252TIP3    H231248   1.702   2.458   0.389 -1.6754  2.2313 -0.1020
 3253TIP3   OH231249   4.408   1.965  12.328 -0.0653 -0.2226  0.1043
 3253TIP3    H131250   4.355   1.934  12.254  0.8045  0.6752 -0.9353
 3253TIP3    H231251   4.346   1.974  12.400 -0.7553 -2.1100 -0.1960
 3254TIP3   OH231252   4.012   3.996  13.918  0.0475  0.4673  0.0094
 3254TIP3    H131253   3.932   3.984  13.970  1.7399 -0.4723  2.5820
 3254TIP3    H231254   3.987   3.970  13.830 -1.8271 -2.6416  1.2736
 3255TIP3   OH231255   3.832   6.220  15.201  0.1685 -0.0748 -0.1946
 3255TIP3    H131256   3.847   6.266  15.118 -1.5421 -1.4297 -1.3348
 3255TIP3    H231257   3.737   6.219  15.211  0.2718 -1.2880  0.9929
 3256TIP3   OH231258   3.676   2.483  16.329  0.0815  0.0620 -0.3311
 3256TIP3    H131259   3.723   2.543  16.387  3.0104 -1.1479 -1.2699
 3256TIP3    H231260   3.688   2.521  16.241  0.2147 -0.8099 -0.6946
 3257TIP3   OH231261   0.904   4.700   4.925 -0.1514  0.4718 -0.1825
 3257TIP3    H131262   0.817   4.741   4.923  0.2598  1.3408 -2.2633
 3257TIP3    H231263   0.887   4.607   4.909 -0.6814  0.6856 -0.8803
 3258TIP3   OH231264   4.127   2.575   3.158 -0.0099 -0.7579  0.8960
 3258TIP3    H131265   4.170   2.660   3.149 -0.4484 -0.3206  2.4881
 3258TIP3    H231266   4.038   2.589   3.128  0.7053 -1.5300 -1.8964
 3259TIP3   OH231267   0.263   2.296  16.898  0.4992 -0.6205 -0.0800
 3259TIP3    H131268   0.172   2.274  16.878  0.7246 -0.9503 -0.7557
 3259TIP3    H231269   0.294   2.342  16.820  1.1577 -1.2500 -0.1998
 3260TIP3   OH231270   2.547   2.372  17.138 -0.5308 -0.1064 -0.2169
 3260TIP3    H131271   2.547   2.415  17.052  0.9387  1.4613  0.5060
 3260TIP3    H231272   2.543   2.444  17.201  3.3846 -0.7871  1.1006
 3261TIP3   OH231273   2.113   4.152  11.641 -0.2396  0.1413  0.3518
 3261TIP3    H131274   2.179   4.170  11.708  0.2184 -0.9371  0.2017
 3261TIP3    H231275   2.152   4.184  11.559 -1.5652  3.2767  0.7760
 3262TIP3   OH231276   3.095   1.919  15.656  0.0518 -0.6833 -0.4106
 3262TIP3    H131277   3.120   1.989  15.717 -0.6717 -1.4493  0.7937
 3262TIP3    H231278   3.159   1.850  15.672 -1.8069 -2.0511  1.6104
 3263TIP3   OH231279   2.669   6.177  10.697  0.6039  0.2680  0.1049
 3263TIP3    H131280   2.707   6.244  10.755  0.4624  1.5715 -1.2421
 3263TIP3    H231281   2.690   6.208  10.609 -0.3216 -0.9776 -0.5750
 3264TIP3   OH231282   0.097   3.741  13.782  0.3567 -0.6723 -0.8865
 3264TIP3    H131283   0.083   3.729  13.876  1.9764 -2.6694 -0.8418
 3264TIP3    H231284   0.160   3.812  13.776 -0.4800  0.1245 -0.5458
 3265TIP3   OH231285   3.454   1.690   2.500 -0.0936 -0.0761 -0.0877
 3265TIP3    H131286   3.380   1.656   2.450  0.7553 -1.1220 -0.6908
 3265TIP3    H231287   3.416   1.756   2.557 -1.5435 -0.8109 -0.1438
 3266TIP3   OH231288   6.765   2.371   4.776  0.1569 -0.2828 -0.1182
 3266TIP3    H131289   6.748   2.293   4.723  0.5176 -1.0917  0.9191
 3266TIP3    H231290   6.717   2.356   4.857  0.1784  0.6094  0.0716
 3267TIP3   OH231291   3.125   5.032  11.786 -0.0638  0.5908  0.3586
 3267TIP3    H131292   3.150   5.036  11.694 -0.2956  1.2588  0.3207
 3267TIP3    H231293   3.120   5.123  11.813  0.1457  0.3915  1.0762
 3268TIP3   OH231294   3.806   4.830   3.009 -0.3943  0.6080 -0.1233
 3268TIP3    H131295   3.762   4.848   3.093 -0.6467 -0.0515 -0.1075
 3268TIP3    H231296   3.827   4.737   3.013  2.3190  1.1651  0.4763
 3269TIP3   OH231297   6.449   6.629   5.004  0.0785 -0.5263  0.2864
 3269TIP3    H131298   6.479   6.589   4.922 -1.1752 -4.3594  1.4778
 3269TIP3    H231299   6.354   6.632   4.996 -0.2310 -2.7373  2.2123
 3270TIP3   OH231300   4.339   3.778  14.685  0.4834  0.3380  0.1609
 3270TIP3    H131301   4.316   3.804  14.596 -0.7478 -0.7576  0.1438
 3270TIP3    H231302   4.429   3.810  14.696  0.4209  1.0822 -1.2231
 3271TIP3   OH231303   0.896   0.142   0.477 -0.2367  0.1412  0.1228
 3271TIP3    H131304   0.914   0.082   0.550  0.3965  0.8628  0.5718
 3271TIP3    H231305   0.946   0.220   0.498 -2.0693  1.3495  0.2254
 3272TIP3   OH231306   4.627   3.590   5.627  0.0699  0.4927 -0.6673
 3272TIP3    H131307   4.689   3.655   5.592  0.4759  0.2171 -0.4696
 3272TIP3    H231308   4.677   3.508   5.630 -0.2938  0.2756 -0.4693
 3273TIP3   OH231309   5.162   2.237   1.353 -0.0755 -0.1090  0.0105
 3273TIP3    H131310   5.231   2.295   1.321 -0.5984 -0.0233 -1.0025
 3273TIP3    H231311   5.185   2.151   1.318  0.3946 -0.4048  1.0379
 3274TIP3   OH231312   2.694   4.869   1.600  0.0173  0.1163  0.3261
 3274TIP3    H131313   2.639   4.868   1.522  1.5645  0.4781 -0.8187
 3274TIP3    H231314   2.749   4.947   1.590  0.4440  0.0102  1.6331
 3275TIP3   OH231315   4.608   4.415  13.752 -0.2214  0.8929 -0.0721
 3275TIP3    H131316   4.565   4.501  13.750  0.0933  1.0516 -0.2303
 3275TIP3    H231317   4.568   4.366  13.681 -0.5354  0.8419  0.1371
 3276TIP3   OH231318   0.949   6.727   3.494 -0.0304 -0.1928 -0.4416
 3276TIP3    H131319   0.967   6.800   3.554  1.0836  0.4801 -1.5584
 3276TIP3    H231320   1.002   6.655   3.529 -0.4083 -0.2066  0.1244
 3277TIP3   OH231321   3.132   4.971  15.565 -0.3956  0.0629  0.1738
 3277TIP3    H131322   3.175   5.018  15.636  1.3647 -0.3218 -0.5577
 3277TIP3    H231323   3.203   4.951  15.503 -1.4822 -1.4483 -0.6810
 3278TIP3   OH231324   4.283   5.041   4.198 -0.1016  0.6240  0.0428
 3278TIP3    H131325   4.302   5.126   4.157 -0.0593 -0.3439 -2.0562
 3278TIP3    H231326   4.189   5.044   4.215 -0.2677  0.7448 -0.8698
 3279TIP3   OH231327   4.774   1.776   5.533  0.4292 -0.5747  0.1495
 3279TIP3    H131328   4.768   1.868   5.556  1.5678 -0.5265  0.3223
 3279TIP3    H231329   4.690   1.755   5.492  0.2279  0.5759 -0.0394
 3280TIP3   OH231330   0.172   6.784   1.529 -0.3374  0.3253 -0.2939
 3280TIP3    H131331   0.106   6.811   1.592 -0.9190 -0.8701 -0.3569
 3280TIP3    H231332   0.229   6.860   1.519 -1.2817  1.1292  0.3055
 3281TIP3   OH231333   2.170   3.543   2.327 -0.0987 -0.3977  0.2716
 3281TIP3    H131334   2.165   3.507   2.416 -1.0009 -1.9010 -0.3425
 3281TIP3    H231335   2.262   3.532   2.302 -0.0689 -0.9924  0.6193
 3282TIP3   OH231336   0.838   3.950   5.396  0.1205 -0.4210 -0.2473
 3282TIP3    H131337   0.781   4.016   5.356 -0.9195 -2.2594 -2.0338
 3282TIP3    H231338   0.915   3.948   5.339  0.5260 -0.1734  0.2903
 3283TIP3   OH231339   0.564   5.751  11.355  0.1911 -0.1815 -0.4772
 3283TIP3    H131340   0.601   5.838  11.342  0.0738 -0.1398 -0.5326
 3283TIP3    H231341   0.471   5.761  11.336  0.2365 -0.3937 -0.8183
 3284TIP3   OH231342   3.808   4.331   0.014  0.2674  0.2737 -0.2425
 3284TIP3    H131343   3.827   4.300  -0.074  1.2559 -1.8807  0.6662
 3284TIP3    H231344   3.730   4.282   0.041 -0.3425  1.3004 -0.0876
 3285TIP3   OH231345   6.682   0.669  17.045  0.1912 -0.3009 -0.2957
 3285TIP3    H131346   6.606   0.728  17.049 -0.7129 -1.4513  0.3728
 3285TIP3    H231347   6.702   0.662  16.952  0.9508  1.8027 -0.3331
 3286TIP3   OH231348   0.076   3.267   3.257  0.1388  0.1871  0.3835
 3286TIP3    H131349   0.003   3.251   3.198  0.4969  0.3320 -0.0979
 3286TIP3    H231350   0.089   3.362   3.254 -0.7047  0.3779  1.7228
 3287TIP3   OH231351   4.259   5.249   4.886  0.3142  0.0143 -0.3017
 3287TIP3    H131352   4.290   5.158   4.886  1.3270  0.3112  1.6652
 3287TIP3    H231353   4.317   5.294   4.946 -0.4472  1.9014 -0.9137
 3288TIP3   OH231354   0.835   3.637   6.122 -0.4937  0.0298 -0.0858
 3288TIP3    H131355   0.834   3.713   6.181  1.7513 -0.2557  0.4303
 3288TIP3    H231356   0.913   3.651   6.068 -0.8448 -1.2223 -0.9496
 3289TIP3   OH231357   5.185   0.070  12.663  0.3799  0.2539  0.1817
 3289TIP3    H131358   5.246   0.141  12.642  0.1181  0.8114  1.2290
 3289TIP3    H231359   5.242  -0.004  12.686  0.6547  0.4416  0.1170
 3290TIP3   OH231360   5.242   0.698  16.175  0.5377  0.2870  0.1819
 3290TIP3    H131361   5.212   0.622  16.224  0.9501 -0.5863 -0.8895
 3290TIP3    H231362   5.338   0.692  16.179  0.7509  2.9207  3.3925
 3291TIP3   OH231363   3.170   4.171   4.355  0.0957 -0.1257  0.5879
 3291TIP3    H131364   3.183   4.238   4.288 -0.8723 -1.7238 -1.3082
 3291TIP3    H231365   3.082   4.188   4.389 -0.7206 -1.2007 -0.8908
 3292TIP3   OH231366   2.054   0.424   2.972 -0.0126  0.5478  0.2163
 3292TIP3    H131367   2.101   0.500   3.005 -0.5032  0.6586  0.6699
 3292TIP3    H231368   1.972   0.422   3.022  1.2522 -2.0679  2.4884
 3293TIP3   OH231369   1.457   5.125  17.270 -0.4323 -0.1132  0.1277
 3293TIP3    H131370   1.398   5.089  17.203 -0.3754 -1.1242  0.5992
 3293TIP3    H231371   1.482   5.049  17.323  0.4120  0.4857  0.6164
 3294TIP3   OH231372   5.180   5.686   0.405  0.7002  0.6302  0.1942
 3294TIP3    H131373   5.090   5.690   0.436  0.0101  1.0686 -1.7686
 3294TIP3    H231374   5.226   5.635   0.472 -1.7396 -2.7470 -0.4385
 3295TIP3   OH231375   2.532   6.406   2.315 -0.6548 -0.9548  0.4788
 3295TIP3    H131376   2.523   6.448   2.401 -0.9022  0.7803 -0.3575
 3295TIP3    H231377   2.556   6.477   2.256 -0.1462 -2.1815 -0.8526
 3296TIP3   OH231378   2.793   5.518  15.464 -0.3944 -0.4285  0.0883
 3296TIP3    H131379   2.731   5.590  15.461  0.7401  0.6523  1.0993
 3296TIP3    H231380   2.870   5.550  15.417  0.6729 -0.3807  1.7839
 3297TIP3   OH231381   2.525   3.556  13.042 -0.0679 -0.7197 -0.6000
 3297TIP3    H131382   2.609   3.575  13.082  0.2290 -1.6015 -0.7814
 3297TIP3    H231383   2.528   3.600  12.958 -0.6734  1.0971  0.2932
 3298TIP3   OH231384   3.188   2.406   4.191  0.4208 -0.0648 -0.0614
 3298TIP3    H131385   3.283   2.408   4.175  0.8375 -2.6552  1.3894
 3298TIP3    H231386   3.153   2.357   4.116  0.6015 -1.1666  0.5517
 3299TIP3   OH231387   2.886   3.608  14.712 -0.3262  0.0289 -0.4999
 3299TIP3    H131388   2.867   3.693  14.672 -1.2114  0.1505  0.1476
 3299TIP3    H231389   2.835   3.607  14.793  0.2393 -0.8332 -0.1350
 3300TIP3   OH231390   5.004   1.098  12.542 -0.2780 -0.0025  0.0912
 3300TIP3    H131391   4.942   1.075  12.473  0.5877 -1.7200 -0.1578
 3300TIP3    H231392   4.981   1.043  12.616  2.4401 -2.6961 -0.8459
 3301TIP3   OH231393   3.171   0.245  12.119  0.6565  0.7538  0.6112
 3301TIP3    H131394   3.112   0.293  12.177 -0.3588  0.1343  0.1282
 3301TIP3    H231395   3.161   0.288  12.034 -0.7792 -0.6502  0.0058
 3302TIP3   OH231396   6.647   2.616  14.054 -0.2972 -0.0906 -0.4150
 3302TIP3    H131397   6.701   2.537  14.060  0.8656  0.6372 -1.1184
 3302TIP3    H231398   6.678   2.672  14.126 -0.7216 -0.0169 -0.2816
 3303TIP3   OH231399   4.980   5.401  10.873 -0.9102  0.0935 -0.4373
 3303TIP3    H131400   4.934   5.349  10.807 -1.4107  2.1724 -1.8428
 3303TIP3    H231401   5.067   5.360  10.879 -2.0127 -2.2758  0.2885
 3304TIP3   OH231402   1.039   3.101  14.950 -0.3237 -0.2995 -0.2109
 3304TIP3    H131403   1.000   3.046  15.018 -2.4062  0.8534 -0.3990
 3304TIP3    H231404   1.133   3.084  14.957 -0.4585 -0.3866  2.8274
 3305TIP3   OH231405   4.352   5.801   5.030  0.8499  0.7848  0.6524
 3305TIP3    H131406   4.316   5.814   4.943  0.7684 -0.6969  0.4289
 3305TIP3    H231407   4.416   5.731   5.019 -1.2393 -1.5642  2.2113
 3306TIP3   OH231408   0.124   4.214   5.774 -0.4814  0.2797  0.4070
 3306TIP3    H131409   0.120   4.167   5.691  2.4732 -0.4545  0.5579
 3306TIP3    H231410   0.158   4.300   5.751 -0.0703  0.2242  0.7919
 3307TIP3   OH231411   1.593   1.151  12.279 -0.9685 -0.4390  0.6192
 3307TIP3    H131412   1.590   1.199  12.363 -1.5454  1.5448 -0.4650
 3307TIP3    H231413   1.555   1.066  12.299  0.5084 -0.6774  2.7511
 3308TIP3   OH231414   2.425   2.454  14.264 -0.4352 -0.2276 -0.3903
 3308TIP3    H131415   2.401   2.504  14.343 -1.2178 -1.0046 -0.1212
 3308TIP3    H231416   2.520   2.466  14.257 -0.3248 -0.2423  0.7516
 3309TIP3   OH231417   6.737   5.171   1.303  0.5410  0.6105  0.2256
 3309TIP3    H131418   6.809   5.220   1.263 -0.0896  3.3627  2.1617
 3309TIP3    H231419   6.703   5.116   1.233  2.4204  1.6845 -1.6362
 3310TIP3   OH231420   6.305   3.273  14.186  0.3505  0.0710 -0.4454
 3310TIP3    H131421   6.398   3.290  14.199 -0.1054  2.2753  0.4174
 3310TIP3    H231422   6.289   3.292  14.094  0.5103  1.2195 -0.2534
 3311TIP3   OH231423   5.204   1.344   3.042  0.4588  1.1685 -0.5096
 3311TIP3    H131424   5.230   1.395   3.119 -1.7820  2.1191 -0.3036
 3311TIP3    H231425   5.149   1.403   2.991 -0.3474 -0.3213 -1.4472
 3312TIP3   OH231426   1.193   6.482   1.057 -0.4409  0.0661  0.0903
 3312TIP3    H131427   1.194   6.416   0.988  0.8850 -0.6459  0.7477
 3312TIP3    H231428   1.274   6.467   1.105 -0.8283  1.2343  1.1554
 3313TIP3   OH231429   4.960   1.364   0.042  0.0094 -0.0044 -0.5489
 3313TIP3    H131430   5.046   1.386   0.076 -0.8675 -0.7964  2.5823
 3313TIP3    H231431   4.937   1.282   0.087 -2.2603  0.0597 -1.4608
 3314TIP3   OH231432   3.589   4.046   6.061 -0.4997 -0.2373 -0.4937
 3314TIP3    H131433   3.645   4.032   6.137  1.0531 -2.0795 -1.8715
 3314TIP3    H231434   3.572   4.140   6.061  1.1668  0.1161  0.9959
 3315TIP3   OH231435   3.661   0.876   6.898 -0.1588  0.0611 -0.0371
 3315TIP3    H131436   3.724   0.856   6.967  0.6830 -1.2183 -1.1178
 3315TIP3    H231437   3.714   0.907   6.825 -1.1099  2.3048  0.1396
 3316TIP3   OH231438   4.400   0.658   2.451 -0.2402  0.0188  0.1722
 3316TIP3    H131439   4.492   0.681   2.437 -0.7815  2.4970  0.2615
 3316TIP3    H231440   4.399   0.618   2.538  0.8396 -0.7470 -0.1412
 3317TIP3   OH231441   4.532   1.682  12.853  0.1351 -0.3917  0.2998
 3317TIP3    H131442   4.528   1.613  12.787  3.6095 -0.5105  0.0061
 3317TIP3    H231443   4.465   1.745  12.826 -0.0702 -1.5042 -2.0638
 3318TIP3   OH231444   6.588   4.613  15.221  0.2709 -0.3262 -0.3407
 3318TIP3    H131445   6.554   4.688  15.269 -1.1084  0.0441 -1.8073
 3318TIP3    H231446   6.645   4.568  15.283  1.1157  1.8986  0.6002
 3319TIP3   OH231447   3.810   3.485  15.097 -0.4832  0.0571 -0.2154
 3319TIP3    H131448   3.845   3.404  15.134 -1.0477 -0.8966 -1.6764
 3319TIP3    H231449   3.888   3.534  15.070 -0.1512 -1.2242 -1.7658
 3320TIP3   OH231450   0.935   0.075  13.951  0.1346  0.0354  0.2568
 3320TIP3    H131451   0.849   0.086  13.991  0.1389 -2.1368  0.9937
 3320TIP3    H231452   0.983   0.019  14.013  1.6505  0.1907 -0.7247
 3321TIP3   OH231453   1.443   3.343  15.850 -0.3420  0.0452  0.4185
 3321TIP3    H131454   1.378   3.307  15.910 -0.0999  0.6617  1.0578
 3321TIP3    H231455   1.519   3.286  15.860 -0.5696 -0.3161  0.1162
 3322TIP3   OH231456   5.234   4.437  12.205 -0.4749  0.4419  0.1365
 3322TIP3    H131457   5.328   4.416  12.207 -0.4421  0.5534 -0.1559
 3322TIP3    H231458   5.213   4.458  12.296 -0.1515  0.6847  0.1596
 3323TIP3   OH231459   0.090   1.480   2.779 -0.1609 -0.2717  0.3618
 3323TIP3    H131460   0.185   1.471   2.789  0.4522  2.4391 -1.7643
 3323TIP3    H231461   0.066   1.548   2.842  0.0345  1.5606 -1.4165
 3324TIP3   OH231462   0.974   1.915   0.804  0.1902 -0.0578  0.1441
 3324TIP3    H131463   1.044   1.958   0.853  0.1618  0.4133 -0.2181
 3324TIP3    H231464   0.966   1.967   0.723  3.3888 -3.3520 -2.6815
 3325TIP3   OH231465   2.681   1.266   5.627  0.2811  0.6847 -0.6148
 3325TIP3    H131466   2.737   1.322   5.573 -0.7150 -1.3586 -4.0853
 3325TIP3    H231467   2.729   1.184   5.635 -0.0487  0.6003  0.8632
 3326TIP3   OH231468   3.247   1.708   4.788  0.6305 -0.4370  0.0690
 3326TIP3    H131469   3.238   1.621   4.751 -0.5758 -0.2793 -0.0529
 3326TIP3    H231470   3.311   1.752   4.732 -1.1972 -0.1744 -1.9486
 3327TIP3   OH231471   2.055   6.259   4.348  0.3577  0.8747 -0.2175
 3327TIP3    H131472   1.968   6.265   4.387  1.4643  2.4542  2.3150
 3327TIP3    H231473   2.050   6.311   4.268 -0.7434  1.8954  0.4902
 3328TIP3   OH231474   3.980   2.032   3.847  0.1883  0.0342 -0.4519
 3328TIP3    H131475   4.038   2.056   3.775  0.8231 -0.2926 -0.0602
 3328TIP3    H231476   3.961   2.115   3.891  1.1796  0.0297  0.0147
 3329TIP3   OH231477   4.534   1.254   3.638  0.3960  0.8443 -0.4886
 3329TIP3    H131478   4.578   1.323   3.588  0.7478  0.5510 -0.5867
 3329TIP3    H231479   4.562   1.269   3.729  2.1038 -0.3788 -0.7731
 3330TIP3   OH231480   1.718   0.203  10.839 -0.6714  0.6037 -0.1919
 3330TIP3    H131481   1.698   0.296  10.837 -1.3250  0.4602 -0.9217
 3330TIP3    H231482   1.724   0.178  10.747 -2.8464 -0.5352 -0.0921
 3331TIP3   OH231483   0.296   1.136   1.340  0.4784  0.5862  0.0466
 3331TIP3    H131484   0.328   1.179   1.419  1.4146  1.1518 -0.6270
 3331TIP3    H231485   0.372   1.092   1.303 -0.0511 -0.0557 -0.3060
 3332TIP3   OH231486   0.485   6.672   3.023 -0.0150 -0.3809  0.4233
 3332TIP3    H131487   0.555   6.608   3.038 -0.4408 -0.2315  4.1090
 3332TIP3    H231488   0.405   6.624   3.046 -0.4195  1.1291  2.4067
 3333TIP3   OH231489   2.835   1.118  13.991  0.0632 -0.5176  0.3064
 3333TIP3    H131490   2.876   1.152  13.911 -0.5621  0.0814  0.2295
 3333TIP3    H231491   2.870   1.030  14.000  2.2345  0.3236  0.8356
 3334TIP3   OH231492   2.492   5.207  16.089 -0.0335  0.1570  0.2274
 3334TIP3    H131493   2.523   5.155  16.014 -0.2154 -0.5022  0.6014
 3334TIP3    H231494   2.539   5.290  16.081  0.4207 -0.1352 -0.2658
 3335TIP3   OH231495   5.056   2.690  14.785  0.4934 -0.4795 -0.2025
 3335TIP3    H131496   5.091   2.772  14.749  2.2248 -2.0744 -2.4804
 3335TIP3    H231497   5.003   2.654  14.714  1.6286 -2.3721 -0.1578
 3336TIP3   OH231498   1.492   0.005   6.294 -1.0640 -0.1911  0.3333
 3336TIP3    H131499   1.567   0.050   6.332 -2.2366 -0.1789  2.8020
 3336TIP3    H231500   1.441   0.076   6.254 -1.8860  0.4751  2.4426
 3337TIP3   OH231501   2.037   1.982  11.016 -0.3377  0.4298  0.1649
 3337TIP3    H131502   2.103   1.943  10.959 -0.1361 -0.4757  1.0010
 3337TIP3    H231503   2.004   2.057  10.966  0.4649  0.1874 -0.7601
 3338TIP3   OH231504   6.734   3.721  15.512 -0.4285 -0.0514 -0.7217
 3338TIP3    H131505   6.659   3.666  15.534 -0.5647  0.2008 -0.5660
 3338TIP3    H231506   6.738   3.786  15.582 -1.1186  1.0137 -1.6445
 3339TIP3   OH231507   5.667   1.530   3.307 -0.2348  0.0508 -0.1366
 3339TIP3    H131508   5.755   1.523   3.270  0.1778 -0.7767  0.9506
 3339TIP3    H231509   5.620   1.586   3.246  0.6143 -0.7094 -1.5498
 3340TIP3   OH231510   3.821   5.671  11.977  0.5845  0.1730 -0.7302
 3340TIP3    H131511   3.783   5.746  12.023 -1.0015 -0.2839 -1.2308
 3340TIP3    H231512   3.802   5.596  12.034  0.2812 -0.1311 -1.2249
 3341TIP3   OH231513   3.821   6.230  13.785  0.2079  0.0257 -0.1852
 3341TIP3    H131514   3.745   6.259  13.834  0.4216 -1.8490  1.3758
 3341TIP3    H231515   3.885   6.205  13.852  1.7303  0.3647 -1.4454
 3342TIP3   OH231516   1.205   4.649  15.933  0.8337  0.9558  0.1289
 3342TIP3    H131517   1.117   4.681  15.954  0.2558  0.0351 -0.7650
 3342TIP3    H231518   1.264   4.718  15.961 -0.3243  2.5495 -1.1967
 3343TIP3   OH231519   3.555   5.543  14.662  0.1907  0.1200  0.3303
 3343TIP3    H131520   3.539   5.539  14.568  0.7472 -0.3647  0.2457
 3343TIP3    H231521   3.472   5.573  14.700 -0.0050  0.4170 -0.3191
 3344TIP3   OH231522   1.133   1.041   5.313 -0.8630 -0.5945 -0.4276
 3344TIP3    H131523   1.093   1.071   5.394 -0.2463 -2.0004  0.4258
 3344TIP3    H231524   1.110   1.109   5.249 -2.4108 -0.0839  0.6081
 3345TIP3   OH231525   3.616   2.178   6.103 -0.1201  0.1193  0.0587
 3345TIP3    H131526   3.542   2.224   6.143 -0.1795 -0.8386  1.0901
 3345TIP3    H231527   3.681   2.171   6.172 -0.7195 -2.6829  0.4546
 3346TIP3   OH231528   6.512   1.734  13.908  0.9691 -0.0177 -0.1249
 3346TIP3    H131529   6.431   1.769  13.872  1.0177  0.0442 -0.1743
 3346TIP3    H231530   6.564   1.811  13.932  1.1486 -0.0537 -0.3976
 3347TIP3   OH231531   5.911   0.641  15.934  0.2097  0.4373 -0.0125
 3347TIP3    H131532   5.962   0.569  15.895 -0.1385  1.1502 -1.8761
 3347TIP3    H231533   5.822   0.607  15.938  0.2976  0.2556  0.4726
 3348TIP3   OH231534   6.028   5.157  14.609 -0.1287  0.8797  0.0472
 3348TIP3    H131535   6.043   5.136  14.517  0.5418  2.9471 -0.3828
 3348TIP3    H231536   6.015   5.073  14.652  3.4583 -0.5021 -1.2176
 3349TIP3   OH231537   5.399   0.079  12.259 -0.0933 -0.6141  0.3778
 3349TIP3    H131538   5.420   0.017  12.329 -0.0663 -0.7623  0.2385
 3349TIP3    H231539   5.420   0.032  12.178 -0.2669 -0.4976  0.2645
 3350TIP3   OH231540   3.003   0.278  13.501  0.4410  0.4690 -0.2507
 3350TIP3    H131541   3.008   0.371  13.478 -0.4241  0.8453  0.9660
 3350TIP3    H231542   2.936   0.274  13.569  0.8086 -0.9862  0.0588
 3351TIP3   OH231543   5.565   4.489  13.452  0.1523 -0.2040 -0.1215
 3351TIP3    H131544   5.579   4.546  13.376  2.2691  2.9102  2.3293
 3351TIP3    H231545   5.635   4.424  13.446  0.3681  0.0716 -0.7459
 3352TIP3   OH231546   2.318   0.151  16.691  0.3743 -0.0686 -0.6056
 3352TIP3    H131547   2.369   0.210  16.635  0.8215  0.2059  0.0828
 3352TIP3    H231548   2.342   0.063  16.661  2.5612 -0.0168  0.7767
 3353TIP3   OH231549   3.517   0.418   3.951 -0.0171 -0.2744  0.5756
 3353TIP3    H131550   3.460   0.404   4.026 -0.5238 -1.3218  0.0256
 3353TIP3    H231551   3.478   0.491   3.903  0.5365  0.6720  1.5165
 3354TIP3   OH231552   6.407   0.071  12.062  0.4001  0.2373 -0.3458
 3354TIP3    H131553   6.331   0.030  12.104  0.6046  1.0227  0.8580
 3354TIP3    H231554   6.403   0.162  12.090  1.5250  0.3917 -0.6578
 3355TIP3   OH231555   4.271   0.171   1.240  0.0161  0.0779  0.2225
 3355TIP3    H131556   4.288   0.161   1.146 -1.5748  0.4579 -0.1277
 3355TIP3    H231557   4.177   0.158   1.250  0.0827  0.4810  1.7112
 3356TIP3   OH231558   2.911   3.295   0.015 -0.6763  0.1949 -0.7024
 3356TIP3    H131559   2.959   3.212   0.013  1.2194  1.2105  0.1536
 3356TIP3    H231560   2.896   3.312   0.108 -0.3201  1.1927 -0.8144
 3357TIP3   OH231561   5.141   3.633   0.507 -0.2150  0.2862 -0.8048
 3357TIP3    H131562   5.099   3.632   0.592  1.0542 -0.7197 -0.1500
 3357TIP3    H231563   5.091   3.571   0.454 -0.1988 -0.1168 -0.3542
 3358TIP3   OH231564   3.431   0.441  15.198 -0.2981 -0.8948 -0.2650
 3358TIP3    H131565   3.479   0.469  15.121  1.6598 -3.0906  0.0588
 3358TIP3    H231566   3.362   0.384  15.164  0.1289 -1.3039 -0.4564
 3359TIP3   OH231567   3.022   6.400   5.823  0.4112  0.8958  0.3926
 3359TIP3    H131568   2.981   6.332   5.875 -1.1998  2.0244  0.6764
 3359TIP3    H231569   2.984   6.390   5.736  1.1931  0.5984  0.0765
 3360TIP3   OH231570   0.425   1.070   5.147  0.2445  0.4489 -0.1994
 3360TIP3    H131571   0.373   0.990   5.146  0.5262  0.2665 -1.3536
 3360TIP3    H231572   0.361   1.140   5.158  0.1319  0.0214  2.8504
 3361TIP3   OH231573   2.970   0.930  15.211  0.2620  0.3771 -1.2460
 3361TIP3    H131574   3.002   0.981  15.286 -0.5885  2.0789 -1.9841
 3361TIP3    H231575   3.012   0.844  15.220  1.0672  0.9224  0.5333
 3362TIP3   OH231576   5.265   3.022   2.767 -0.0304 -0.6335 -0.3906
 3362TIP3    H131577   5.179   3.064   2.767  0.7381  1.1042  1.0824
 3362TIP3    H231578   5.247   2.929   2.754 -2.2738 -0.5712  1.6366
 3363TIP3   OH231579   5.001   0.076  11.934  0.6057 -0.8532 -0.0785
 3363TIP3    H131580   5.075   0.108  11.882  1.9565 -0.8232  1.7784
 3363TIP3    H231581   5.041   0.023  12.003 -0.8853  0.9875  2.3538
 3364TIP3   OH231582   0.182   2.838  16.888  0.3184 -0.0133  0.1636
 3364TIP3    H131583   0.256   2.816  16.944  0.5839 -2.0671 -0.9146
 3364TIP3    H231584   0.105   2.823  16.944  0.6500  0.5420  0.7809
 3365TIP3   OH231585   2.980   1.383   2.726  0.4323  0.1459  0.1123
 3365TIP3    H131586   3.012   1.327   2.797 -0.2720 -0.2640  0.1144
 3365TIP3    H231587   2.958   1.466   2.769  2.0762  0.6794  0.0116
 3366TIP3   OH231588   4.476   4.390  12.858  0.1818  0.0381 -0.0946
 3366TIP3    H131589   4.492   4.327  12.928  0.6568  0.2351 -0.0224
 3366TIP3    H231590   4.559   4.396  12.811  0.4975  1.4596  0.5883
 3367TIP3   OH231591   3.112   3.144  13.607  0.5030 -0.7859 -0.1743
 3367TIP3    H131592   3.102   3.239  13.602  1.8978 -0.6574 -0.9516
 3367TIP3    H231593   3.100   3.113  13.517  3.2272 -0.9535 -0.5739
 3368TIP3   OH231594   4.713   1.931  12.361 -0.1519 -0.1386  0.1710
 3368TIP3    H131595   4.640   1.993  12.365 -0.6355 -0.5640 -1.4067
 3368TIP3    H231596   4.693   1.867  12.430  0.0326  1.0807  1.3987
 3369TIP3   OH231597   1.632   4.369   5.955 -0.0839  0.2593 -0.0192
 3369TIP3    H131598   1.587   4.396   5.875 -1.1947  1.7793  1.0546
 3369TIP3    H231599   1.573   4.395   6.026  1.5306  0.3266  1.3745
 3370TIP3   OH231600   0.045   6.037   1.120 -0.6570  0.1987  0.2012
 3370TIP3    H131601   0.043   6.118   1.069  1.7677 -1.6664 -3.2821
 3370TIP3    H231602   0.004   5.972   1.063 -2.1389 -1.2027  2.7051
 3371TIP3   OH231603   5.604   1.954  16.130 -0.5331  0.4753  0.6532
 3371TIP3    H131604   5.685   1.905  16.117  0.9912  2.7229  1.0503
 3371TIP3    H231605   5.557   1.906  16.197  1.1226 -0.1649  1.4061
 3372TIP3   OH231606   2.733   4.906  13.958 -0.0714 -0.0680 -0.1492
 3372TIP3    H131607   2.668   4.932  13.892  0.6426 -0.9146 -1.2282
 3372TIP3    H231608   2.694   4.831  14.002 -0.9817  1.1176  1.1104
 3373TIP3   OH231609   6.326   0.438   4.676  0.2630  0.8484  0.0758
 3373TIP3    H131610   6.262   0.455   4.607  0.3053  2.6155  0.4096
 3373TIP3    H231611   6.276   0.400   4.748  0.0455 -0.0717 -0.5535
 3374TIP3   OH231612   1.485   2.654   0.370  0.0081 -0.2796 -0.1808
 3374TIP3    H131613   1.514   2.744   0.386  0.4065 -0.5061  0.3849
 3374TIP3    H231614   1.424   2.636   0.440 -1.0211 -0.0365 -0.9917
 3375TIP3   OH231615   1.675   3.020  16.795  0.3035 -0.5110 -0.4755
 3375TIP3    H131616   1.694   2.977  16.712  1.7442 -0.3459 -0.2647
 3375TIP3    H231617   1.606   2.967  16.834 -2.7349  1.1281 -3.1074
 3376TIP3   OH231618   4.067   4.419   2.975 -0.1537 -0.0610  0.2758
 3376TIP3    H131619   4.141   4.387   3.026  0.8040  1.3315 -0.1902
 3376TIP3    H231620   4.103   4.437   2.888 -0.9086  1.0476  0.1653
 3377TIP3   OH231621   0.495   0.938   4.002  0.3751  0.3765  0.4730
 3377TIP3    H131622   0.450   0.910   3.922  0.0723  0.6651  0.5397
 3377TIP3    H231623   0.559   1.002   3.972 -0.9227  1.8142  0.6401
 3378TIP3   OH231624   3.609   4.661  15.773 -0.2778 -0.1164  0.5926
 3378TIP3    H131625   3.699   4.660  15.806  0.3445 -1.0727 -1.0313
 3378TIP3    H231626   3.611   4.718  15.697 -0.9948 -0.2913  0.4359
 3379TIP3   OH231627   0.229   3.052   3.091  0.7977  0.0191 -0.3262
 3379TIP3    H131628   0.191   2.965   3.079  0.2267  0.4559 -1.9138
 3379TIP3    H231629   0.176   3.093   3.159 -0.7751  0.1277 -1.5649
 3380TIP3   OH231630   4.093   5.336  10.914  0.2924 -0.1401 -0.0813
 3380TIP3    H131631   4.082   5.364  10.823  0.1552 -0.8655 -0.2959
 3380TIP3    H231632   4.180   5.368  10.938  1.7328 -2.5778 -1.5161
 3381TIP3   OH231633   6.075   3.062   0.275 -0.2465  0.3128  0.4437
 3381TIP3    H131634   6.122   3.036   0.355 -1.0392  0.9661  1.1377
 3381TIP3    H231635   6.141   3.058   0.206  1.1233  2.1333  1.5475
 3382TIP3   OH231636   6.072   6.235  10.892 -0.4276 -0.0384 -0.3405
 3382TIP3    H131637   6.122   6.291  10.834 -0.7539 -1.6749 -2.3203
 3382TIP3    H231638   5.980   6.252  10.871 -0.6440  0.6595  1.0291
 3383TIP3   OH231639   4.644   3.390   6.575 -0.3860  0.0903  0.2527
 3383TIP3    H131640   4.702   3.462   6.599 -1.1104  1.0258 -0.6555
 3383TIP3    H231641   4.580   3.430   6.515 -1.9119 -0.9050  1.1423
 3384TIP3   OH231642   2.974   6.531  15.303  0.4804 -0.1600 -0.4402
 3384TIP3    H131643   2.956   6.616  15.263  1.1965  0.5141  0.6342
 3384TIP3    H231644   3.006   6.477  15.230 -0.2249  0.4020 -1.1797
 3385TIP3   OH231645   3.628   3.619   3.522  0.2534 -0.0995  0.1418
 3385TIP3    H131646   3.549   3.606   3.469 -0.0727  1.4548  0.1823
 3385TIP3    H231647   3.656   3.531   3.546 -1.9478 -0.6764  0.8220
 3386TIP3   OH231648   5.143   4.568   4.794 -0.2370  0.0675 -0.2601
 3386TIP3    H131649   5.217   4.513   4.768 -0.4687  0.9409 -3.1034
 3386TIP3    H231650   5.077   4.552   4.727 -1.8603  0.8401  1.0917
 3387TIP3   OH231651   4.079   3.078   6.061 -0.1230 -0.4503  0.1497
 3387TIP3    H131652   4.081   2.985   6.086  0.5217 -0.5481 -0.2378
 3387TIP3    H231653   4.093   3.078   5.966  1.4121  0.1016  0.3469
 3388TIP3   OH231654   0.958   5.666  10.265  0.0368  0.0537 -0.8831
 3388TIP3    H131655   0.943   5.754  10.230 -1.4379  0.1692 -0.0587
 3388TIP3    H231656   0.879   5.617  10.240  0.6324 -0.9041 -0.9252
 3389TIP3   OH231657   3.585   0.265  16.028  0.1343  0.0068  0.1206
 3389TIP3    H131658   3.587   0.322  16.104  0.3350  2.0470 -1.3238
 3389TIP3    H231659   3.499   0.280  15.989  0.3051 -0.4305 -0.4497
 3390TIP3   OH231660   5.422   3.660   4.452 -0.0983 -0.0058  0.5724
 3390TIP3    H131661   5.433   3.706   4.368  0.1917  0.8788  1.0843
 3390TIP3    H231662   5.391   3.573   4.427 -1.4975  0.7211 -0.3856
 3391TIP3   OH231663   0.877   5.596   4.809  0.2829  0.3181  0.0583
 3391TIP3    H131664   0.964   5.565   4.832  0.8837  1.7597 -0.2086
 3391TIP3    H231665   0.864   5.673   4.864 -0.5887  0.4625 -0.3321
 3392TIP3   OH231666   3.704   4.354   2.476 -0.8383 -0.2774  0.0424
 3392TIP3    H131667   3.665   4.399   2.551 -0.7423  0.7164 -0.4817
 3392TIP3    H231668   3.794   4.387   2.473  0.1650 -2.7047  1.3671
 3393TIP3   OH231669   2.581   6.290  12.483 -0.0386  0.0032  0.1027
 3393TIP3    H131670   2.638   6.278  12.407 -0.3238  0.5316 -0.1953
 3393TIP3    H231671   2.495   6.260  12.453 -0.5188  1.6947 -0.3023
 3394TIP3   OH231672   5.128   6.728  10.701 -0.5052 -0.3350 -0.1105
 3394TIP3    H131673   5.095   6.772  10.779 -0.4037 -2.5363  1.2495
 3394TIP3    H231674   5.214   6.694  10.726  0.9174  1.4309 -2.1791
 3395TIP3   OH231675   4.445   5.251  14.276  0.3210  0.1034  0.1276
 3395TIP3    H131676   4.409   5.273  14.189  0.2863  0.8885  0.3305
 3395TIP3    H231677   4.491   5.169  14.263 -0.6295 -0.3664 -0.3903
 3396TIP3   OH231678   6.103   6.240   3.325 -0.0292  0.0257 -0.4393
 3396TIP3    H131679   6.083   6.192   3.245  1.8828  0.4971 -1.2536
 3396TIP3    H231680   6.061   6.325   3.314  1.0522  0.4568 -1.4275
 3397TIP3   OH231681   5.644   3.843   0.968  0.4522  0.1780  0.6009
 3397TIP3    H131682   5.711   3.827   1.035  0.8707  2.3902  0.7655
 3397TIP3    H231683   5.586   3.908   1.007 -0.7043 -0.2928 -0.2840
 3398TIP3   OH231684   6.067   3.331  15.658 -0.4923 -0.0069  0.1730
 3398TIP3    H131685   6.160   3.333  15.680 -0.2088 -1.3362 -0.7146
 3398TIP3    H231686   6.054   3.406  15.600  0.2884 -0.3838 -0.5231
 3399TIP3   OH231687   5.707   3.649   5.444  0.3665 -0.3447 -0.1973
 3399TIP3    H131688   5.692   3.731   5.492  0.0080 -0.5091 -0.0214
 3399TIP3    H231689   5.783   3.666   5.389  1.2885 -0.3972  1.0267
 3400TIP3   OH231690   6.544   5.977   5.363  0.5103 -0.7024 -0.1252
 3400TIP3    H131691   6.466   5.992   5.310 -0.2149 -1.2528  0.7486
 3400TIP3    H231692   6.615   5.969   5.300 -0.4845 -2.4054 -1.1205
 3401TIP3   OH231693   6.473   1.134  14.305  0.3406 -0.1634  0.2233
 3401TIP3    H131694   6.503   1.043  14.308 -0.4392 -0.4069  1.4489
 3401TIP3    H231695   6.518   1.176  14.379 -0.5217  0.0417  0.6427
 3402TIP3   OH231696   6.440   5.963  16.863  0.5866  0.1513  0.2690
 3402TIP3    H131697   6.474   5.878  16.890  1.6431  0.0683 -1.2126
 3402TIP3    H231698   6.351   5.967  16.900  0.3316 -1.8078 -0.0561
 3403TIP3   OH231699   1.688   5.898   4.283  0.5685 -1.0176 -0.2903
 3403TIP3    H131700   1.681   5.811   4.243 -2.0704 -0.9934 -0.0998
 3403TIP3    H231701   1.722   5.880   4.371  0.4033 -1.8399 -0.3769
 3404TIP3   OH231702   5.127   0.737   5.185  0.2610 -0.7986  0.0754
 3404TIP3    H131703   5.111   0.817   5.234 -0.2131 -0.0471 -1.2658
 3404TIP3    H231704   5.137   0.669   5.252  0.0346  0.2584  1.2054
 3405TIP3   OH231705   3.730   4.802  12.791  0.1701  0.2779  0.2952
 3405TIP3    H131706   3.708   4.727  12.736 -0.9018  1.1219 -0.4637
 3405TIP3    H231707   3.711   4.773  12.880  0.0276 -0.4347  0.0391
 3406TIP3   OH231708   3.039   4.729   1.600  0.0939 -0.1667 -0.4910
 3406TIP3    H131709   3.075   4.729   1.689 -1.5272 -2.3890  0.2524
 3406TIP3    H231710   3.103   4.777   1.548  2.0445 -0.4516  1.5049
 3407TIP3   OH231711   3.148   4.580   2.567  0.5188 -0.8128 -0.1900
 3407TIP3    H131712   3.147   4.564   2.662 -1.9819  1.7291  0.3637
 3407TIP3    H231713   3.214   4.649   2.555 -1.0379  0.8578  0.2525
 3408TIP3   OH231714   5.070   0.016  14.406 -0.2137  0.2565  0.0233
 3408TIP3    H131715   4.996   0.006  14.466  0.4243  1.4295  1.0752
 3408TIP3    H231716   5.073  -0.065  14.356 -1.6685 -0.1572  0.5685
 3409TIP3   OH231717   6.369   5.248   0.353  0.5048 -0.1953  0.4769
 3409TIP3    H131718   6.315   5.181   0.312  0.5629  0.0048  0.0617
 3409TIP3    H231719   6.447   5.253   0.297  0.3420  0.4659  0.2999
 3410TIP3   OH231720   1.871   1.820  17.291  0.1809  0.5843 -0.4201
 3410TIP3    H131721   1.778   1.839  17.298  0.1898 -0.0403  2.8694
 3410TIP3    H231722   1.909   1.858  17.370  2.2597 -1.6144 -0.2691
 3411TIP3   OH231723   4.221   6.678  14.977  0.1482  0.1234  0.3852
 3411TIP3    H131724   4.168   6.724  15.042  0.6710 -0.2076  1.0517
 3411TIP3    H231725   4.169   6.684  14.896 -1.6587 -1.4942  1.3289
 3412TIP3   OH231726   6.557   1.539  16.612  0.6490 -0.0411  0.4152
 3412TIP3    H131727   6.559   1.516  16.705 -1.6280 -2.3956  0.0028
 3412TIP3    H231728   6.562   1.455  16.567 -0.2626  0.9010 -1.5315
 3413TIP3   OH231729   3.119   5.026   5.796 -0.3512  1.0255  0.0245
 3413TIP3    H131730   3.053   5.094   5.808 -0.3152  0.9283  0.8312
 3413TIP3    H231731   3.079   4.965   5.734 -0.5563  1.5581 -0.3722
 3414TIP3   OH231732   0.996   4.711  16.227 -0.0340 -0.5716 -0.2606
 3414TIP3    H131733   0.920   4.660  16.255 -0.7606 -0.1154 -1.3236
 3414TIP3    H231734   0.988   4.716  16.132  0.4701  0.8229 -0.2572
 3415TIP3   OH231735   3.931   4.036   6.000 -0.1600  0.5666  0.1704
 3415TIP3    H131736   3.908   4.072   6.086  0.6505 -0.7100  0.9612
 3415TIP3    H231737   3.962   3.948   6.019 -1.7278 -0.4471 -1.6504
 3416TIP3   OH231738   2.924   3.573  16.916 -0.5164  0.0173 -0.9205
 3416TIP3    H131739   2.975   3.532  16.986 -1.0337  0.5780 -0.1996
 3416TIP3    H231740   2.884   3.500  16.869 -2.1543 -0.3124  0.8967
 3417TIP3   OH231741   3.875   5.960   4.224  0.0944  0.6482 -0.5477
 3417TIP3    H131742   3.895   6.053   4.236  0.7202  0.8635 -2.7514
 3417TIP3    H231743   3.960   5.919   4.206 -0.0635 -0.5357  1.2319
 3418TIP3   OH231744   5.685   6.369  17.190  0.5673  0.0430 -0.1708
 3418TIP3    H131745   5.739   6.433  17.236  1.1967  0.0516 -0.8927
 3418TIP3    H231746   5.682   6.293  17.247  0.1695  0.5585  0.5053
 3419TIP3   OH231747   3.679   4.050  15.506  0.7033  0.2892  0.3900
 3419TIP3    H131748   3.624   3.994  15.561  0.1206 -0.8036 -1.2468
 3419TIP3    H231749   3.679   4.135  15.552 -0.6710 -0.2497  1.4824
 3420TIP3   OH231750   5.784   1.088  12.658  0.7496 -0.5621  0.2252
 3420TIP3    H131751   5.697   1.095  12.619  1.0056 -0.4189 -0.3338
 3420TIP3    H231752   5.828   1.020  12.606  0.5800 -1.4960  1.2596
 3421TIP3   OH231753   1.999   0.673  11.562 -0.7261 -0.2069  0.3073
 3421TIP3    H131754   1.931   0.703  11.502 -0.5763 -0.9456 -0.2463
 3421TIP3    H231755   2.023   0.586  11.530  1.1173  0.3921 -0.0477
 3422TIP3   OH231756   0.985   1.298  12.880  0.1612 -0.0356 -0.0019
 3422TIP3    H131757   0.954   1.387  12.892 -0.1360 -0.2456  0.8592
 3422TIP3    H231758   1.058   1.289  12.942 -0.4419 -0.6857  0.6380
 3423TIP3   OH231759   5.182   1.695  12.971  0.5542  0.4180 -0.2938
 3423TIP3    H131760   5.224   1.622  13.016  1.9301  1.3743  0.0290
 3423TIP3    H231761   5.244   1.767  12.978  0.5656  0.8090 -3.1576
 3424TIP3   OH231762   5.924   6.208   0.759 -0.0376  0.4500 -0.0242
 3424TIP3    H131763   5.998   6.221   0.700 -0.0754  1.3174  0.1033
 3424TIP3    H231764   5.956   6.237   0.844 -1.3100  3.5091 -0.4546
 3425TIP3   OH231765   4.389   2.947  15.678  0.0464 -0.3539  0.3528
 3425TIP3    H131766   4.332   2.931  15.603 -0.4463 -1.4290  0.9283
 3425TIP3    H231767   4.477   2.954  15.641 -0.4358  1.3891 -0.5561
 3426TIP3   OH231768   0.296   2.140  12.778 -0.4380  0.0405  0.7207
 3426TIP3    H131769   0.328   2.178  12.697 -0.8005  0.1977  0.6485
 3426TIP3    H231770   0.365   2.157  12.842 -0.7906  1.2335  0.8027
 3427TIP3   OH231771   5.099   2.562  12.813 -0.2509 -0.0322  0.0588
 3427TIP3    H131772   5.138   2.506  12.746  0.0836 -1.6302  1.5195
 3427TIP3    H231773   5.034   2.614  12.765  0.4183 -0.6472 -1.6032
 3428TIP3   OH231774   0.785   5.470  15.250  0.8673  0.2629 -0.4369
 3428TIP3    H131775   0.792   5.566  15.243  2.4675  0.1861 -0.1924
 3428TIP3    H231776   0.697   5.451  15.218  0.4940  1.8242 -0.4380
 3429TIP3   OH231777   0.990   1.670  13.227  0.1210  0.2186  0.0393
 3429TIP3    H131778   0.951   1.674  13.314 -0.1284 -0.1981 -0.0508
 3429TIP3    H231779   1.044   1.750  13.221  1.8124 -0.7507  1.3651
 3430TIP3   OH231780   0.861   3.573  11.153  0.0379  0.1201 -0.0326
 3430TIP3    H131781   0.933   3.510  11.156 -0.5839 -0.7225 -1.7256
 3430TIP3    H231782   0.827   3.566  11.064  0.2379  3.2149 -0.4305
 3431TIP3   OH231783   4.454   5.612  15.466 -0.1607  0.9439 -0.3757
 3431TIP3    H131784   4.461   5.611  15.370 -1.5857  0.6332 -0.5038
 3431TIP3    H231785   4.376   5.666  15.483 -0.1973  0.6007  0.5760
 3432TIP3   OH231786   4.076   5.654   1.774 -0.7526 -0.8909 -0.4360
 3432TIP3    H131787   4.125   5.706   1.838 -1.9609 -0.7334  0.4072
 3432TIP3    H231788   4.006   5.614   1.825 -2.0589 -0.3682 -1.7415
 3433TIP3   OH231789   6.066   0.569  14.164  0.6536 -0.1410  0.2574
 3433TIP3    H131790   6.096   0.511  14.094 -0.2802 -0.4833  0.1327
 3433TIP3    H231791   6.055   0.511  14.240 -2.4777 -0.6416 -0.4435
 3434TIP3   OH231792   2.002   0.837   3.474 -0.4778 -0.1507  0.0823
 3434TIP3    H131793   2.057   0.902   3.516  1.9733 -0.7862 -1.8643
 3434TIP3    H231794   1.942   0.887   3.419 -1.2068  0.5222  1.4456
 3435TIP3   OH231795   1.236   2.534   5.192  0.1765 -0.0079 -0.2426
 3435TIP3    H131796   1.255   2.611   5.245  0.5868  1.2179 -2.0793
 3435TIP3    H231797   1.322   2.506   5.159 -0.1766 -0.0915 -1.1119
 3436TIP3   OH231798   4.059   6.424  11.441  0.1143 -0.6731  0.4258
 3436TIP3    H131799   4.029   6.510  11.410  1.7232  0.1129  0.9700
 3436TIP3    H231800   4.031   6.364  11.372 -1.8317  0.1202  0.4541
 3437TIP3   OH231801   3.287   5.955   1.798 -0.3028  0.1314 -0.1300
 3437TIP3    H131802   3.213   5.995   1.843 -0.1142  1.6922 -1.1461
 3437TIP3    H231803   3.358   6.019   1.804  1.5217 -1.9201  2.0895
 3438TIP3   OH231804   6.305   4.191   6.399 -0.3901 -0.2345 -0.3857
 3438TIP3    H131805   6.267   4.242   6.327 -0.2478  0.2919 -0.0905
 3438TIP3    H231806   6.230   4.156   6.446 -0.4842 -0.6512 -0.8395
 3439TIP3   OH231807   6.163   3.755  13.964 -0.2193  0.3907  0.3116
 3439TIP3    H131808   6.237   3.695  13.970  1.1745  2.0000  0.2589
 3439TIP3    H231809   6.122   3.752  14.051  0.3441  0.0039  0.5712
 3440TIP3   OH231810   1.330   1.288  14.304 -0.4164  0.0664  0.5511
 3440TIP3    H131811   1.382   1.241  14.239  0.7821  1.2036  0.6435
 3440TIP3    H231812   1.388   1.297  14.379 -0.5066  1.8454  0.4590
 3441TIP3   OH231813   2.547   2.598  13.523 -0.6028  0.6686 -0.3222
 3441TIP3    H131814   2.639   2.612  13.501 -0.4760 -0.3339 -0.4815
 3441TIP3    H231815   2.525   2.513  13.484 -1.7503  1.1280 -0.7480
 3442TIP3   OH231816   2.612   6.789  12.454  0.3854 -0.0002  0.1090
 3442TIP3    H131817   2.579   6.791  12.544  0.1179 -0.1064  0.0134
 3442TIP3    H231818   2.640   6.698  12.442 -1.6321 -0.5864 -0.6479
 3443TIP3   OH231819   6.486   0.345   4.268  0.0272 -0.3646 -0.0413
 3443TIP3    H131820   6.489   0.440   4.278 -1.4238 -0.0934 -1.7318
 3443TIP3    H231821   6.501   0.331   4.174 -1.3358 -1.6793 -0.0912
 3444TIP3   OH231822   3.645   6.188  12.108 -0.2508  0.2078 -0.0796
 3444TIP3    H131823   3.646   6.229  12.195  2.2367  0.3818 -0.1056
 3444TIP3    H231824   3.726   6.218  12.067 -0.2689 -1.6576 -1.6235
 3445TIP3   OH231825   1.670   3.010   4.657 -0.4712 -0.1200 -0.2215
 3445TIP3    H131826   1.587   2.974   4.688 -0.6028 -0.5053 -0.9802
 3445TIP3    H231827   1.670   2.991   4.563  0.9419 -1.0618 -0.0643
 3446TIP3   OH231828   5.658   5.077   6.179 -0.0970  0.2332  0.1843
 3446TIP3    H131829   5.731   5.139   6.179 -0.4108  0.6638  1.9313
 3446TIP3    H231830   5.695   4.995   6.211 -0.4105  0.5286  1.3433
 3447TIP3   OH231831   5.156   2.413  11.570 -0.4597 -0.1703  0.1481
 3447TIP3    H131832   5.210   2.451  11.639 -0.7522 -0.8745  0.7798
 3447TIP3    H231833   5.219   2.375  11.509 -0.1863  0.8084 -0.1977
 3448TIP3   OH231834   4.409   0.986   4.559  0.2792 -0.2940  0.2926
 3448TIP3    H131835   4.358   0.973   4.479 -1.3460  1.7886  0.8745
 3448TIP3    H231836   4.343   0.997   4.628  1.5763  0.1382  1.5242
 3449TIP3   OH231837   6.339   0.063   4.266  0.0438  0.0209 -0.3330
 3449TIP3    H131838   6.426   0.040   4.298  0.5239 -2.9390 -3.2567
 3449TIP3    H231839   6.353   0.142   4.214  1.0510 -0.4582 -0.8202
 3450TIP3   OH231840   5.379   2.102   1.114  0.3179 -0.0830 -0.0334
 3450TIP3    H131841   5.391   2.105   1.209 -0.8417 -1.0314  0.1637
 3450TIP3    H231842   5.382   2.009   1.093 -0.2034  0.0718 -0.8150
 3451TIP3   OH231843   3.790   6.081   4.689  0.2443  0.0971  0.2398
 3451TIP3    H131844   3.844   6.160   4.688  0.7897 -0.2722  0.1089
 3451TIP3    H231845   3.827   6.029   4.760 -1.1740  0.6755  1.4533
 3452TIP3   OH231846   1.323   0.871   3.856  0.4038 -0.7079  0.1078
 3452TIP3    H131847   1.367   0.789   3.877  1.8519  0.2288  0.8822
 3452TIP3    H231848   1.390   0.939   3.868 -1.4617  0.8980  2.3500
 3453TIP3   OH231849   3.916   5.778  10.721 -0.3480  0.0893  0.4769
 3453TIP3    H131850   3.827   5.768  10.754 -0.7940 -0.0384 -0.7002
 3453TIP3    H231851   3.913   5.859  10.670 -0.6459 -1.4316 -2.0964
 3454TIP3   OH231852   0.890   6.157  13.097  0.0780  0.0953  0.0462
 3454TIP3    H131853   0.916   6.189  13.184  0.8540  0.7418 -0.4079
 3454TIP3    H231854   0.903   6.063  13.102 -2.8609 -0.3177  1.6174
 3455TIP3   OH231855   4.876   2.760   4.139  0.2863  0.3419  0.2686
 3455TIP3    H131856   4.824   2.826   4.185  1.2058  1.1960  0.1233
 3455TIP3    H231857   4.967   2.783   4.160  0.6382 -0.5349 -0.2653
 3456TIP3   OH231858   0.254   0.935  12.263 -0.2032  0.3123 -0.4360
 3456TIP3    H131859   0.251   0.846  12.228 -0.0363  0.9150 -2.1262
 3456TIP3    H231860   0.271   0.925  12.356  1.9892 -1.3761 -0.9361
 3457TIP3   OH231861   3.602   2.022   0.176  0.1080  0.2564  0.6298
 3457TIP3    H131862   3.652   1.973   0.111  1.2928  1.0650  0.9022
 3457TIP3    H231863   3.625   1.980   0.260  0.1225  0.4574  0.7265
 3458TIP3   OH231864   0.032   6.365  11.580 -0.3618  0.0077 -0.2121
 3458TIP3    H131865  -0.006   6.319  11.505  0.5443  2.1407 -2.1414
 3458TIP3    H231866  -0.015   6.449  11.583 -2.2348 -0.9735  3.4025
 3459TIP3   OH231867   4.322   5.049  16.557 -0.4643  0.2329 -0.1311
 3459TIP3    H131868   4.353   5.103  16.629  0.1582 -1.4731  0.9451
 3459TIP3    H231869   4.228   5.041  16.572 -0.5651  1.0112 -0.3146
 3460TIP3   OH231870   6.273   3.322  12.606 -0.2184  0.0508 -0.1870
 3460TIP3    H131871   6.339   3.337  12.538 -0.8983 -0.3059 -0.9364
 3460TIP3    H231872   6.313   3.357  12.686  1.1783 -0.7841 -0.4829
 3461TIP3   OH231873   5.529   0.674   6.460 -0.4429 -0.5305  0.0564
 3461TIP3    H131874   5.591   0.641   6.394 -0.5245  0.9496 -0.8148
 3461TIP3    H231875   5.568   0.649   6.544 -0.4202 -2.6071 -0.5101
 3462TIP3   OH231876   5.272   4.965   6.050 -0.3593  0.1791  0.0434
 3462TIP3    H131877   5.356   4.951   6.007 -0.7745  0.7036 -0.9865
 3462TIP3    H231878   5.207   4.948   5.982 -1.0156  2.0334  0.1388
 3463TIP3   OH231879   3.198   3.670   5.429  0.2274  0.4711  0.3676
 3463TIP3    H131880   3.110   3.707   5.437  0.4784  1.1820 -0.0081
 3463TIP3    H231881   3.191   3.582   5.464 -0.7222  0.3924 -0.0003
 3464TIP3   OH231882   4.234   0.094  14.623  0.0794 -0.3542 -0.3576
 3464TIP3    H131883   4.193   0.180  14.631 -0.0026 -0.3688 -0.6177
 3464TIP3    H231884   4.288   0.101  14.545  1.3418 -0.0222  0.5021
 3465TIP3   OH231885   4.741   1.506  14.557 -0.7039 -0.4467 -0.2353
 3465TIP3    H131886   4.812   1.446  14.580  0.6809  0.7032 -1.2867
 3465TIP3    H231887   4.686   1.456  14.497 -0.8681 -1.3936  0.6790
 3466TIP3   OH231888   3.416   2.335  14.677  0.3381  0.0787  0.3115
 3466TIP3    H131889   3.446   2.378  14.756 -3.7632 -0.4673  2.4408
 3466TIP3    H231890   3.391   2.247  14.705  1.2179 -1.0807 -2.2295
 3467TIP3   OH231891   5.321   3.352  15.455 -0.6658 -0.0588  0.3991
 3467TIP3    H131892   5.265   3.329  15.529 -0.2089  2.1212  1.5073
 3467TIP3    H231893   5.397   3.394  15.496  0.3226 -0.1721 -1.2485
 3468TIP3   OH231894   6.341   5.032  14.063 -0.2667  0.1094  0.8564
 3468TIP3    H131895   6.280   5.105  14.065  0.5645  0.8765 -0.3488
 3468TIP3    H231896   6.292   4.958  14.097 -1.0687  1.2695  2.3155
 3469TIP3   OH231897   5.198   5.039   0.903 -0.6785 -0.2030  0.4741
 3469TIP3    H131898   5.280   5.054   0.949  0.5442  0.8678 -1.8568
 3469TIP3    H231899   5.144   4.988   0.964  0.9287  0.7848  2.8452
 3470TIP3   OH231900   4.698   4.405  12.703  0.2317 -0.2531  0.1457
 3470TIP3    H131901   4.786   4.438  12.724  0.8652 -1.3339 -0.7217
 3470TIP3    H231902   4.714   4.323  12.657 -1.2448 -0.4062 -0.1197
 3471TIP3   OH231903   4.309   6.580  17.248  0.6442 -0.1077  0.6119
 3471TIP3    H131904   4.332   6.585  17.341  0.9865  1.9771  0.4497
 3471TIP3    H231905   4.391   6.556  17.204  0.4793 -1.1038  0.8182
 3472TIP3   OH231906   1.673   1.668  14.904 -0.5320 -0.3112 -0.7363
 3472TIP3    H131907   1.634   1.710  14.981 -0.9516  0.2343 -1.2357
 3472TIP3    H231908   1.752   1.625  14.937 -1.0586 -0.6436  0.1205
 3473TIP3   OH231909   5.704   1.858   6.349  0.7520  0.4207  0.0414
 3473TIP3    H131910   5.754   1.936   6.326  1.2907 -0.0690 -0.4879
 3473TIP3    H231911   5.748   1.824   6.427  0.6401  0.5314  0.1537
 3474TIP3   OH231912   5.280   1.063  13.051 -0.2272  0.0824  0.1652
 3474TIP3    H131913   5.301   1.140  13.103 -1.6806 -0.0306  0.9502
 3474TIP3    H231914   5.189   1.075  13.025 -0.6096 -1.5510  0.6360
 3475TIP3   OH231915   2.314   2.250   0.080  0.4016 -0.7645  0.0224
 3475TIP3    H131916   2.388   2.305   0.057 -0.4676  0.7090  0.6198
 3475TIP3    H231917   2.273   2.294   0.155 -1.4312 -1.1768 -0.6738
 3476TIP3   OH231918   6.218   6.643  15.005 -0.6136  0.1585 -0.1478
 3476TIP3    H131919   6.277   6.681  15.070 -0.1082 -1.2691  0.2681
 3476TIP3    H231920   6.133   6.640  15.050 -0.4342 -0.1315  0.1772
 3477TIP3   OH231921   4.916   6.539  15.684 -0.2468 -0.2525 -0.2999
 3477TIP3    H131922   4.921   6.537  15.589 -1.1897  1.4181 -0.4378
 3477TIP3    H231923   4.886   6.628  15.704  1.4266 -0.0655  1.6443
 3478TIP3   OH231924   1.181   4.064   0.961 -0.7497 -0.1657  0.2752
 3478TIP3    H131925   1.190   4.066   1.056 -0.7642 -0.0299  0.2727
 3478TIP3    H231926   1.229   4.140   0.930 -1.0658  0.0070  0.1999
 3479TIP3   OH231927   3.142   1.653   1.949 -0.1040 -0.5949 -0.2023
 3479TIP3    H131928   3.232   1.636   1.975 -0.3726  0.9526  1.9598
 3479TIP3    H231929   3.148   1.676   1.856  1.4106 -2.5423 -0.6637
 3480TIP3   OH231930   2.920   6.376   5.561  0.1884  0.2891 -0.1612
 3480TIP3    H131931   2.914   6.388   5.467  0.9763 -0.6663 -0.3527
 3480TIP3    H231932   2.899   6.283   5.575  0.4643  0.3211  0.5557
 3481TIP3   OH231933   3.737   3.208   2.877 -0.6220 -0.0062  0.4887
 3481TIP3    H131934   3.825   3.194   2.913  0.0431  0.6001 -0.8473
 3481TIP3    H231935   3.725   3.138   2.814 -0.5313  0.7019 -0.3316
 3482TIP3   OH231936   3.714   0.297   4.848 -0.4604 -0.8007 -0.2784
 3482TIP3    H131937   3.717   0.201   4.846 -2.8736 -0.9383 -0.2465
 3482TIP3    H231938   3.621   0.318   4.845 -0.0813  1.5200  1.4721
 3483TIP3   OH231939   4.682   5.355  12.160  0.6056  0.4429 -0.5193
 3483TIP3    H131940   4.686   5.287  12.092 -2.2737 -1.1275  0.7248
 3483TIP3    H231941   4.623   5.421  12.125 -1.2671 -0.5954  0.5012
 3484TIP3   OH231942   3.350   4.677  12.423  0.0234 -0.1789  0.9747
 3484TIP3    H131943   3.338   4.668  12.517 -1.0379 -0.2964  0.8404
 3484TIP3    H231944   3.269   4.718  12.392  0.8243  0.9211  0.2651
 3485TIP3   OH231945   0.982   0.895  12.025 -0.3384 -0.2034  0.2395
 3485TIP3    H131946   0.999   0.867  11.935 -0.0717  0.5741  0.0372
 3485TIP3    H231947   1.060   0.870  12.074 -1.0188 -1.8363  0.5675
 3486TIP3   OH231948   5.881   5.567  13.883  0.1660 -0.5076  0.3904
 3486TIP3    H131949   5.928   5.523  13.954 -1.4851  0.4059  2.1340
 3486TIP3    H231950   5.908   5.659  13.889  1.9468 -0.7926 -1.8548
 3487TIP3   OH231951   4.581   2.967   6.253 -0.4062  0.1058  0.3411
 3487TIP3    H131952   4.504   3.003   6.210 -0.7134  1.1171  1.6703
 3487TIP3    H231953   4.653   3.023   6.225  0.1458 -1.6301 -1.9552
 3488TIP3   OH231954   2.775   3.743  16.663  0.2520  0.9206 -0.7337
 3488TIP3    H131955   2.766   3.650  16.642 -1.1997  1.0425 -0.7603
 3488TIP3    H231956   2.862   3.751  16.702  0.8704 -0.2299 -1.8232
 3489TIP3   OH231957   5.504   5.072  11.168  0.0016  0.2593 -0.3836
 3489TIP3    H131958   5.582   5.035  11.126  0.2196  0.1495  0.1007
 3489TIP3    H231959   5.442   5.086  11.097  0.5809  0.6432 -0.8168
 3490TIP3   OH231960   1.289   6.565  13.806 -0.0939  0.8760  0.5856
 3490TIP3    H131961   1.301   6.643  13.752  1.8823  1.5607  1.8877
 3490TIP3    H231962   1.293   6.597  13.896  1.0530 -0.7321  1.1703
 3491TIP3   OH231963   5.181   6.021   4.734  0.1293  0.1216  0.5140
 3491TIP3    H131964   5.174   5.927   4.753 -0.0640  0.0233 -0.0226
 3491TIP3    H231965   5.098   6.043   4.694  0.4588  0.3608 -0.0444
 3492TIP3   OH231966   6.546   6.723   6.029 -0.3939  0.0280 -0.1254
 3492TIP3    H131967   6.526   6.675   6.110  1.3415  1.4843  1.2466
 3492TIP3    H231968   6.641   6.731   6.029 -0.2921 -0.3941 -2.6544
 3493TIP3   OH231969   1.535   5.745  13.243  0.7158  0.1865  0.2178
 3493TIP3    H131970   1.562   5.654  13.256  3.0342  1.0157  2.0374
 3493TIP3    H231971   1.538   5.757  13.148  0.6796 -1.5385 -0.0374
 3494TIP3   OH231972   3.957   2.186  12.369 -0.0304  0.1242 -0.2603
 3494TIP3    H131973   3.901   2.236  12.429 -1.3562  0.8646 -2.0112
 3494TIP3    H231974   4.011   2.252  12.326  1.0547 -0.4192  0.2295
 3495TIP3   OH231975   0.468   0.501   2.078  0.3095 -0.0888 -0.0343
 3495TIP3    H131976   0.469   0.411   2.046  0.4453 -0.2438  0.3886
 3495TIP3    H231977   0.385   0.536   2.047  0.4569 -0.2159 -0.5822
 3496TIP3   OH231978   1.626   6.559   0.406  0.1212 -0.1548  0.6965
 3496TIP3    H131979   1.597   6.468   0.395 -0.6506  0.1945 -0.3077
 3496TIP3    H231980   1.561   6.597   0.465 -0.5493  0.1836 -0.2352
 3497TIP3   OH231981   1.172   0.336  12.713 -0.0552  0.3834  0.4837
 3497TIP3    H131982   1.103   0.323  12.779  0.5772 -1.8021  0.7881
 3497TIP3    H231983   1.234   0.266  12.730  0.8119  0.5901 -1.6157
 3498TIP3   OH231984   4.791   3.671  13.262  0.0782  0.3929  0.0372
 3498TIP3    H131985   4.758   3.664  13.352  1.1620 -2.0385  0.3163
 3498TIP3    H231986   4.865   3.732  13.269 -0.3451  0.8465  0.6395
 3499TIP3   OH231987   3.565   6.757  14.279  0.1209 -0.1304  0.3373
 3499TIP3    H131988   3.563   6.719  14.367 -0.3300 -0.7361  0.0749
 3499TIP3    H231989   3.636   6.821  14.282  1.0345 -1.1295  0.7467
 3500TIP3   OH231990   3.993   6.350  14.128  0.0439  0.3260 -0.1918
 3500TIP3    H131991   4.013   6.275  14.072  1.2259  0.3697  0.1455
 3500TIP3    H231992   3.983   6.423  14.067 -1.3963 -0.1340 -0.5469
 3501TIP3   OH231993   0.283   2.563  15.808 -0.1028 -0.0293 -0.0852
 3501TIP3    H131994   0.281   2.497  15.877  0.5501 -0.2583 -0.2818
 3501TIP3    H231995   0.367   2.608  15.819 -0.3188  0.4256 -0.2724
 3502TIP3   OH231996   1.910   2.505  14.042 -0.1603  0.4523 -0.3855
 3502TIP3    H131997   1.841   2.453  14.000 -0.6313  1.2475 -0.6242
 3502TIP3    H231998   1.895   2.493  14.136  0.6137 -0.9657 -0.4069
 3503TIP3   OH231999   3.651   3.965  13.125 -0.3220  0.0834  0.1244
 3503TIP3    H132000   3.598   3.979  13.046 -0.4098 -0.1041  0.1496
 3503TIP3    H232001   3.587   3.964  13.196 -0.6757 -2.9866 -0.0945
 3504TIP3   OH232002   2.696   2.644  11.693  0.4280 -0.2516 -0.4793
 3504TIP3    H132003   2.735   2.731  11.703  0.3296  0.3064 -3.7146
 3504TIP3    H232004   2.762   2.585  11.729  1.7089  1.0242 -0.5993
 3505TIP3   OH232005   0.485   2.125   1.328 -0.0783 -0.0599  0.2179
 3505TIP3    H132006   0.500   2.219   1.321 -1.3959  0.1360 -0.3032
 3505TIP3    H232007   0.530   2.088   1.252 -2.1988  0.5291 -1.4371
 3506TIP3   OH232008   2.262   0.825  15.048 -0.5144  0.0925  0.3268
 3506TIP3    H132009   2.170   0.804  15.033 -1.0204  0.9296  2.0198
 3506TIP3    H232010   2.310   0.754  15.004 -1.9569 -0.6123 -0.1844
 3507TIP3   OH232011   4.639   5.258   4.472  0.0118  0.2332  0.3049
 3507TIP3    H132012   4.695   5.335   4.469  0.4501 -0.1185 -0.5978
 3507TIP3    H232013   4.677   5.197   4.409 -0.8466 -0.3717  0.3536
 3508TIP3   OH232014   3.495   2.269   2.680  0.2775 -0.3293  0.0551
 3508TIP3    H132015   3.561   2.326   2.719  0.9115 -0.5545 -0.6766
 3508TIP3    H232016   3.446   2.234   2.755 -1.5894  2.8295  0.5004
 3509TIP3   OH232017   0.850   1.580  12.039  0.0559 -0.0385  0.0369
 3509TIP3    H132018   0.767   1.618  12.012 -0.4874 -1.3812 -0.2536
 3509TIP3    H232019   0.840   1.563  12.132  0.1575  0.1505  0.0843
 3510TIP3   OH232020   3.087   1.520   4.635 -0.3140  0.3018 -0.9156
 3510TIP3    H132021   3.006   1.563   4.607  0.2432  1.7363 -0.3690
 3510TIP3    H232022   3.127   1.492   4.553 -0.5083  1.1600 -1.3163
 3511TIP3   OH232023   4.284   3.797   3.086  0.5147  0.1236  0.2374
 3511TIP3    H132024   4.284   3.881   3.040  0.1083 -0.4234 -0.8008
 3511TIP3    H232025   4.366   3.756   3.060  0.8164  0.2788  0.9193
 3512TIP3   OH232026   0.018   3.759  16.359  0.2721  0.0554  0.3072
 3512TIP3    H132027   0.076   3.745  16.435 -1.6995 -0.6557  1.7528
 3512TIP3    H232028   0.006   3.854  16.356  2.3917  0.3591 -0.7717
 3513TIP3   OH232029   5.684   5.610   4.056 -0.4578  0.4293 -0.5087
 3513TIP3    H132030   5.661   5.613   3.964 -1.0768  1.2746 -0.3367
 3513TIP3    H232031   5.761   5.666   4.064  0.3702 -0.6410 -0.7073
 3514TIP3   OH232032   3.047   1.957   2.679  0.7794  0.3027  0.4106
 3514TIP3    H132033   2.973   2.016   2.691  0.4096 -0.1484  0.3761
 3514TIP3    H232034   3.052   1.943   2.585 -0.6916 -1.6528  0.5583
 3515TIP3   OH232035   0.261   6.274  12.537  0.4664  0.2903 -0.0433
 3515TIP3    H132036   0.213   6.268  12.454 -1.4901 -0.3786  1.0514
 3515TIP3    H232037   0.353   6.266  12.513 -0.1177 -1.2894 -2.0136
 3516TIP3   OH232038   3.176   6.067  17.278  0.4275  0.0854  0.1558
 3516TIP3    H132039   3.108   6.068  17.346  0.6535 -1.0773  0.4203
 3516TIP3    H232040   3.221   5.983  17.290  1.1035  0.2912 -0.8155
 3517TIP3   OH232041   5.442   3.045  12.594  0.2122 -0.0066 -0.4394
 3517TIP3    H132042   5.510   2.981  12.571 -0.7716 -1.4335  0.4378
 3517TIP3    H232043   5.381   3.043  12.521  0.8319  0.9136 -1.0024
 3518TIP3   OH232044   4.633   3.916  13.098  0.0912  0.0914  0.1728
 3518TIP3    H132045   4.560   3.863  13.064  1.4999 -0.6295 -1.8877
 3518TIP3    H232046   4.647   3.881  13.186 -0.4258 -1.5118 -0.3329
 3519TIP3   OH232047   2.833   0.846  15.717  0.4515 -0.5129  0.2985
 3519TIP3    H132048   2.917   0.844  15.763  0.7258 -1.5634 -0.2229
 3519TIP3    H232049   2.834   0.768  15.661 -0.5772 -0.1615 -0.2383
 3520TIP3   OH232050   4.348   2.684  14.122 -0.1117  0.4920  0.5571
 3520TIP3    H132051   4.392   2.664  14.039  1.4853  1.0141  1.2254
 3520TIP3    H232052   4.288   2.755  14.101 -0.9110 -0.4488 -0.4592
 3521TIP3   OH232053   6.049   0.655   1.920  0.1825 -1.4736 -0.5189
 3521TIP3    H132054   6.078   0.660   2.011 -2.5546 -0.7169  0.4000
 3521TIP3    H232055   6.130   0.651   1.869  1.8365 -0.0682  1.8379
 3522TIP3   OH232056   1.353   1.588  17.124 -0.8422 -0.5051 -0.0704
 3522TIP3    H132057   1.351   1.505  17.077 -0.6196 -0.1398 -0.7293
 3522TIP3    H232058   1.327   1.565  17.214  0.8417 -1.5857  0.1985
 3523TIP3   OH232059   0.529   5.342  13.127 -0.4053  0.4934  0.0396
 3523TIP3    H132060   0.470   5.269  13.109 -1.6858  2.1503 -3.5638
 3523TIP3    H232061   0.471   5.417  13.140  0.8964  1.3840  0.9317
 3524TIP3   OH232062   2.427   1.000  12.312  0.1457  0.4651  0.4160
 3524TIP3    H132063   2.444   1.045  12.229 -1.5415  0.6579  0.1465
 3524TIP3    H232064   2.472   1.053  12.378 -0.0324  1.3558 -0.1667
 3525TIP3   OH232065   2.764   3.294  16.907  0.6491  0.3817  0.0860
 3525TIP3    H132066   2.759   3.333  16.994 -0.8602  1.2881 -0.3688
 3525TIP3    H232067   2.675   3.264  16.889  0.9908 -0.0053 -1.0658
 3526TIP3   OH232068   5.701   5.699  12.605 -0.1555  0.3860 -0.4775
 3526TIP3    H132069   5.666   5.761  12.540  1.6760  2.2845  0.2327
 3526TIP3    H232070   5.770   5.652  12.559 -0.8540 -0.4419 -0.7140
 3527TIP3   OH232071   6.625   6.568  11.857 -0.0942 -0.0641 -0.0149
 3527TIP3    H132072   6.589   6.505  11.795 -1.3950 -0.0440  0.6825
 3527TIP3    H232073   6.598   6.653  11.822  2.2260  0.2256 -1.3212
 3528TIP3   OH232074   5.513   4.575  11.043 -0.4195 -0.4158  0.1400
 3528TIP3    H132075   5.419   4.558  11.039 -0.6776  1.0805 -1.8376
 3528TIP3    H232076   5.539   4.589  10.951  1.8147 -1.1562  0.5828
 3529TIP3   OH232077   5.579   3.882   5.528  0.2523 -0.5896  0.2208
 3529TIP3    H132078   5.594   3.870   5.621 -0.4048 -1.6443  0.2014
 3529TIP3    H232079   5.499   3.833   5.509 -0.6550  1.0916 -0.5647
 3530TIP3   OH232080   3.487   4.978   1.097 -0.7629  0.3655 -0.3785
 3530TIP3    H132081   3.551   4.927   1.047  1.4257  1.3405  1.2692
 3530TIP3    H232082   3.478   5.059   1.047  0.5521  0.8769  0.1746
 3531TIP3   OH232083   4.147   6.766  10.841  0.6120  0.1835 -0.1578
 3531TIP3    H132084   4.179   6.678  10.864 -1.5826 -0.2321  1.7528
 3531TIP3    H232085   4.132   6.762  10.746  0.9662 -1.3727 -0.1751
 3532TIP3   OH232086   6.653   1.715   6.309  0.2355  0.1464 -0.3140
 3532TIP3    H132087   6.660   1.679   6.398 -0.9288 -2.1087 -1.0463
 3532TIP3    H232088   6.572   1.678   6.275  0.8608  0.6285 -2.4685
 3533TIP3   OH232089   6.370   4.109  13.009  0.4336  0.3395 -0.1096
 3533TIP3    H132090   6.451   4.070  13.043  0.0405 -0.9252 -0.5747
 3533TIP3    H232091   6.307   4.037  13.008  0.3198  0.3368 -3.1799
 3534TIP3   OH232092   3.010   3.037   5.270 -0.8871 -0.0592 -0.0238
 3534TIP3    H132093   3.005   3.069   5.180 -0.1784  0.0002 -0.0484
 3534TIP3    H232094   3.019   2.942   5.262  0.9947  0.1013 -0.0871
 3535TIP3   OH232095   5.898   5.715  17.129  0.1261 -0.0088  0.9689
 3535TIP3    H132096   5.887   5.634  17.179  1.6495 -1.1937 -0.5098
 3535TIP3    H232097   5.989   5.741  17.146  0.8993 -0.7660 -1.5137
 3536TIP3   OH232098   5.685   1.903  15.444  0.5415  0.1380 -0.1568
 3536TIP3    H132099   5.780   1.891  15.448  0.3634 -1.3413  0.0026
 3536TIP3    H232100   5.660   1.869  15.359 -0.2226 -2.6171  1.0670
 3537TIP3   OH232101   2.591   6.801   3.131 -0.0181 -0.0255  0.2133
 3537TIP3    H132102   2.589   6.896   3.122  0.1484 -0.0529 -0.1474
 3537TIP3    H232103   2.670   6.784   3.183  0.2244  0.0055 -0.1395
 3538TIP3   OH232104   2.804   0.631  15.573 -0.5917  0.3682 -0.0959
 3538TIP3    H132105   2.779   0.668  15.488 -1.0822  0.1454 -0.0552
 3538TIP3    H232106   2.876   0.572  15.553  0.2666  1.4102 -0.1444
 3539TIP3   OH232107   5.404   6.484   4.304  0.1467  0.2708 -0.0151
 3539TIP3    H132108   5.341   6.528   4.247 -0.2294  1.2327  1.1168
 3539TIP3    H232109   5.404   6.393   4.273  0.6702  0.9314 -2.1591
 3540TIP3   OH232110   2.947   0.429   0.731  0.2564 -0.1727  1.0548
 3540TIP3    H132111   2.981   0.414   0.643  0.2494 -0.3625  1.0822
 3540TIP3    H232112   3.004   0.496   0.768  1.4102 -1.3624  1.5386
 3541TIP3   OH232113   4.759   4.322  15.103 -0.7608 -0.4139  0.2042
 3541TIP3    H132114   4.795   4.264  15.171 -1.7990 -0.9537  0.3266
 3541TIP3    H232115   4.737   4.402  15.150  0.4336 -0.0152  0.0901
 3542TIP3   OH232116   5.527   0.254  13.975  0.0900  0.2261 -0.4937
 3542TIP3    H132117   5.547   0.318  14.043 -0.2553 -1.9307  1.7800
 3542TIP3    H232118   5.612   0.222  13.947  0.5110  3.6030 -3.8713
 3543TIP3   OH232119   4.727   6.490  16.850  0.0738 -0.0327  0.2590
 3543TIP3    H132120   4.785   6.460  16.920  0.2666  0.3982  0.2878
 3543TIP3    H232121   4.786   6.527  16.785 -0.1124 -0.3539 -0.0941
 3544TIP3   OH232122   0.351   3.037   5.028  0.0163  0.1333  0.1747
 3544TIP3    H132123   0.376   2.983   5.103  1.9936  0.4907 -0.1888
 3544TIP3    H232124   0.272   2.994   4.994 -0.9669  0.0042  2.4603
 3545TIP3   OH232125   4.065   2.579   2.105  0.2165 -0.3611 -0.2965
 3545TIP3    H132126   4.045   2.664   2.066  0.9019 -0.4083 -0.7660
 3545TIP3    H232127   4.037   2.587   2.196  1.6941  0.9099  0.0776
 3546TIP3   OH232128   1.035   6.763  17.281  0.3402 -0.3102 -0.1873
 3546TIP3    H132129   1.112   6.709  17.266  0.2899 -0.4933  0.1913
 3546TIP3    H232130   1.053   6.808  17.364  0.6425  0.7249 -0.8002
 3547TIP3   OH232131   0.530   1.913   3.910  0.0146  0.0750 -0.0338
 3547TIP3    H132132   0.592   1.841   3.921 -0.3591 -0.2918 -0.3059
 3547TIP3    H232133   0.456   1.889   3.966  0.8384  1.3688  1.6981
 3548TIP3   OH232134   1.495   0.120   0.245 -0.3397 -0.1525 -0.4923
 3548TIP3    H132135   1.556   0.157   0.310 -1.1222  1.0501 -0.4191
 3548TIP3    H232136   1.408   0.134   0.283 -0.6699 -2.2567 -0.3874
 3549TIP3   OH232137   3.340   1.327   0.431 -0.4965 -0.3806  0.3276
 3549TIP3    H132138   3.431   1.299   0.419 -0.4572  0.3184 -1.4168
 3549TIP3    H232139   3.288   1.256   0.393 -0.4821  0.7333 -1.9810
 3550TIP3   OH232140   5.635   3.135   3.590  0.7580 -0.7662 -0.0888
 3550TIP3    H132141   5.641   3.099   3.502  0.8729 -0.3311 -0.2615
 3550TIP3    H232142   5.723   3.127   3.626  0.9247 -0.1288 -0.3411
 3551TIP3   OH232143   2.891   6.105  13.730 -0.3950  0.0805 -0.2809
 3551TIP3    H132144   2.814   6.146  13.690 -0.4804  0.7645  0.5416
 3551TIP3    H232145   2.936   6.178  13.774  1.4360 -0.0588 -1.8211
 3552TIP3   OH232146   4.283   4.219   4.654  0.2444 -0.1037  0.2677
 3552TIP3    H132147   4.299   4.181   4.567  0.4658  1.1021 -0.2318
 3552TIP3    H232148   4.194   4.254   4.648 -0.0654 -0.7665  0.8236
 3553TIP3   OH232149   6.018   4.927   2.900  0.0178  0.1701  0.3341
 3553TIP3    H132150   6.105   4.936   2.863 -0.7757 -0.1566 -1.7254
 3553TIP3    H232151   6.031   4.879   2.982  1.7586  0.2624  0.1410
 3554TIP3   OH232152   0.443   3.380  15.967  0.4278 -0.0214 -0.2658
 3554TIP3    H132153   0.444   3.382  15.871  0.4135  1.8549 -0.2618
 3554TIP3    H232154   0.533   3.361  15.992 -0.0236 -3.1385 -0.6046
 3555TIP3   OH232155   6.217   4.821  14.194  0.6188  0.0767 -0.2302
 3555TIP3    H132156   6.143   4.808  14.253 -0.5371 -0.3195 -1.6859
 3555TIP3    H232157   6.203   4.756  14.124  1.5445  0.9544 -1.2699
 3556TIP3   OH232158   1.939   0.866   0.675 -0.1184  0.2180 -0.9652
 3556TIP3    H132159   1.891   0.943   0.704  1.7190  0.7998  0.7140
 3556TIP3    H232160   1.967   0.888   0.586  0.5253  1.5874 -0.4543
 3557TIP3   OH232161   0.672   6.181  15.462 -0.2281 -0.2897 -0.2999
 3557TIP3    H132162   0.589   6.133  15.462 -0.6958  0.5049 -0.7488
 3557TIP3    H232163   0.682   6.213  15.373  0.5295 -0.3172 -0.2320
 3558TIP3   OH232164   4.435   1.360   2.638  0.1762 -0.1678 -0.5705
 3558TIP3    H132165   4.433   1.293   2.706 -0.4326 -0.5517 -0.9621
 3558TIP3    H232166   4.420   1.442   2.686 -4.2034 -0.7298 -0.5548
 3559TIP3   OH232167   2.795   4.296   0.174  0.2267  0.0281 -0.5757
 3559TIP3    H132168   2.865   4.275   0.112  1.7722  0.4132  0.9853
 3559TIP3    H232169   2.822   4.254   0.256  0.4847  3.0748  1.0466
 3560TIP3   OH232170   6.065   6.814   4.214 -0.3562  0.3355  0.1513
 3560TIP3    H132171   6.156   6.812   4.243  0.0091 -0.9940 -0.9519
 3560TIP3    H232172   6.070   6.796   4.120 -1.6771  1.5538 -0.1890
 3561TIP3   OH232173   1.359   0.031  17.294  0.0309 -0.4819  0.1612
 3561TIP3    H132174   1.287   0.092  17.275 -0.3397 -1.3518 -1.4417
 3561TIP3    H232175   1.384   0.051  17.384 -1.5778  0.5076  0.4374
 3562TIP3   OH232176   3.478   4.270  11.638  0.2220 -0.7222 -0.4911
 3562TIP3    H132177   3.539   4.198  11.624  0.6302 -0.4537 -0.1167
 3562TIP3    H232178   3.528   4.348  11.614  0.0462 -0.4946 -0.1170
 3563TIP3   OH232179   2.160   6.349  15.869 -0.0866 -0.4956 -0.0203
 3563TIP3    H132180   2.165   6.269  15.817 -1.1727  0.5585 -1.9041
 3563TIP3    H232181   2.220   6.409  15.825 -0.5306  0.2261  0.3418
 3564TIP3   OH232182   3.010   6.420   0.159 -0.3351 -0.0758 -1.0040
 3564TIP3    H132183   3.064   6.463   0.226 -2.2619  0.9572 -0.0495
 3564TIP3    H232184   2.939   6.380   0.208 -0.1480 -1.9626 -2.1837
 3565TIP3   OH232185   1.148   0.072   4.528 -0.2683 -0.4227 -0.4799
 3565TIP3    H132186   1.229   0.050   4.483 -0.0738  0.4300 -0.5543
 3565TIP3    H232187   1.174   0.136   4.595 -0.4772 -1.9262  1.1300
 3566TIP3   OH232188   5.084   1.769   0.627  0.7893  0.1840 -0.1112
 3566TIP3    H132189   5.069   1.862   0.611  0.3588 -0.0724 -1.2588
 3566TIP3    H232190   5.086   1.729   0.540 -1.4799 -1.2485  0.4061
 3567TIP3   OH232191   0.884   5.741  11.585 -0.2819  0.7648  0.4360
 3567TIP3    H132192   0.845   5.824  11.612  0.2338  1.5234 -1.0675
 3567TIP3    H232193   0.900   5.751  11.491  0.3855 -0.8026  0.3528
 3568TIP3   OH232194   0.418   5.228  14.914  0.5367  0.5956  0.1970
 3568TIP3    H132195   0.461   5.266  14.837 -1.0529  2.3675  0.1037
 3568TIP3    H232196   0.485   5.173  14.954  1.4315 -0.3632 -2.4092
 3569TIP3   OH232197   2.114   4.541   0.282  0.4540 -0.1618  0.2138
 3569TIP3    H132198   2.061   4.554   0.204  0.4167 -0.5543  0.1746
 3569TIP3    H232199   2.073   4.599   0.348 -0.1686 -0.6323  0.2521
 3570TIP3   OH232200   2.673   5.927   0.819 -0.3885  0.0499 -0.0766
 3570TIP3    H132201   2.754   5.925   0.870 -0.9925  0.4272  0.9188
 3570TIP3    H232202   2.644   5.836   0.817  0.7540 -0.3359 -1.6302
 3571TIP3   OH232203   5.381   3.977   2.621  0.3138 -0.1467  0.0398
 3571TIP3    H132204   5.307   4.027   2.656  1.0891  1.2673 -0.2779
 3571TIP3    H232205   5.342   3.895   2.592 -1.1342  0.5320 -0.0528
 3572TIP3   OH232206   2.506   6.325   4.221  0.0942  0.3847 -0.2735
 3572TIP3    H132207   2.555   6.371   4.289  1.5758 -0.8404 -0.4544
 3572TIP3    H232208   2.472   6.394   4.164  0.2296  1.3425  0.7833
 3573TIP3   OH232209   5.034   1.486   1.985 -0.3390  0.6137  0.0168
 3573TIP3    H132210   5.034   1.559   1.923 -1.2089 -0.6339 -1.5008
 3573TIP3    H232211   4.959   1.504   2.042 -1.7821 -0.0485 -1.5856
 3574TIP3   OH232212   4.537   2.290   3.808  0.2286  0.4853 -0.3333
 3574TIP3    H132213   4.547   2.294   3.903 -1.2477 -4.1928  0.2892
 3574TIP3    H232214   4.625   2.266   3.776  0.4531  0.9102 -0.0462
 3575TIP3   OH232215   5.672   4.706  14.365  0.1715 -0.6376 -0.7801
 3575TIP3    H132216   5.600   4.648  14.343 -1.0162  0.6609 -0.4393
 3575TIP3    H232217   5.657   4.785  14.312  0.7402  0.0678  0.0678
 3576TIP3   OH232218   5.357   3.804   6.674  0.3686 -0.3377  0.2469
 3576TIP3    H132219   5.395   3.867   6.735  1.4688 -0.5233 -0.2235
 3576TIP3    H232220   5.295   3.754   6.727 -0.0084  0.6822  0.7810
 3577TIP3   OH232221   4.024   5.519   5.965 -0.3365 -0.8780  0.0765
 3577TIP3    H132222   3.945   5.487   5.922  0.1984 -2.4680  0.2457
 3577TIP3    H232223   4.003   5.610   5.987 -2.3678 -1.4471  0.6951
 3578TIP3   OH232224   0.958   2.442  15.667  0.2263 -0.5426  0.2160
 3578TIP3    H132225   1.043   2.460  15.707  0.3972  0.2031 -0.4614
 3578TIP3    H232226   0.913   2.526  15.665 -0.2920 -0.8157  0.0244
 3579TIP3   OH232227   4.770   6.274  16.527  0.1238 -0.4092  0.6709
 3579TIP3    H132228   4.814   6.349  16.569  1.0007 -0.7937  0.4605
 3579TIP3    H232229   4.722   6.313  16.454  0.5185 -0.0385  0.6012
 3580TIP3   OH232230   0.785   3.752  11.778 -0.8871  0.2421 -0.1400
 3580TIP3    H132231   0.699   3.731  11.742 -0.3582  0.3542 -1.5027
 3580TIP3    H232232   0.823   3.814  11.716  1.2062 -1.7061 -0.9608
 3581TIP3   OH232233   2.084   2.758  11.310  0.4712 -0.0403  0.1506
 3581TIP3    H132234   2.131   2.842  11.307 -0.2211  0.3376 -1.4791
 3581TIP3    H232235   2.021   2.768  11.381 -0.0732  1.1121 -0.4691
 3582TIP3   OH232236   4.882   3.651   3.596 -0.5165  0.3174  0.4198
 3582TIP3    H132237   4.802   3.600   3.605  0.2452 -1.0769 -0.4463
 3582TIP3    H232238   4.927   3.613   3.521  0.8584  1.2261  0.7468
 3583TIP3   OH232239   4.540   1.472   3.182 -0.4322 -0.1774  0.3597
 3583TIP3    H132240   4.571   1.563   3.184  1.2364 -0.7225  1.8381
 3583TIP3    H232241   4.518   1.457   3.091  2.3907  0.7531 -0.6007
 3584TIP3   OH232242   2.861   0.159   4.202 -0.7354  0.4927  0.3607
 3584TIP3    H132243   2.810   0.080   4.218 -1.4342  0.3761 -2.0436
 3584TIP3    H232244   2.948   0.127   4.178 -1.3605  0.2759 -1.9069
 3585TIP3   OH232245   4.207   6.139  16.299  0.0633 -0.0132  0.1334
 3585TIP3    H132246   4.195   6.217  16.244  1.3025  0.7990  0.9598
 3585TIP3    H232247   4.231   6.174  16.385  1.9421 -1.3097  0.1882
 3586TIP3   OH232248   5.983   5.164  12.146  0.2144 -0.4289  0.3776
 3586TIP3    H132249   6.073   5.196  12.139 -0.3096  0.8044 -1.5380
 3586TIP3    H232250   5.951   5.202  12.227  1.0395  0.1751  0.4414
 3587TIP3   OH232251   1.786   0.460   3.092 -0.5354 -0.6467  0.3789
 3587TIP3    H132252   1.694   0.439   3.073 -0.4698 -0.9468  0.3865
 3587TIP3    H232253   1.788   0.555   3.096 -0.8662 -0.6410  0.4691
 3588TIP3   OH232254   6.621   1.728  13.369  0.7415 -0.5847 -0.3781
 3588TIP3    H132255   6.660   1.713  13.455 -0.7232 -2.8569 -0.0249
 3588TIP3    H232256   6.611   1.641  13.331 -3.1577 -0.1675 -0.7467
 3589TIP3   OH232257   0.522   6.197   4.613 -0.0223 -0.9022 -0.3481
 3589TIP3    H132258   0.491   6.128   4.671 -0.8394 -0.1200  0.1636
 3589TIP3    H232259   0.614   6.210   4.638 -0.5449 -0.0895  1.2838
 3590TIP3   OH232260   1.672   1.063  14.204 -0.7358  0.3762 -0.4379
 3590TIP3    H132261   1.729   1.140  14.205 -1.2757  0.8986  3.2985
 3590TIP3    H232262   1.709   1.004  14.269 -2.3689 -0.9497 -0.6211
 3591TIP3   OH232263   5.430   0.705   4.415  0.7365 -0.1103 -0.0539
 3591TIP3    H132264   5.428   0.651   4.336  0.0789 -0.0755 -0.0686
 3591TIP3    H232265   5.457   0.645   4.485  4.8473  0.5597 -0.8048
 3592TIP3   OH232266   0.371   0.104  11.735  0.4246 -0.4858 -0.7139
 3592TIP3    H132267   0.447   0.148  11.774 -0.6489  1.4288 -0.6334
 3592TIP3    H232268   0.306   0.101  11.805 -1.0905  1.9110 -1.8775
 3593TIP3   OH232269   6.427   3.104   0.558 -0.0455 -0.0192 -0.4549
 3593TIP3    H132270   6.441   3.196   0.538 -0.2730  0.0080 -0.4965
 3593TIP3    H232271   6.494   3.058   0.507 -1.5051 -0.0552 -2.4943
 3594TIP3   OH232272   5.697   5.708  13.071 -0.0488  0.2062 -0.6674
 3594TIP3    H132273   5.700   5.699  13.166  1.3470  1.5498 -0.5421
 3594TIP3    H232274   5.619   5.659  13.045 -0.3002 -0.4365  1.1249
 3595TIP3   OH232275   5.071   2.141   2.246 -0.1422 -0.1107  0.1494
 3595TIP3    H132276   5.076   2.216   2.305 -1.8679  0.7023 -0.6692
 3595TIP3    H232277   5.007   2.083   2.287 -0.9660  0.2208 -0.6352
 3596TIP3   OH232278   5.679   0.752   1.876 -0.7660 -0.2390  0.2948
 3596TIP3    H132279   5.728   0.687   1.825 -0.6649 -0.6156  0.8632
 3596TIP3    H232280   5.617   0.790   1.813  0.3359  0.3524 -0.4769
 3597TIP3   OH232281   1.581   4.676   0.988  0.5583 -0.0258 -0.0050
 3597TIP3    H132282   1.535   4.654   1.069 -0.3127  2.4404  0.2373
 3597TIP3    H232283   1.661   4.720   1.017  2.1831 -2.4355 -0.4849
 3598TIP3   OH232284   5.555   3.465  10.862  0.8100 -0.7032  0.6602
 3598TIP3    H132285   5.483   3.506  10.814  0.4226 -1.0486  0.9460
 3598TIP3    H232286   5.519   3.382  10.894  1.1657 -0.6234  1.2782
 3599TIP3   OH232287   4.364   4.724   5.618  0.5083  0.2597 -0.6942
 3599TIP3    H132288   4.414   4.771   5.685 -0.2350  1.3613 -0.8900
 3599TIP3    H232289   4.426   4.660   5.583  1.2335  0.3921  0.2922
 3600TIP3   OH232290   3.834   5.489   3.286 -0.8080  0.9268 -0.2100
 3600TIP3    H132291   3.928   5.488   3.306 -1.0572  1.3106  1.1178
 3600TIP3    H232292   3.818   5.576   3.249 -0.8381  1.3222  0.7061
 3601TIP3   OH232293   1.731   3.094   2.251 -0.3047  0.1471 -0.1304
 3601TIP3    H132294   1.664   3.050   2.302 -0.4653  0.3038 -0.2024
 3601TIP3    H232295   1.710   3.187   2.259  0.1692  0.2307  0.2148
 3602TIP3   OH232296   4.424   4.385  16.943 -0.8714  0.4974  0.1297
 3602TIP3    H132297   4.405   4.427  16.859  0.1489  1.1123  0.1865
 3602TIP3    H232298   4.379   4.301  16.939 -1.7191  0.9609 -0.5953
 3603TIP3   OH232299   0.961   0.759   0.480  0.2361  0.4304  0.4915
 3603TIP3    H132300   0.934   0.827   0.542 -2.8825 -1.4586  1.4316
 3603TIP3    H232301   0.918   0.783   0.398 -0.3554 -0.0512  0.6557
 3604TIP3   OH232302   6.588   4.511   0.725  0.4168  0.3872 -0.0686
 3604TIP3    H132303   6.670   4.507   0.676  0.6701 -0.1614  0.3861
 3604TIP3    H232304   6.567   4.604   0.729  1.0702  0.5433 -0.0941
 3605TIP3   OH232305   1.341   2.942  14.254  0.0798  0.0286 -0.3036
 3605TIP3    H132306   1.418   2.999  14.249 -0.4049  0.8530  1.2336
 3605TIP3    H232307   1.372   2.857  14.224  1.5855  0.3645  0.2369
 3606TIP3   OH232308   2.843   3.091   4.775 -0.1160 -0.0038  0.2159
 3606TIP3    H132309   2.762   3.040   4.782  0.3680 -0.5981  1.7031
 3606TIP3    H232310   2.814   3.175   4.738 -1.1663 -0.7212 -0.6906
 3607TIP3   OH232311   0.045   5.523  11.044 -0.4289 -0.0330 -0.4377
 3607TIP3    H132312   0.073   5.584  10.976  0.8368  0.9236  0.8798
 3607TIP3    H232313   0.029   5.577  11.121  0.7622 -1.3328  0.7910
 3608TIP3   OH232314   4.135   2.434  16.110 -0.9098 -0.4065  0.6227
 3608TIP3    H132315   4.157   2.411  16.201 -2.6603  1.2361  1.5361
 3608TIP3    H232316   4.157   2.527  16.102 -0.3897 -0.6281 -0.7947
 3609TIP3   OH232317   4.089   3.725   0.300  0.1325 -0.3237 -0.1179
 3609TIP3    H132318   4.049   3.726   0.213  1.5576  0.4986 -0.7885
 3609TIP3    H232319   4.017   3.699   0.358 -0.7478 -1.2788 -1.5647
 3610TIP3   OH232320   0.580   2.011  15.189  0.5331 -0.0827  0.4864
 3610TIP3    H132321   0.670   1.993  15.218  0.7127 -0.4965 -0.2997
 3610TIP3    H232322   0.581   2.104  15.167  1.7406 -0.7256 -2.7209
 3611TIP3   OH232323   6.556   5.248   3.145  0.3874  0.6890 -0.3859
 3611TIP3    H132324   6.648   5.272   3.152  0.0916  1.5863  0.7055
 3611TIP3    H232325   6.508   5.326   3.174 -0.7529  0.6170 -1.9318
 3612TIP3   OH232326   4.606   0.881   6.847  0.2823 -0.0918 -0.7041
 3612TIP3    H132327   4.528   0.851   6.800 -0.1583 -1.2855  0.7280
 3612TIP3    H232328   4.675   0.819   6.823  0.3595 -0.0189 -0.6759
 3613TIP3   OH232329   3.262   4.790  15.146 -0.2041 -0.0002  0.4861
 3613TIP3    H132330   3.357   4.799  15.152 -0.1264  0.6021 -1.0349
 3613TIP3    H232331   3.238   4.841  15.068 -1.4783 -2.1171 -0.6005
 3614TIP3   OH232332   4.713   1.202  14.678  0.0599  0.0662  0.2825
 3614TIP3    H132333   4.769   1.264  14.724 -0.3063 -0.3806  1.3636
 3614TIP3    H232334   4.630   1.248  14.666  0.1171  0.1416  0.1780
 3615TIP3   OH232335   4.407   4.620   3.014 -0.8916  0.0033  0.0438
 3615TIP3    H132336   4.497   4.652   3.008 -0.6191 -0.7915 -0.3865
 3615TIP3    H232337   4.379   4.612   2.923 -1.2943 -0.0345  0.1697
 3616TIP3   OH232338   3.113   1.422   1.735  0.4694  0.1686 -0.1533
 3616TIP3    H132339   3.171   1.495   1.712  0.1630  0.0140 -1.5356
 3616TIP3    H232340   3.026   1.461   1.736  0.4614  0.1521  0.7586
 3617TIP3   OH232341   5.195   3.212  15.676 -0.0664  0.2155  0.0803
 3617TIP3    H132342   5.151   3.127  15.672  0.5863 -0.1019 -0.6031
 3617TIP3    H232343   5.157   3.255  15.753  0.2327 -1.0503  0.9631
 3618TIP3   OH232344   2.495   2.460  11.707 -0.2480  0.2885  0.2438
 3618TIP3    H132345   2.538   2.545  11.719  0.5407 -0.0660 -0.0108
 3618TIP3    H232346   2.418   2.465  11.763  0.8776  0.4150  1.8602
 3619TIP3   OH232347   3.581   4.842  12.380  0.6387  0.0815  0.1903
 3619TIP3    H132348   3.602   4.788  12.304  2.6533  0.2216  0.5783
 3619TIP3    H232349   3.508   4.798  12.422 -0.0312 -0.3922 -1.4127
 3620TIP3   OH232350   0.010   6.664  12.960 -0.2365 -0.4996  0.4385
 3620TIP3    H132351   0.076   6.668  12.892 -1.5568 -0.9194 -0.9371
 3620TIP3    H232352  -0.061   6.611  12.921 -1.1843 -0.4395  1.9953
 3621TIP3   OH232353   3.379   5.757  11.590 -0.6212 -0.2244  0.1969
 3621TIP3    H132354   3.404   5.740  11.499  0.4591 -1.9596  0.7561
 3621TIP3    H232355   3.461   5.776  11.634 -1.0769  0.1053  0.9196
 3622TIP3   OH232356   2.449   4.901  17.043  0.1147  0.1250  0.0937
 3622TIP3    H132357   2.507   4.975  17.061  0.1181  0.1726 -0.1118
 3622TIP3    H232358   2.441   4.856  17.127  0.4148  0.1435  0.1347
 3623TIP3   OH232359   4.397   0.501   1.108  0.9922  0.0588 -0.1638
 3623TIP3    H132360   4.319   0.540   1.069  1.0982  1.3848  0.8711
 3623TIP3    H232361   4.393   0.527   1.201  2.4999 -0.0943 -0.0284
 3624TIP3   OH232362   5.293   2.485  12.337  0.1214 -0.0688  0.6633
 3624TIP3    H132363   5.273   2.439  12.256 -2.8523  0.4871  0.9663
 3624TIP3    H232364   5.278   2.420  12.406 -0.5390  0.3250  0.9017
 3625TIP3   OH232365   4.912   6.155  12.731 -0.0923 -0.3572 -0.3876
 3625TIP3    H132366   4.895   6.119  12.817 -1.2407 -0.1663 -0.5265
 3625TIP3    H232367   4.831   6.141  12.682  1.1675 -2.2213 -2.0769
 3626TIP3   OH232368   2.136   5.751  14.069 -0.3321 -0.5182  0.4079
 3626TIP3    H132369   2.054   5.738  14.116 -0.6646  0.5884  0.1756
 3626TIP3    H232370   2.179   5.823  14.115 -0.5305  0.3912 -0.7582
 3627TIP3   OH232371   6.695   4.740  13.486 -0.0831  0.6352  0.0587
 3627TIP3    H132372   6.711   4.804  13.555 -1.4059  0.1580  0.8482
 3627TIP3    H232373   6.717   4.655  13.525 -1.0036  0.3424 -0.0371
 3628TIP3   OH232374   1.899   0.677  16.867  0.2401  0.2792  0.3061
 3628TIP3    H132375   1.961   0.604  16.873  0.6976  0.7258  1.2075
 3628TIP3    H232376   1.871   0.677  16.776  1.9059  0.3363 -0.2380
 3629TIP3   OH232377   1.716   3.537  12.477 -0.0874  0.4257 -0.6943
 3629TIP3    H132378   1.802   3.578  12.487 -0.7850  2.0032 -0.8234
 3629TIP3    H232379   1.722   3.488  12.396  0.4649  1.1773 -1.1248
 3630TIP3   OH232380   6.274   2.517   5.495  0.4922  0.5196  0.6294
 3630TIP3    H132381   6.251   2.489   5.407 -0.1306  1.6222  0.4174
 3630TIP3    H232382   6.229   2.601   5.506  1.6248  1.0448  1.5074
 3631TIP3   OH232383   0.969   5.283   2.880 -0.2910 -0.0452 -0.1373
 3631TIP3    H132384   0.958   5.249   2.791 -0.7492 -0.4373  0.0625
 3631TIP3    H232385   0.992   5.206   2.933  1.2022  0.3827 -0.1230
 3632TIP3   OH232386   3.935   6.557  13.930 -0.4785 -0.0591  0.0107
 3632TIP3    H132387   3.848   6.552  13.891 -0.8200  1.0774  0.5997
 3632TIP3    H232388   3.940   6.644  13.968  0.0011 -0.9883  2.1945
 3633TIP3   OH232389   2.297   3.509   4.085  0.3762  0.1434 -0.1815
 3633TIP3    H132390   2.325   3.482   4.173 -0.3468 -1.4234 -0.3887
 3633TIP3    H232391   2.308   3.604   4.084 -0.4155  0.3236  1.9219
 3634TIP3   OH232392   0.412   5.782   2.415  0.5047 -0.2438 -0.5116
 3634TIP3    H132393   0.447   5.861   2.375 -1.3518 -0.3322 -2.4930
 3634TIP3    H232394   0.325   5.771   2.376 -0.7073 -1.4135  2.2476
 3635TIP3   OH232395   5.230   6.411  14.464 -0.3785  0.2657 -0.1410
 3635TIP3    H132396   5.222   6.456  14.548  0.0539  1.1870 -0.5811
 3635TIP3    H232397   5.319   6.376  14.464 -0.1925  0.7256 -0.4264
 3636TIP3   OH232398   5.039   1.147   1.196  0.1758  0.4962 -0.2877
 3636TIP3    H132399   5.061   1.057   1.173  0.8360  0.4145  0.6171
 3636TIP3    H232400   5.088   1.164   1.276  1.0661  2.0614 -1.1127
 3637TIP3   OH232401   0.210   0.024  13.350 -0.2332 -0.2216  0.0642
 3637TIP3    H132402   0.142   0.091  13.356 -1.2465 -1.2895  0.8584
 3637TIP3    H232403   0.224  -0.003  13.441  0.1683 -1.0831 -0.2488
 3638TIP3   OH232404   5.784   3.464  15.633 -0.2009  0.2291 -0.1422
 3638TIP3    H132405   5.743   3.467  15.547 -1.9924  1.7843  0.6896
 3638TIP3    H232406   5.827   3.378  15.636  0.3854  0.3603 -2.7424
 3639TIP3   OH232407   5.075   6.343  15.493  0.3637 -0.2093  0.3642
 3639TIP3    H132408   5.052   6.293  15.572  1.4666 -0.6492  0.4312
 3639TIP3    H232409   5.046   6.288  15.420 -0.0920 -0.0904  0.4531
 3640TIP3   OH232410   5.854   4.479  16.724 -0.5579 -0.2664 -0.0871
 3640TIP3    H132411   5.858   4.563  16.677 -1.0934 -1.0153 -1.5482
 3640TIP3    H232412   5.944   4.447  16.724 -0.5253 -0.1875 -0.5003
 3641TIP3   OH232413   2.309   0.945   4.744 -0.2308  0.3865 -0.2361
 3641TIP3    H132414   2.359   0.972   4.821  1.1090  0.8682 -1.2247
 3641TIP3    H232415   2.349   0.863   4.717 -3.1117 -1.8348  1.6782
 3642TIP3   OH232416   5.822   1.646   4.012 -0.0200  0.4288 -0.4097
 3642TIP3    H132417   5.735   1.640   4.053 -0.5012  0.2842 -1.4233
 3642TIP3    H232418   5.833   1.562   3.966  1.4006 -0.2723  1.0937
 3643TIP3   OH232419   6.436   5.282  11.908 -0.3318  0.1736  0.4682
 3643TIP3    H132420   6.471   5.197  11.880 -1.8726  0.0920 -1.3766
 3643TIP3    H232421   6.513   5.338  11.917  0.4803 -0.6233 -1.1572
 3644TIP3   OH232422   0.272   2.797  11.540 -0.5795 -0.1736  0.4678
 3644TIP3    H132423   0.249   2.841  11.459  0.8593  1.9073  1.1157
 3644TIP3    H232424   0.189   2.788  11.587 -1.1777  0.0695 -0.5139
 3645TIP3   OH232425   2.560   0.152  14.837 -0.5568  0.2575  0.1878
 3645TIP3    H132426   2.471   0.167  14.868 -0.5210 -1.6284  1.3941
 3645TIP3    H232427   2.600   0.096  14.904  0.9569 -0.3907 -1.1760
 3646TIP3   OH232428   1.647   6.717   0.178  0.4409  0.0576  0.3337
 3646TIP3    H132429   1.614   6.805   0.194 -0.6383 -0.0792 -0.9621
 3646TIP3    H232430   1.611   6.664   0.249  0.5231  0.5297  0.7279
 3647TIP3   OH232431   2.086   0.516  17.268  0.3978  0.1680  0.6194
 3647TIP3    H132432   2.000   0.557  17.268 -1.1933 -2.9434 -0.1105
 3647TIP3    H232433   2.107   0.503  17.361  0.5933  1.8085  0.8332
 3648TIP3   OH232434   3.630   2.476   3.100  0.5770 -0.0718  0.7936
 3648TIP3    H132435   3.576   2.541   3.055  0.8690  2.1655  3.3833
 3648TIP3    H232436   3.569   2.406   3.124  0.0758 -0.4317 -1.3321
 3649TIP3   OH232437   1.807   4.620  10.819 -0.1659 -0.0024  0.0895
 3649TIP3    H132438   1.818   4.667  10.736  1.3314  1.2259  0.9334
 3649TIP3    H232439   1.828   4.529  10.798 -0.6043  0.1394 -1.0370
 3650TIP3   OH232440   0.000   5.691   2.096  0.3905  0.1240  0.4371
 3650TIP3    H132441  -0.014   5.602   2.063  1.3687 -1.1586  3.0960
 3650TIP3    H232442  -0.072   5.742   2.060  0.0388 -1.6319 -1.5320
 3651TIP3   OH232443   3.046   4.947   3.061  0.1068  0.0352 -0.3974
 3651TIP3    H132444   3.103   4.884   3.104 -0.0273  1.1855  1.5656
 3651TIP3    H232445   3.052   4.925   2.968 -1.1949 -3.9331  0.2632
 3652TIP3   OH232446   1.020   6.140   1.603 -0.7913  0.7143 -0.1531
 3652TIP3    H132447   1.114   6.122   1.599 -1.1336 -1.5553  0.4478
 3652TIP3    H232448   0.986   6.108   1.519 -1.1998  0.1735  0.2121
 3653TIP3   OH232449   1.524   2.384   5.950  0.5875  0.3347 -0.1067
 3653TIP3    H132450   1.555   2.392   5.860  1.0257  2.1262  0.1760
 3653TIP3    H232451   1.541   2.293   5.973 -1.7557 -0.8723 -2.6069
 3654TIP3   OH232452   5.323   4.907   1.651 -0.3833 -0.3154 -0.8582
 3654TIP3    H132453   5.413   4.882   1.675 -0.9088 -0.4960  1.1108
 3654TIP3    H232454   5.287   4.829   1.610 -0.2455 -0.9382  0.1613
 3655TIP3   OH232455   6.767   0.123  11.395  1.1091 -0.3960 -0.4861
 3655TIP3    H132456   6.712   0.173  11.454 -1.0903  1.5885 -3.8677
 3655TIP3    H232457   6.847   0.174  11.386  1.3728 -0.6143  0.5515
 3656TIP3   OH232458   6.582   0.142   3.602 -0.3372 -0.1610 -0.6097
 3656TIP3    H132459   6.638   0.220   3.607  0.3139 -0.5387 -1.5512
 3656TIP3    H232460   6.640   0.070   3.629 -0.3139 -0.5689 -1.6767
 3657TIP3   OH232461   0.019   4.565  14.595  0.3452 -0.0761  0.3539
 3657TIP3    H132462  -0.015   4.561  14.684  2.3370 -0.0155  1.1632
 3657TIP3    H232463   0.110   4.535  14.602  1.3724  2.3375 -1.2044
 3658TIP3   OH232464   1.659   3.637   1.971  0.1586  0.3732  0.1514
 3658TIP3    H132465   1.707   3.650   1.889  0.1352  0.3039  0.1262
 3658TIP3    H232466   1.710   3.684   2.037  0.6804 -0.3415  0.2662
 3659TIP3   OH232467   4.886   3.688   4.819 -0.2141  0.1155  0.0081
 3659TIP3    H132468   4.950   3.752   4.850 -0.4977  0.0313  0.7678
 3659TIP3    H232469   4.802   3.733   4.826 -0.3798 -0.2327  0.2437
 3660TIP3   OH232470   2.081   2.444   5.250 -0.2646  0.2241  0.1028
 3660TIP3    H132471   2.058   2.354   5.227 -0.7798  0.6495 -1.1346
 3660TIP3    H232472   1.998   2.492   5.244  0.1678  0.9514 -0.1157
 3661TIP3   OH232473   2.225   1.009   5.824  0.2868  0.1839 -0.6958
 3661TIP3    H132474   2.297   1.046   5.875 -0.0457  0.0197 -0.0925
 3661TIP3    H232475   2.222   0.918   5.851 -1.4908  0.6575  0.9044
 3662TIP3   OH232476   1.542   2.804  16.139 -0.2629 -0.2935  0.1563
 3662TIP3    H132477   1.601   2.875  16.165 -0.3533 -0.2930  0.3585
 3662TIP3    H232478   1.599   2.729  16.129 -0.0774 -0.0502 -0.6485
 3663TIP3   OH232479   4.547   1.381   4.618  0.3891 -0.7884  0.2893
 3663TIP3    H132480   4.594   1.462   4.637 -1.5030 -0.0435  2.1825
 3663TIP3    H232481   4.541   1.335   4.702 -1.9959 -0.9463  0.1028
 3664TIP3   OH232482   3.244   3.577   6.035 -0.6464  0.1315 -0.0708
 3664TIP3    H132483   3.278   3.523   6.107 -0.1257  0.5361 -0.0112
 3664TIP3    H232484   3.282   3.663   6.050  0.9031 -0.1832 -1.8222
 3665TIP3   OH232485   6.116   3.005   4.666 -0.2360  0.2260 -0.1230
 3665TIP3    H132486   6.185   2.982   4.729 -0.5781  2.6267  1.2379
 3665TIP3    H232487   6.049   2.938   4.680  0.9041 -0.9560 -0.0247
 3666TIP3   OH232488   0.184   0.272   0.301  0.5433 -0.1316 -0.3677
 3666TIP3    H132489   0.237   0.227   0.235  0.5823 -1.6183  0.6461
 3666TIP3    H232490   0.141   0.202   0.350  1.7934  0.8343  2.2833
 3667TIP3   OH232491   5.578   3.706   0.328  0.1314 -0.1950 -0.0420
 3667TIP3    H132492   5.517   3.661   0.270 -0.5996  2.0417 -1.1153
 3667TIP3    H232493   5.523   3.749   0.393  0.5955  0.8950 -0.3362
 3668TIP3   OH232494   4.123   5.221   4.575 -0.0428 -0.0142 -0.0734
 3668TIP3    H132495   4.037   5.249   4.543 -0.0610 -0.0837 -0.0867
 3668TIP3    H232496   4.119   5.125   4.571 -0.9775 -0.1489  2.5677
 3669TIP3   OH232497   2.060   5.930   2.413 -0.3590 -0.6138  0.6152
 3669TIP3    H132498   2.134   5.886   2.370 -1.7003 -0.7216 -1.7382
 3669TIP3    H232499   2.070   6.022   2.389 -1.1855 -0.6909 -0.0623
 3670TIP3   OH232500   4.829   3.197  16.046 -0.2422 -0.2650 -0.6844
 3670TIP3    H132501   4.791   3.285  16.049  0.7097  0.1438 -0.2403
 3670TIP3    H232502   4.817   3.163  16.135  1.0310  0.1390 -0.3440
 3671TIP3   OH232503   2.114   1.565  11.536  0.2833  0.2691 -0.1294
 3671TIP3    H132504   2.140   1.473  11.522 -0.5458  0.0986 -0.6079
 3671TIP3    H232505   2.067   1.564  11.619  0.3075  0.2653 -0.1161
 3672TIP3   OH232506   2.556   2.947  12.735 -0.1888 -0.4699 -0.1107
 3672TIP3    H132507   2.573   2.908  12.821  1.3359 -0.3821 -0.3556
 3672TIP3    H232508   2.503   2.882  12.689 -1.4370 -0.3223  1.0345
 3673TIP3   OH232509   4.595   1.223  14.160 -0.5017 -0.0756  0.3160
 3673TIP3    H132510   4.575   1.177  14.242  0.4480  0.7617  1.0468
 3673TIP3    H232511   4.665   1.284  14.184 -2.1434  2.2463 -0.4190
 3674TIP3   OH232512   3.893   2.204  14.594 -0.4356 -0.4671 -0.2702
 3674TIP3    H132513   3.825   2.271  14.585  0.6489  0.5960 -0.7076
 3674TIP3    H232514   3.975   2.251  14.583  0.4470 -1.5170  1.4425
 3675TIP3   OH232515   1.368   0.902  16.820 -0.8153  0.0198  0.2149
 3675TIP3    H132516   1.455   0.879  16.852 -0.7989 -1.7579 -0.9494
 3675TIP3    H232517   1.379   0.912  16.726 -1.8124  0.0131  0.0860
 3676TIP3   OH232518   2.629   5.974  11.228  0.0779 -0.0639  0.0336
 3676TIP3    H132519   2.670   5.935  11.305 -1.2455  1.1330  1.4265
 3676TIP3    H232520   2.622   5.902  11.165  2.2766 -0.7915  0.5422
 3677TIP3   OH232521   6.643   5.314   4.584  0.2877 -0.1858  0.1474
 3677TIP3    H132522   6.628   5.321   4.679  0.3170  0.2628  0.1240
 3677TIP3    H232523   6.677   5.400   4.560 -0.9030  0.1231 -0.4852
 3678TIP3   OH232524   0.466   0.365  16.135 -0.2390  0.3582  0.0689
 3678TIP3    H132525   0.407   0.327  16.201  0.0203  0.3095  0.2767
 3678TIP3    H232526   0.539   0.303  16.131 -0.2759  0.3409 -0.2964
 3679TIP3   OH232527   1.873   5.861   2.797  0.0754 -0.1490 -0.0039
 3679TIP3    H132528   1.917   5.889   2.717 -1.8944  1.3302 -0.6537
 3679TIP3    H232529   1.859   5.941   2.846 -1.7438 -0.5594  0.2191
 3680TIP3   OH232530   5.668   5.547   0.743  0.1754  0.2463  0.4995
 3680TIP3    H132531   5.759   5.575   0.737  0.6897 -1.1359  1.2601
 3680TIP3    H232532   5.639   5.578   0.829  0.3732 -0.4748  0.8356
 3681TIP3   OH232533   1.790   2.889  17.270  0.5431 -0.2734  0.1652
 3681TIP3    H132534   1.795   2.826  17.198 -0.3836 -0.8403  0.5770
 3681TIP3    H232535   1.764   2.836  17.346  3.5896 -0.1344  1.4861
 3682TIP3   OH232536   6.565   6.341  11.015 -1.4698  1.0555 -0.5006
 3682TIP3    H132537   6.541   6.363  10.925 -0.4450  1.1737 -0.7631
 3682TIP3    H232538   6.604   6.422  11.049  1.2735  0.0900 -1.0884
 3683TIP3   OH232539   3.757   5.056  14.895 -0.6285 -0.0883  0.1210
 3683TIP3    H132540   3.689   5.100  14.946 -0.6370 -0.5949  0.5505
 3683TIP3    H232541   3.725   4.966  14.884  0.2135 -0.4954  0.8067
 3684TIP3   OH232542   1.163   6.606  15.869 -0.3252  0.0824 -0.2495
 3684TIP3    H132543   1.128   6.582  15.954 -1.2779 -0.2129 -0.7107
 3684TIP3    H232544   1.167   6.702  15.871  0.6287  0.0457  0.4824
 3685TIP3   OH232545   3.997   2.103   0.622 -0.3972  0.1871  0.0385
 3685TIP3    H132546   4.009   2.018   0.664 -2.5059 -0.1289  0.0823
 3685TIP3    H232547   3.926   2.144   0.671  0.7102  2.1007  0.1567
 3686TIP3   OH232548   3.159   1.919  14.119  0.0561 -0.1881  0.1484
 3686TIP3    H132549   3.251   1.898  14.106 -0.7598 -2.4938 -3.1771
 3686TIP3    H232550   3.160   1.996  14.176  3.9285 -0.7358  1.1199
 3687TIP3   OH232551   6.131   3.663  16.309  0.1037  0.0142  1.0580
 3687TIP3    H132552   6.190   3.596  16.275 -1.2988 -1.1515  0.8217
 3687TIP3    H232553   6.183   3.743  16.309  1.4249 -0.8065  0.1044
 3688TIP3   OH232554   1.342   2.509   3.052 -0.3607  0.2086  0.4698
 3688TIP3    H132555   1.418   2.534   3.000 -0.2396  1.0231  1.0132
 3688TIP3    H232556   1.318   2.422   3.020 -0.4267  0.7730 -1.0950
 3689TIP3   OH232557   0.464   5.138   4.572  0.2466 -0.2899 -0.2439
 3689TIP3    H132558   0.451   5.053   4.615 -0.6500 -0.3431 -0.5967
 3689TIP3    H232559   0.413   5.132   4.492  0.8733  0.2829 -0.6889
 3690TIP3   OH232560   3.118   3.335   3.184  0.2301  0.5908  0.0322
 3690TIP3    H132561   3.142   3.324   3.276  1.8984  3.1869  0.0161
 3690TIP3    H232562   3.115   3.430   3.171  1.0432  0.3287 -2.8009
 3691TIP3   OH232563   0.711   0.170  11.495  0.3050  0.2594  0.0061
 3691TIP3    H132564   0.667   0.093  11.530 -1.2397  0.9440 -0.3177
 3691TIP3    H232565   0.770   0.136  11.428  2.0282 -0.8979  2.0231
 3692TIP3   OH232566   4.090   5.664   4.375 -0.2714 -0.5612  0.0537
 3692TIP3    H132567   4.050   5.745   4.406  1.0904 -0.5741  1.9734
 3692TIP3    H232568   4.168   5.693   4.327 -1.9131 -0.5903 -2.8959
 3693TIP3   OH232569   2.564   0.614  15.134 -0.5671  0.6915  0.5740
 3693TIP3    H132570   2.612   0.694  15.114 -0.8064  0.5776 -0.4987
 3693TIP3    H232571   2.503   0.640  15.203 -1.1208  1.6249 -0.2338
 3694TIP3   OH232572   0.026   6.231   6.405 -0.2479  0.1381 -0.2155
 3694TIP3    H132573   0.118   6.217   6.383 -0.4717 -0.4654 -0.8131
 3694TIP3    H232574   0.012   6.179   6.484  0.0118  0.5242  0.0874
 3695TIP3   OH232575   0.240   3.042  10.833  0.1592  0.2055 -0.0328
 3695TIP3    H132576   0.156   2.996  10.832  0.7180 -0.8613  0.4665
 3695TIP3    H232577   0.219   3.131  10.806 -0.9857 -0.2824 -0.8134
 3696TIP3   OH232578   3.774   2.374   0.255 -0.0706  0.2106 -0.2976
 3696TIP3    H132579   3.814   2.457   0.280  0.1072 -0.0411  0.2718
 3696TIP3    H232580   3.804   2.359   0.165 -1.1474  1.3826 -0.8742
 3697TIP3   OH232581   4.385   6.172   3.755 -0.2304 -0.6071 -0.0835
 3697TIP3    H132582   4.423   6.237   3.696  0.7565 -1.6175 -0.5951
 3697TIP3    H232583   4.296   6.203   3.771  0.0531  0.5862 -0.7188
 3698TIP3   OH232584   6.507   5.033   4.419  0.1709 -0.4021 -0.1350
 3698TIP3    H132585   6.419   5.071   4.420  0.4691  0.3270 -0.9299
 3698TIP3    H232586   6.525   5.013   4.511 -0.6998 -0.2892  0.0742
 3699TIP3   OH232587   6.293   3.739   2.586  0.2323  0.6669  0.3653
 3699TIP3    H132588   6.335   3.723   2.501 -1.1659  2.0491 -0.6343
 3699TIP3    H232589   6.216   3.682   2.586  1.6652 -1.4027  1.9376
 3700TIP3   OH232590   6.534   6.751  10.412  0.6459  0.4446 -0.6305
 3700TIP3    H132591   6.537   6.819  10.344  0.5436  2.1980  1.0477
 3700TIP3    H232592   6.600   6.777  10.476 -1.1151  0.3831  1.3146
 3701TIP3   OH232593   0.742   1.435  15.395  0.2276  0.2220  0.4905
 3701TIP3    H132594   0.737   1.340  15.382  1.1733  0.0430  1.2872
 3701TIP3    H232595   0.752   1.470  15.307  0.3962 -0.4633  0.2278
 3702TIP3   OH232596   6.163   5.608   3.756 -0.4277 -0.6900 -0.2964
 3702TIP3    H132597   6.077   5.584   3.722  0.0474 -1.2424 -1.1491
 3702TIP3    H232598   6.172   5.557   3.837  0.4091 -3.2676 -1.8692
 3703TIP3   OH232599   4.883   5.257  15.755  0.1769  0.2154 -0.0832
 3703TIP3    H132600   4.874   5.162  15.759 -0.8952  0.3079 -0.0163
 3703TIP3    H232601   4.908   5.275  15.665  2.5796 -0.2677  0.4142
 3704TIP3   OH232602   5.985   5.448  16.224  0.9157  0.2166 -0.2670
 3704TIP3    H132603   5.997   5.508  16.150  0.8094 -0.0177 -0.4758
 3704TIP3    H232604   5.893   5.421  16.218  0.0270  2.4956  1.6864
 3705TIP3   OH232605   4.120   3.185  14.711  0.2709  0.8628  0.1416
 3705TIP3    H132606   4.078   3.192  14.625  1.0895 -0.3088 -0.3868
 3705TIP3    H232607   4.047   3.188  14.774 -0.4414  0.5838 -0.6534
 3706TIP3   OH232608   3.648   2.071  15.279 -0.3354 -0.6283 -0.1092
 3706TIP3    H132609   3.593   2.138  15.320  1.5027  1.4742 -0.8720
 3706TIP3    H232610   3.587   2.002  15.252 -2.6248  1.6044 -1.0067
 3707TIP3   OH232611   1.543   3.571  11.601 -0.3583  0.5876 -0.1120
 3707TIP3    H132612   1.459   3.553  11.558 -0.1086  0.3316 -0.4969
 3707TIP3    H232613   1.588   3.487  11.604 -0.1629  0.7005  0.2015
 3708TIP3   OH232614   4.413   6.034   1.710 -0.2220  0.3979 -0.1918
 3708TIP3    H132615   4.408   6.128   1.725  0.1780  0.3478  0.2842
 3708TIP3    H232616   4.370   5.995   1.787  0.0623  0.1821 -0.1419
 3709TIP3   OH232617   5.818   3.082   6.932  0.7146  0.2797 -1.1172
 3709TIP3    H132618   5.896   3.137   6.927  0.7326  0.3217 -0.4798
 3709TIP3    H232619   5.844   3.009   6.988 -0.7315  2.1491  2.3246
 3710TIP3   OH232620   1.122   2.677  14.811 -0.6372  0.2803 -0.2531
 3710TIP3    H132621   1.086   2.592  14.785  0.7748  0.3040 -2.5065
 3710TIP3    H232622   1.048   2.737  14.803 -1.2126 -0.4232 -0.3941
 3711TIP3   OH232623   4.139   5.908  15.125 -0.2693 -0.3788  0.0897
 3711TIP3    H132624   4.158   5.915  15.219 -1.5909 -0.2094  0.3620
 3711TIP3    H232625   4.225   5.895  15.084  0.3264 -0.4470  1.3164
 3712TIP3   OH232626   5.960   2.728   1.901 -0.1636  0.0748 -0.0722
 3712TIP3    H132627   5.941   2.700   1.991  1.7685 -0.1354  0.3229
 3712TIP3    H232628   6.052   2.704   1.888  0.0328  1.4683 -1.5790
 3713TIP3   OH232629   3.603   1.600   0.756  0.2601  0.2058 -0.6478
 3713TIP3    H132630   3.516   1.603   0.716  0.7783 -0.6918 -1.9106
 3713TIP3    H232631   3.663   1.595   0.681  1.3170 -0.4842  0.2196
 3714TIP3   OH232632   3.469   6.519  12.163  0.5251  0.4987  0.7312
 3714TIP3    H132633   3.521   6.517  12.243 -1.0296 -1.1889  1.7846
 3714TIP3    H232634   3.378   6.521  12.194 -0.1079  0.2994 -0.9924
 3715TIP3   OH232635   4.334   2.486   4.138 -0.1062  0.0133  0.3685
 3715TIP3    H132636   4.307   2.422   4.204  2.3913 -1.9893 -0.3971
 3715TIP3    H232637   4.303   2.449   4.055  1.5265 -0.3521 -0.1020
 3716TIP3   OH232638   0.554   3.938   4.041 -0.3180  0.0466  0.6563
 3716TIP3    H132639   0.615   3.886   4.093  0.6888 -0.0449 -0.5711
 3716TIP3    H232640   0.514   3.875   3.980  0.6745  0.6041 -0.6225
 3717TIP3   OH232641   3.177   6.797   4.678 -0.0866 -0.0776  0.2021
 3717TIP3    H132642   3.100   6.824   4.627 -0.4368  2.7441  2.0088
 3717TIP3    H232643   3.252   6.830   4.628 -0.4568  3.4706  1.6621
 3718TIP3   OH232644   1.484   4.473   3.928  0.2418  0.4131 -0.3466
 3718TIP3    H132645   1.409   4.420   3.902  0.2197 -0.4247  1.2978
 3718TIP3    H232646   1.487   4.466   4.023  0.7936  2.6524 -0.1369
 3719TIP3   OH232647   6.228   2.606   1.923  0.1711 -0.2612 -0.3751
 3719TIP3    H132648   6.315   2.645   1.925  0.1272 -0.0601 -1.5983
 3719TIP3    H232649   6.241   2.516   1.953  0.5125  0.2242  1.0227
 3720TIP3   OH232650   0.665   0.833  13.297  0.0507 -0.2914 -0.6129
 3720TIP3    H132651   0.654   0.832  13.202  0.8605 -1.7588 -0.7212
 3720TIP3    H232652   0.642   0.744  13.325  1.5816 -0.4306  0.3233
 3721TIP3   OH232653   2.189   6.396  12.256  0.8309  0.8427 -0.1145
 3721TIP3    H132654   2.118   6.379  12.195  2.5894 -0.7833 -1.8346
 3721TIP3    H232655   2.246   6.459  12.211  1.2226  1.0532  0.6373
 3722TIP3   OH232656   0.699   4.355  11.870 -0.1715 -0.1987 -0.1063
 3722TIP3    H132657   0.606   4.341  11.849 -0.0422 -0.3591 -0.5995
 3722TIP3    H232658   0.738   4.267  11.866 -0.8850 -1.0330  4.9864
 3723TIP3   OH232659   3.871   3.283  16.201  0.3819 -0.0511  0.7798
 3723TIP3    H132660   3.949   3.272  16.147  0.5286  2.6465  0.2971
 3723TIP3    H232661   3.904   3.276  16.291  0.7285 -1.2515  0.5790
 3724TIP3   OH232662   6.485   2.040   1.713 -0.2142  0.0908  1.0382
 3724TIP3    H132663   6.471   1.997   1.629 -0.0024  1.2837  0.3628
 3724TIP3    H232664   6.401   2.036   1.757 -0.3815 -0.3601  0.6767
 3725TIP3   OH232665   0.101   5.387   5.199 -0.0175 -0.3738  0.4372
 3725TIP3    H132666   0.027   5.416   5.253 -0.0578  0.0297  0.1688
 3725TIP3    H232667   0.178   5.401   5.254 -0.1686 -1.1354  0.8545
 3726TIP3   OH232668   6.376   6.119  13.949  0.0056 -0.4075 -0.4625
 3726TIP3    H132669   6.348   6.070  13.871  0.0963  0.3594 -0.9866
 3726TIP3    H232670   6.411   6.201  13.914 -0.6934  0.2898  0.4311
 3727TIP3   OH232671   4.555   4.151   3.005 -0.0003 -0.1628  0.8340
 3727TIP3    H132672   4.518   4.122   3.088 -0.0603  0.2696  0.9645
 3727TIP3    H232673   4.516   4.093   2.939  0.2106 -0.6414  1.1292
 3728TIP3   OH232674   1.012   3.439   3.884 -0.3652 -0.5314  0.0632
 3728TIP3    H132675   0.991   3.367   3.943 -0.2485  0.8997  1.9563
 3728TIP3    H232676   1.017   3.399   3.797 -1.6661 -2.5238  0.8476
 3729TIP3   OH232677   1.737   2.791  11.831 -0.0093 -0.0258  0.3893
 3729TIP3    H132678   1.806   2.759  11.773  0.9500  1.5793  0.5801
 3729TIP3    H232679   1.659   2.799  11.775  0.3437 -0.4777 -0.1672
 3730TIP3   OH232680   5.248   2.552  16.567 -0.4291 -0.2655  0.3591
 3730TIP3    H132681   5.285   2.537  16.654 -1.5526 -3.7178  0.3838
 3730TIP3    H232682   5.322   2.583  16.514  1.1451 -1.5631  1.7162
 3731TIP3   OH232683   2.553   3.223  15.504 -0.0588 -0.3098  0.1872
 3731TIP3    H132684   2.597   3.139  15.488 -0.7621 -0.7427  0.4886
 3731TIP3    H232685   2.579   3.248  15.592  0.1762 -0.1930  0.0851
 3732TIP3   OH232686   2.883   1.514  16.202 -0.6819  0.1558 -0.3145
 3732TIP3    H132687   2.884   1.552  16.114 -0.9283 -1.1439 -0.9073
 3732TIP3    H232688   2.801   1.543  16.241 -0.1141  1.5779 -0.0989
 3733TIP3   OH232689   2.278   6.178  17.055  0.2914  0.2463 -0.4374
 3733TIP3    H132690   2.347   6.128  17.012  0.2755  0.6569 -0.9473
 3733TIP3    H232691   2.287   6.267  17.019  1.1597  0.9595  1.3992
 3734TIP3   OH232692   6.248   4.452  13.427  0.2236  0.3631  0.3973
 3734TIP3    H132693   6.221   4.385  13.364  1.1622  0.8108 -0.5136
 3734TIP3    H232694   6.282   4.523  13.372 -0.4604  1.4568  1.3498
 3735TIP3   OH232695   1.999   0.901  16.461  0.1148  0.2407  0.0073
 3735TIP3    H132696   2.016   0.974  16.402 -0.3430  0.6358  0.3538
 3735TIP3    H232697   2.031   0.824  16.414 -0.5294  0.5046 -0.8972
 3736TIP3   OH232698   6.151   0.136  11.338 -0.1511 -0.0121  0.0342
 3736TIP3    H132699   6.212   0.117  11.267 -0.3079 -0.1463 -0.0668
 3736TIP3    H232700   6.095   0.206  11.305 -0.9796 -0.8597 -0.4315
 3737TIP3   OH232701   2.524   6.243   1.934  0.3932  0.1975 -0.5507
 3737TIP3    H132702   2.566   6.208   2.013  2.3239 -2.1280 -2.4568
 3737TIP3    H232703   2.589   6.305   1.899 -0.3332  1.0097 -0.4807
 3738TIP3   OH232704   0.409   1.404  14.388  0.3100 -0.3535  0.1237
 3738TIP3    H132705   0.494   1.363  14.370  0.6553  0.6653 -0.6071
 3738TIP3    H232706   0.378   1.435  14.303  0.2079  1.1908  0.6896
 3739TIP3   OH232707   3.898   4.866   0.274 -0.3079 -0.5508  0.0207
 3739TIP3    H132708   3.885   4.939   0.335 -0.7782 -0.0640 -0.6411
 3739TIP3    H232709   3.810   4.843   0.245 -0.0615 -0.3545 -0.9399
 3740TIP3   OH232710   4.723   2.022  16.338 -0.0679  0.3780 -0.5684
 3740TIP3    H132711   4.726   2.032  16.243 -0.0367 -0.1138 -0.6195
 3740TIP3    H232712   4.815   2.026  16.365 -0.0521  0.1657 -0.5939
 3741TIP3   OH232713   6.316   0.668  14.289  0.7455  0.1419  0.7309
 3741TIP3    H132714   6.339   0.665  14.196 -0.1064  0.6403  0.4978
 3741TIP3    H232715   6.223   0.691  14.291  0.5242 -0.7532  1.6838
 3742TIP3   OH232716   2.737   4.484   3.814 -0.1090  0.6166 -0.8379
 3742TIP3    H132717   2.828   4.463   3.793 -0.2961 -0.2128 -0.8627
 3742TIP3    H232718   2.738   4.577   3.835  0.4219  1.0496 -2.6488
 3743TIP3   OH232719   4.524   3.045   0.320  0.0435 -0.3757 -0.2601
 3743TIP3    H132720   4.451   3.073   0.264  1.2319 -0.0663 -1.7257
 3743TIP3    H232721   4.540   2.954   0.295 -0.2642 -0.6520  0.5390
 3744TIP3   OH232722   1.309   3.203   5.971  0.5532 -0.1566  0.4262
 3744TIP3    H132723   1.371   3.211   6.043  1.6130  0.0853 -0.4924
 3744TIP3    H232724   1.262   3.286   5.971 -0.0670 -0.4925  1.3743
 3745TIP3   OH232725   5.024   4.399   2.820  0.1480  0.4562  0.2584
 3745TIP3    H132726   4.947   4.375   2.769  0.4987 -0.0135 -0.0570
 3745TIP3    H232727   5.022   4.495   2.825 -0.6228  0.4304  0.5179
 3746TIP3   OH232728   5.187   6.390  17.214 -0.3756  0.0104 -0.9691
 3746TIP3    H132729   5.225   6.398  17.301 -0.3769  2.1717 -1.1097
 3746TIP3    H232730   5.256   6.352  17.160  0.3384  0.5571 -0.4481
 3747TIP3   OH232731   5.303   4.313   2.849  0.6178  0.6908  0.5562
 3747TIP3    H132732   5.325   4.404   2.832 -2.0350  1.4579  0.7723
 3747TIP3    H232733   5.207   4.312   2.855  0.5282 -2.1974  0.1029
 3748TIP3   OH232734   0.586   1.325   0.002  0.8232 -0.2946  0.2347
 3748TIP3    H132735   0.614   1.340  -0.088 -1.9079 -1.1000 -0.8456
 3748TIP3    H232736   0.499   1.363   0.007  1.0272  0.0189  2.6717
 3749TIP3   OH232737   3.798   2.917   0.262  0.1100 -0.1454  0.1694
 3749TIP3    H132738   3.733   2.988   0.259  0.3599  0.2594  2.2847
 3749TIP3    H232739   3.840   2.927   0.348  2.2997 -1.0063 -0.7258
 3750TIP3   OH232740   2.661   3.637   2.869  0.2393  0.4956  0.5053
 3750TIP3    H132741   2.586   3.640   2.929 -1.9932  1.1281 -2.1378
 3750TIP3    H232742   2.676   3.728   2.844  2.0192  0.3859  1.0515
 3751TIP3   OH232743   0.195   3.490  11.529 -0.8440 -0.3099  0.0814
 3751TIP3    H132744   0.264   3.512  11.592 -1.0645 -0.1157  0.2594
 3751TIP3    H232745   0.206   3.553  11.458 -0.4013 -0.7275 -0.2222
 3752TIP3   OH232746   0.376   4.086  16.183  0.1409  0.0164  0.0896
 3752TIP3    H132747   0.330   4.003  16.171 -0.3343  0.4642 -1.4409
 3752TIP3    H232748   0.466   4.061  16.204 -0.5694 -0.8650  2.3385
 3753TIP3   OH232749   6.005   5.440   5.662 -0.1289  0.4757 -0.7639
 3753TIP3    H132750   5.935   5.504   5.675  0.1389  1.4855 -3.4889
 3753TIP3    H232751   6.063   5.482   5.597  0.2419 -2.3667 -2.4240
 3754TIP3   OH232752   2.498   6.167   5.200 -0.2114 -0.1525  0.2364
 3754TIP3    H132753   2.510   6.155   5.294  1.4711  1.2529  0.2668
 3754TIP3    H232754   2.444   6.093   5.172 -1.0066 -0.4356  2.3376
 3755TIP3   OH232755   3.782   3.874   3.280  0.5719  0.0927  0.1307
 3755TIP3    H132756   3.845   3.838   3.217  0.3542 -0.2380  0.1001
 3755TIP3    H232757   3.702   3.885   3.229 -0.0417 -1.5487  0.6912
 3756TIP3   OH232758   5.811   3.466   5.742 -0.5276  0.4596  0.1207
 3756TIP3    H132759   5.799   3.438   5.833 -2.0185  1.5157  0.2818
 3756TIP3    H232760   5.863   3.396   5.703  1.9156  0.9180  2.2653
 3757TIP3   OH232761   2.826   2.577  14.875 -0.2529  0.5605 -0.4104
 3757TIP3    H132762   2.810   2.527  14.795  1.2226  1.5210 -1.3457
 3757TIP3    H232763   2.913   2.550  14.903 -1.1866 -0.6209  1.5708
 3758TIP3   OH232764   3.712   3.419  10.905  0.0994  0.5474 -0.3406
 3758TIP3    H132765   3.799   3.400  10.870  1.4422  1.1447  2.3484
 3758TIP3    H232766   3.716   3.512  10.929 -1.1247  0.4834  0.1793
 3759TIP3   OH232767   5.067   3.845   3.656  0.0096  0.0710  0.3524
 3759TIP3    H132768   5.094   3.839   3.564 -1.7146  0.2219 -0.1949
 3759TIP3    H232769   4.989   3.790   3.661 -0.5981  1.0015  1.4617
 3760TIP3   OH232770   5.334   5.351  14.616  0.2239 -0.0696  0.1601
 3760TIP3    H132771   5.394   5.425  14.611  0.8303 -0.3747  2.1496
 3760TIP3    H232772   5.300   5.353  14.705 -0.2960 -1.7672  0.0482
 3761TIP3   OH232773   3.402   3.873  16.222  0.5275  0.0671  0.3676
 3761TIP3    H132774   3.455   3.949  16.199 -0.2470  0.5349  0.1086
 3761TIP3    H232775   3.463   3.814  16.268  1.3539  0.4245 -0.2577
 3762TIP3   OH232776   5.992   3.897   5.001  0.0928 -0.0231  0.4999
 3762TIP3    H132777   6.067   3.909   5.059  1.3314 -1.7613 -0.6241
 3762TIP3    H232778   6.032   3.884   4.914 -1.4575 -1.7187 -0.0075
 3763TIP3   OH232779   2.497   4.209  11.871  0.5529  0.7751  0.3108
 3763TIP3    H132780   2.493   4.139  11.936 -0.2683  1.1058  0.6215
 3763TIP3    H232781   2.520   4.164  11.789 -0.2815  0.0930  0.4396
 3764TIP3   OH232782   3.250   0.019   1.315  0.0273  0.8405 -0.1843
 3764TIP3    H132783   3.188   0.028   1.244 -0.1284 -1.1136 -0.3497
 3764TIP3    H232784   3.266   0.109   1.345 -1.6162  1.5032 -1.1807
 3765TIP3   OH232785   3.202   1.908  16.703 -0.1722 -0.3169 -0.3265
 3765TIP3    H132786   3.139   1.841  16.679 -0.8264 -0.0738  0.6771
 3765TIP3    H232787   3.272   1.899  16.639 -1.2907 -0.4881 -1.5656
 3766TIP3   OH232788   4.750   5.152   0.155  0.0540  0.7411 -0.0604
 3766TIP3    H132789   4.818   5.088   0.178  0.7525  0.5923 -2.3142
 3766TIP3    H232790   4.772   5.230   0.207  1.2419  0.3050  0.1332
 3767TIP3   OH232791   0.932   0.449   5.285 -0.9087 -0.5350  0.3020
 3767TIP3    H132792   0.843   0.439   5.251 -1.6593 -2.5006  2.5339
 3767TIP3    H232793   0.925   0.425   5.378  1.4678  1.8884  1.2383
 3768TIP3   OH232794   0.035   6.160   1.382 -0.0852 -0.0746 -0.7891
 3768TIP3    H132795  -0.043   6.113   1.415 -0.1307  0.6460  0.1783
 3768TIP3    H232796   0.049   6.124   1.295 -1.5649 -0.1561 -1.0226
 3769TIP3   OH232797   3.061   6.261  12.795 -0.3945 -0.3034 -0.2718
 3769TIP3    H132798   3.130   6.195  12.783  1.2855  1.5338 -1.4975
 3769TIP3    H232799   3.006   6.252  12.718 -0.4021 -0.5370 -0.2395
 3770TIP3   OH232800   0.882   3.846  12.852 -0.0174  0.0309 -0.1096
 3770TIP3    H132801   0.968   3.868  12.887  0.0264 -0.5432  0.1640
 3770TIP3    H232802   0.898   3.824  12.760  0.6645 -2.9847  0.6076
 3771TIP3   OH232803   2.065   1.264  15.738  0.1239  0.7513  0.1269
 3771TIP3    H132804   2.055   1.354  15.767 -0.6646  0.6894  0.0856
 3771TIP3    H232805   2.159   1.253  15.724  0.0911  2.1404 -1.6874
 3772TIP3   OH232806   6.287   6.372   3.564 -0.1036  0.2599  0.3729
 3772TIP3    H132807   6.282   6.451   3.618 -1.0643  0.8046 -0.4891
 3772TIP3    H232808   6.230   6.390   3.489 -0.3576 -1.2585  0.1709
 3773TIP3   OH232809   4.380   1.170  15.312  0.3708 -0.1530  0.6032
 3773TIP3    H132810   4.311   1.180  15.378 -0.5751 -2.0987  0.0051
 3773TIP3    H232811   4.435   1.247  15.323 -0.9865  0.6698  2.1946
 3774TIP3   OH232812   0.290   2.571  14.688  0.1393  0.5730  0.0803
 3774TIP3    H132813   0.376   2.574  14.645  0.4665 -0.8220  0.5683
 3774TIP3    H232814   0.235   2.627  14.634  1.3290  1.4359 -0.2960
 3775TIP3   OH232815   6.304   2.363  10.963 -0.2468 -0.8208 -0.1482
 3775TIP3    H132816   6.222   2.387  10.918  0.4064  0.2185 -0.8346
 3775TIP3    H232817   6.373   2.388  10.901  0.7649  2.1155  1.9327
 3776TIP3   OH232818   5.890   2.203  13.872 -0.2886 -0.0496 -0.3801
 3776TIP3    H132819   5.796   2.194  13.886  0.0548 -0.1385  2.4716
 3776TIP3    H232820   5.920   2.113  13.855 -0.7925  0.1169 -2.4558
 3777TIP3   OH232821   3.375   2.271   0.514  0.0488  0.1859  0.4286
 3777TIP3    H132822   3.334   2.194   0.476 -2.4269 -0.4110  3.8258
 3777TIP3    H232823   3.421   2.313   0.441  0.3122 -3.6527 -1.8652
 3778TIP3   OH232824   2.720   4.762  16.859 -0.2610  0.2415 -0.0429
 3778TIP3    H132825   2.773   4.775  16.938 -0.6696  1.9542 -0.0103
 3778TIP3    H232826   2.784   4.754  16.789  0.0901  0.9127  0.1859
 3779TIP3   OH232827   3.191   3.086  11.911  0.3457  0.2094  0.5921
 3779TIP3    H132828   3.241   3.053  11.835 -0.6299  0.1793 -0.0487
 3779TIP3    H232829   3.109   3.116  11.874  0.3938  1.4736  1.4634
 3780TIP3   OH232830   3.387   6.599  12.501  0.0927 -0.5436 -0.2235
 3780TIP3    H132831   3.426   6.671  12.452 -0.6383 -0.3967 -0.6035
 3780TIP3    H232832   3.392   6.627  12.592  2.7105 -1.4167 -0.0299
 3781TIP3   OH232833   4.542   2.710   3.273  0.1589 -0.2821  0.5840
 3781TIP3    H132834   4.532   2.616   3.289 -1.0854  0.0790  2.0929
 3781TIP3    H232835   4.580   2.715   3.185  0.4306 -2.1914  0.5519
 3782TIP3   OH232836   3.504   0.559   4.556 -0.4279 -0.4689  0.1462
 3782TIP3    H132837   3.433   0.500   4.581 -1.1456  0.2590 -0.0871
 3782TIP3    H232838   3.551   0.513   4.487 -0.2820 -1.2281  0.7462
 3783TIP3   OH232839   5.242   6.230  13.659  0.4840 -0.2340  0.0454
 3783TIP3    H132840   5.292   6.183  13.593 -0.2082  0.9530 -1.3577
 3783TIP3    H232841   5.279   6.200  13.742  0.6998 -2.5098 -0.8108
 3784TIP3   OH232842   3.696   0.054   5.187 -0.0042 -0.1533  0.3311
 3784TIP3    H132843   3.653   0.002   5.119  0.3314 -2.7462  1.9919
 3784TIP3    H232844   3.625   0.086   5.242 -0.2097  1.2274 -0.6857
 3785TIP3   OH232845   4.273   1.667  14.210 -0.4452  0.3727  0.2897
 3785TIP3    H132846   4.276   1.708  14.124 -2.6966 -0.3477 -0.2140
 3785TIP3    H232847   4.322   1.726  14.267  1.6178  0.5733 -1.5554
 3786TIP3   OH232848   4.521   3.474  12.549  0.2498  0.3741  0.9151
 3786TIP3    H132849   4.449   3.413  12.545  0.2734  0.2577  1.9244
 3786TIP3    H232850   4.549   3.473  12.641  1.6801  0.2381  0.5128
 3787TIP3   OH232851   4.212   0.645   1.710  0.5047 -0.3311  0.1221
 3787TIP3    H132852   4.167   0.603   1.783 -0.1092 -0.2917 -0.2254
 3787TIP3    H232853   4.288   0.589   1.694  0.7861 -0.1956  0.9471
 3788TIP3   OH232854   6.677   1.977  13.330 -0.0474  0.5975 -0.3432
 3788TIP3    H132855   6.603   2.036  13.345 -0.4779 -0.0086 -0.0262
 3788TIP3    H232856   6.638   1.890  13.329  0.7135  0.2330  0.2798
 3789TIP3   OH232857   3.057   5.285  15.155 -0.3571 -0.6223  0.0167
 3789TIP3    H132858   2.977   5.243  15.185 -0.9457  1.3863  1.5441
 3789TIP3    H232859   3.128   5.235  15.196 -1.0380 -0.1352  1.9277
 3790TIP3   OH232860   6.629   6.782  14.413  0.5025 -0.2048 -0.2495
 3790TIP3    H132861   6.540   6.764  14.444  0.9351 -0.4956  0.8746
 3790TIP3    H232862   6.677   6.700  14.429  1.2797  0.3531  0.3482
 3791TIP3   OH232863   2.198   3.214  14.968  0.0599  0.6861  0.5155
 3791TIP3    H132864   2.272   3.262  15.006 -0.5769  2.2233 -0.0718
 3791TIP3    H232865   2.129   3.221  15.034  0.4351 -0.8003  1.0900
 3792TIP3   OH232866   4.437   3.307   1.041 -0.8009  0.0915  0.3053
 3792TIP3    H132867   4.465   3.390   1.080  1.8435 -0.0650 -1.0331
 3792TIP3    H232868   4.367   3.331   0.980  0.9266  1.6647 -1.1938
 3793TIP3   OH232869   3.904   0.564   0.749  0.2463  0.0284  0.1427
 3793TIP3    H132870   3.913   0.620   0.826 -0.2144  0.7797 -0.3386
 3793TIP3    H232871   3.809   0.557   0.736  0.3289  0.2513 -0.5970
 3794TIP3   OH232872   0.698   1.618   0.324  0.4033 -0.4230 -0.0114
 3794TIP3    H132873   0.703   1.658   0.237  0.4150 -1.4697 -0.5073
 3794TIP3    H232874   0.704   1.524   0.308  2.3593 -0.5848  1.2581
 3795TIP3   OH232875   4.986   6.129   1.230 -0.1961  0.3407  0.0174
 3795TIP3    H132876   4.897   6.165   1.234 -0.5032 -0.4333  0.5561
 3795TIP3    H232877   5.022   6.146   1.317  0.9426  2.4502 -0.8085
 3796TIP3   OH232878   5.448   5.646   1.621 -0.1928 -0.2114 -0.0645
 3796TIP3    H132879   5.474   5.698   1.697 -0.6260 -1.0471  0.6678
 3796TIP3    H232880   5.384   5.700   1.575 -0.8222 -0.1978  0.8220
 3797TIP3   OH232881   2.736   3.982   4.647  0.4760 -0.2062  0.0403
 3797TIP3    H132882   2.740   4.038   4.725 -1.0454 -1.4995  1.1102
 3797TIP3    H232883   2.788   4.029   4.581  0.0717  1.9623  1.1746
 3798TIP3   OH232884   3.390   2.623  11.811 -0.0807  0.6759 -0.1680
 3798TIP3    H132885   3.358   2.660  11.729  0.9607  1.6754 -0.1465
 3798TIP3    H232886   3.385   2.695  11.874  1.2529  0.5968  0.0656
 3799TIP3   OH232887   3.310   2.542  13.273 -0.3224  0.0821 -0.1903
 3799TIP3    H132888   3.364   2.620  13.285 -1.0675  0.4330  0.9777
 3799TIP3    H232889   3.279   2.548  13.183  2.3736 -0.6596 -1.3013
 3800TIP3   OH232890   2.431   6.459  15.681  0.2178 -0.1155  0.2730
 3800TIP3    H132891   2.399   6.547  15.658  1.2045 -0.0075 -0.7396
 3800TIP3    H232892   2.452   6.418  15.597  0.3657 -1.0945  0.7746
 3801TIP3   OH232893   0.409   1.417   4.665  0.3237 -0.1745 -0.1514
 3801TIP3    H132894   0.415   1.321   4.657  0.8586 -0.1011 -0.7223
 3801TIP3    H232895   0.336   1.441   4.609 -1.7303 -0.4980  2.2056
 3802TIP3   OH232896   5.809   5.603   5.729 -0.3367 -0.2514  1.0762
 3802TIP3    H132897   5.751   5.671   5.697 -1.8269 -2.3996 -1.0586
 3802TIP3    H232898   5.797   5.604   5.824 -0.6161  2.1240  1.0600
 3803TIP3   OH232899   5.361   6.090  12.104 -0.3082 -0.3979  0.0543
 3803TIP3    H132900   5.332   6.092  12.013  0.3745 -2.6385 -0.2802
 3803TIP3    H232901   5.406   6.006  12.113  0.1024 -0.0048  2.3309
 3804TIP3   OH232902   0.034   0.137   2.412  0.2378  0.0776  0.0950
 3804TIP3    H132903   0.067   0.214   2.367 -1.4435 -0.1542 -1.6729
 3804TIP3    H232904   0.042   0.158   2.505 -0.2948  2.4645 -0.3348
 3805TIP3   OH232905   4.905   4.571  11.252  0.0795  0.3453  0.1072
 3805TIP3    H132906   4.942   4.533  11.172 -0.6594 -2.0586  0.8014
 3805TIP3    H232907   4.810   4.560  11.242 -0.0275  0.1441  1.2149
 3806TIP3   OH232908   6.241   6.409  17.236  0.0245  0.6881 -0.5944
 3806TIP3    H132909   6.254   6.499  17.204 -1.9488  1.8700  1.5794
 3806TIP3    H232910   6.229   6.419  17.330 -1.1262 -1.7954 -0.4015
 3807TIP3   OH232911   5.269   4.460   3.966  0.1901  0.0956 -0.1624
 3807TIP3    H132912   5.260   4.445   4.060  0.5444 -0.8566 -0.2721
 3807TIP3    H232913   5.179   4.462   3.934  0.0490  0.8406  0.2459
 3808TIP3   OH232914   4.391   2.530  12.579  0.3047 -0.0124  0.0888
 3808TIP3    H132915   4.358   2.440  12.590 -1.6179  0.3914 -1.6753
 3808TIP3    H232916   4.357   2.577  12.655  0.1091 -0.4708  0.2922
 3809TIP3   OH232917   3.887   5.208   5.869 -0.0844 -0.6840  0.3458
 3809TIP3    H132918   3.939   5.155   5.810 -1.9812 -0.2089 -1.9168
 3809TIP3    H232919   3.888   5.160   5.952  3.4049 -0.9204  0.3098
 3810TIP3   OH232920   3.808   5.810  13.279  0.2269 -0.4255 -0.0247
 3810TIP3    H132921   3.808   5.903  13.302  1.4394 -0.3039 -0.4434
 3810TIP3    H232922   3.872   5.770  13.337  0.0520 -0.9182 -0.1642
 3811TIP3   OH232923   4.493   6.063  16.245 -0.5746  0.3972 -0.1100
 3811TIP3    H132924   4.525   6.149  16.272  0.3964  0.6582 -1.9176
 3811TIP3    H232925   4.401   6.062  16.271  0.0807  0.7930  2.5892
 3812TIP3   OH232926   6.321   5.375  12.352  0.1529  0.5178  0.1664
 3812TIP3    H132927   6.347   5.342  12.438  1.0820  1.7185  0.3791
 3812TIP3    H232928   6.226   5.380  12.355  0.2378  3.0141  2.1518
 3813TIP3   OH232929   3.210   1.783  17.174 -0.0235 -0.0314  0.0001
 3813TIP3    H132930   3.230   1.844  17.103 -1.2933  0.5944  0.1484
 3813TIP3    H232931   3.294   1.744  17.197  0.1106 -2.0614 -3.4209
 3814TIP3   OH232932   1.310   5.579  16.507  0.0073 -0.1268  0.1899
 3814TIP3    H132933   1.269   5.661  16.478 -0.5346 -0.2089  0.7083
 3814TIP3    H232934   1.238   5.528  16.544 -0.0182 -1.5516 -1.6485
 3815TIP3   OH232935   2.742   0.482   1.070  0.6329  0.2029 -0.6481
 3815TIP3    H132936   2.662   0.431   1.085  0.4725  0.1759 -1.5176
 3815TIP3    H232937   2.784   0.486   1.155  1.3754 -2.6303 -0.7569
 3816TIP3   OH232938   2.918   3.604   2.804  0.1985 -0.2670  0.1584
 3816TIP3    H132939   2.827   3.600   2.834 -0.4199 -1.4244 -1.7092
 3816TIP3    H232940   2.956   3.520   2.831  0.2391 -0.4503 -0.4585
 3817TIP3   OH232941   4.978   1.180   1.652  0.8170  0.9082  0.4397
 3817TIP3    H132942   5.036   1.239   1.701  2.8325 -0.3750 -0.3094
 3817TIP3    H232943   4.939   1.124   1.719  1.3068  1.0438  0.8446
 3818TIP3   OH232944   3.435   2.658  12.302 -0.1644 -0.1637 -0.2062
 3818TIP3    H132945   3.396   2.729  12.251  1.2240  1.3529  0.7754
 3818TIP3    H232946   3.523   2.688  12.323  1.0574 -2.8201 -1.0208
 3819TIP3   OH232947   4.306   6.612  14.538 -0.1026  0.3539 -0.1220
 3819TIP3    H132948   4.226   6.665  14.533  0.5899  1.8823  2.6264
 3819TIP3    H232949   4.278   6.531  14.580 -0.4439  0.2531 -0.5330
 3820TIP3   OH232950   2.309   6.697  15.698  0.1599  0.3576 -0.3215
 3820TIP3    H132951   2.380   6.740  15.746 -0.0067 -0.7866  1.0034
 3820TIP3    H232952   2.229   6.724  15.744 -0.3405  1.7936 -1.9154
 3821TIP3   OH232953   2.593   1.188   2.753  0.2211 -0.0811 -0.0203
 3821TIP3    H132954   2.559   1.250   2.688 -2.5734 -1.3185  0.1186
 3821TIP3    H232955   2.661   1.139   2.706 -1.3621 -0.5948 -1.9405
 3822TIP3   OH232956   5.142   5.846  17.213  0.1045 -0.1262  0.4745
 3822TIP3    H132957   5.137   5.750  17.212  2.0175 -0.2555  0.3126
 3822TIP3    H232958   5.208   5.866  17.279 -0.9309  1.1491  1.1577
 3823TIP3   OH232959   3.194   2.840   1.397  0.6775 -0.2582 -0.0739
 3823TIP3    H132960   3.166   2.903   1.330  2.7467  0.2632 -0.5057
 3823TIP3    H232961   3.174   2.755   1.360 -0.1517  0.0750 -0.4200
 3824TIP3   OH232962   6.601   2.234  14.131 -0.3229 -0.4149 -0.2247
 3824TIP3    H132963   6.686   2.222  14.172 -0.6657  0.5366  0.8234
 3824TIP3    H232964   6.618   2.290  14.055  0.1149 -1.0166 -0.5714
 3825TIP3   OH232965   4.597   4.428  15.839  0.3315  0.2704  0.1514
 3825TIP3    H132966   4.517   4.375  15.838  0.8757 -0.5754 -1.5907
 3825TIP3    H232967   4.668   4.364  15.830  1.0331  1.2511 -1.6203
 3826TIP3   OH232968   6.042   2.578   0.418 -0.1664  0.5595  0.5003
 3826TIP3    H132969   6.015   2.548   0.505 -1.0454  0.9753  0.3829
 3826TIP3    H232970   5.968   2.629   0.386 -0.5694 -0.9598 -1.1837
 3827TIP3   OH232971   3.380   2.038   4.449 -0.3318 -0.4118 -0.4024
 3827TIP3    H132972   3.451   2.090   4.412 -1.3973  1.9836  0.7343
 3827TIP3    H232973   3.304   2.059   4.394 -0.9858  0.0065  0.6299
 3828TIP3   OH232974   3.682   0.691   1.835 -0.5854 -0.4697  1.2207
 3828TIP3    H132975   3.751   0.633   1.804 -0.9299 -2.5182  3.8805
 3828TIP3    H232976   3.688   0.769   1.779  3.6228 -0.6531  1.1262
 3829TIP3   OH232977   5.526   4.876  10.744  0.4259  0.1052 -0.3656
 3829TIP3    H132978   5.517   4.936  10.670 -1.1499  2.0052  1.2580
 3829TIP3    H232979   5.442   4.830  10.748  0.0733  0.8120  0.8430
 3830TIP3   OH232980   4.655   4.396   1.439  0.7927 -0.0639  0.2297
 3830TIP3    H132981   4.641   4.491   1.434  1.4473  0.0590  0.5012
 3830TIP3    H232982   4.657   4.378   1.533 -1.5267 -0.7170  0.2061
 3831TIP3   OH232983   3.842   6.099  12.366  0.3872  0.3718  0.1750
 3831TIP3    H132984   3.877   6.083  12.453 -0.4029 -0.0251  0.4315
 3831TIP3    H232985   3.881   6.182  12.340  1.5162 -0.0701  0.4290
 3832TIP3   OH232986   1.574   1.883   2.951 -0.0998 -0.1939  0.2695
 3832TIP3    H132987   1.528   1.953   2.998  0.6647  1.3166 -1.1333
 3832TIP3    H232988   1.665   1.913   2.946  0.1067 -0.9698 -0.9511
 3833TIP3   OH232989   3.383   2.666   3.903 -0.5836 -0.0301 -0.2058
 3833TIP3    H132990   3.417   2.577   3.898  0.3669  0.1733  1.5885
 3833TIP3    H232991   3.344   2.672   3.990  0.7669  1.7289  0.3509
 3834TIP3   OH232992   2.623   3.765  14.081  0.3243  0.2341 -0.6518
 3834TIP3    H132993   2.546   3.758  14.025 -0.6834  0.1098  0.6912
 3834TIP3    H232994   2.603   3.837  14.141  1.4402  0.4828 -0.5445
 3835TIP3   OH232995   3.545   0.699  13.217 -0.2504  0.1725  0.2967
 3835TIP3    H132996   3.596   0.618  13.221  0.2935  0.5087  0.2434
 3835TIP3    H232997   3.608   0.767  13.193 -0.2928  0.9461  2.1406
 3836TIP3   OH232998   5.319   3.971  14.326  0.3258  0.6054 -0.0676
 3836TIP3    H132999   5.322   4.054  14.374 -1.3062  0.2424  0.7556
 3836TIP3    H233000   5.268   3.991  14.247 -1.0327  0.1768  0.6695
 3837TIP3   OH233001   2.335   2.692   4.323  0.3352  0.1568 -0.7725
 3837TIP3    H133002   2.312   2.599   4.313  1.1082 -0.4293  1.9758
 3837TIP3    H233003   2.278   2.723   4.394  1.1938  1.3344 -0.5677
 3838TIP3   OH233004   3.374   5.136  11.187  0.5855 -0.0117 -0.7852
 3838TIP3    H133005   3.429   5.193  11.133 -1.0865  1.9370 -0.5554
 3838TIP3    H233006   3.433   5.103  11.255  1.9334  0.2704 -1.7761
 3839TIP3   OH233007   3.881   3.577   4.080  0.2112 -0.3078 -0.5929
 3839TIP3    H133008   3.876   3.654   4.023 -0.2110  1.0316  1.1589
 3839TIP3    H233009   3.791   3.559   4.104  0.4647  0.0043  0.6863
 3840TIP3   OH233010   1.375   2.182  14.578  0.7436 -0.1265 -0.2065
 3840TIP3    H133011   1.304   2.130  14.541  0.7427 -1.0957  1.0735
 3840TIP3    H233012   1.417   2.224  14.503  0.3026 -1.4303 -1.2093
 3841TIP3   OH233013   4.959   6.486  10.931 -0.3360 -0.4418  0.2853
 3841TIP3    H133014   4.909   6.560  10.897 -0.0774  0.7212  2.2395
 3841TIP3    H233015   4.963   6.423  10.859 -0.1708  1.6429 -1.6189
 3842TIP3   OH233016   6.558   4.751  12.553 -0.8336  0.7326 -0.0125
 3842TIP3    H133017   6.612   4.819  12.512 -1.5762  1.4191  0.1455
 3842TIP3    H233018   6.614   4.714  12.621 -0.4053  1.1498 -0.1322
 3843TIP3   OH233019   1.235   1.535  13.622 -0.1209 -0.0175  0.1929
 3843TIP3    H133020   1.220   1.581  13.705 -1.8243  1.8444 -1.0374
 3843TIP3    H233021   1.147   1.508  13.593  0.2506  0.5331 -1.5957
 3844TIP3   OH233022   3.084   5.735  11.232  0.1470  0.0151 -0.4683
 3844TIP3    H133023   3.107   5.758  11.142 -0.3748  1.0424 -0.3468
 3844TIP3    H233024   2.989   5.727  11.232 -0.0468  1.8385  0.3823
 3845TIP3   OH233025   2.189   0.444   5.493  0.0141 -0.2266  0.1634
 3845TIP3    H133026   2.279   0.467   5.469 -0.1053 -0.1077 -0.1779
 3845TIP3    H233027   2.170   0.499   5.569 -0.1761  0.6203 -0.4837
 3846TIP3   OH233028   0.586   4.295   5.755 -0.7248 -0.2239 -0.0859
 3846TIP3    H133029   0.545   4.332   5.677 -1.8439 -0.6567  0.2782
 3846TIP3    H233030   0.680   4.306   5.740 -0.7852 -1.8697 -2.3013
 3847TIP3   OH233031   3.653   3.656  13.446  0.1473  0.0960  0.2081
 3847TIP3    H133032   3.723   3.708  13.406 -0.2955 -0.0089 -0.7316
 3847TIP3    H233033   3.580   3.665  13.385 -0.8758  0.7359  1.4960
 3848TIP3   OH233034   4.331   0.279  12.602  0.2699  0.3840 -0.2285
 3848TIP3    H133035   4.320   0.342  12.531 -0.8294  0.4889  0.0021
 3848TIP3    H233036   4.252   0.290  12.656  1.7565  1.3952  1.9066
 3849TIP3   OH233037   2.308   1.823  13.008  0.4305 -0.6345 -0.0035
 3849TIP3    H133038   2.357   1.850  12.930 -2.9480 -0.1064 -2.1493
 3849TIP3    H233039   2.264   1.742  12.981 -1.9614  0.3240  0.7519
 3850TIP3   OH233040   0.787   1.599   1.281 -0.7457 -0.1589  0.2928
 3850TIP3    H133041   0.790   1.541   1.205  1.0677  1.4746 -0.9869
 3850TIP3    H233042   0.702   1.642   1.275 -1.9995 -2.3698  1.1057
 3851TIP3   OH233043   1.623   6.801   5.228  0.1421 -0.3370 -0.5877
 3851TIP3    H133044   1.682   6.797   5.303  0.0474 -0.6680 -0.5290
 3851TIP3    H233045   1.535   6.791   5.265  0.0286  0.4007 -0.6496
 3852TIP3   OH233046   5.239   1.447   5.897  0.3586 -0.2898 -0.5697
 3852TIP3    H133047   5.283   1.525   5.865 -0.0815  0.1053 -0.2311
 3852TIP3    H233048   5.303   1.404   5.953 -0.4054  1.5161  1.8457
 3853TIP3   OH233049   0.215   4.918  12.673 -0.4976 -0.4179  0.0213
 3853TIP3    H133050   0.305   4.949  12.680 -0.5380 -0.2304 -0.2597
 3853TIP3    H233051   0.222   4.822  12.679 -0.3143 -0.3876  0.3116
 3854TIP3   OH233052   0.027   1.395  14.284  0.8517  0.1969 -0.8070
 3854TIP3    H133053  -0.019   1.479  14.290  0.6212  0.0171  0.0358
 3854TIP3    H233054  -0.022   1.345  14.219 -0.8520 -0.4133  0.8495
 3855TIP3   OH233055   3.401   5.648   4.913  0.1431 -0.0887  0.3807
 3855TIP3    H133056   3.437   5.669   4.999  1.0413 -1.6581  0.4241
 3855TIP3    H233057   3.402   5.553   4.909 -2.5097 -0.1697 -0.2849
 3856TIP3   OH233058   2.086   5.748   3.993 -0.1305  0.4377  0.0388
 3856TIP3    H133059   2.153   5.710   4.050  1.4976  3.0780  0.0848
 3856TIP3    H233060   2.061   5.830   4.036 -1.1199  1.0126 -1.5347
 3857TIP3   OH233061   5.298   0.861   3.301 -0.0130 -0.0612 -0.3884
 3857TIP3    H133062   5.350   0.892   3.375 -0.8095 -1.2300  0.6995
 3857TIP3    H233063   5.310   0.766   3.301  0.5535 -0.0434 -2.2456
 3858TIP3   OH233064   5.771   6.039  14.959  0.0154  0.7067  0.9618
 3858TIP3    H133065   5.806   6.096  15.027  0.9571 -0.6226  1.6230
 3858TIP3    H233066   5.694   6.086  14.926 -1.6452  0.5676  4.2240
 3859TIP3   OH233067   4.277   1.680   0.970  0.2920 -0.0592  0.1180
 3859TIP3    H133068   4.253   1.758   1.020  1.4216  0.9542 -0.8824
 3859TIP3    H233069   4.238   1.608   1.020 -0.2688  1.0707  1.3912
 3860TIP3   OH233070   5.424   0.277   1.371 -0.7299  0.3017  0.5979
 3860TIP3    H133071   5.387   0.296   1.458 -0.6412  0.0348  0.6953
 3860TIP3    H233072   5.453   0.186   1.377 -0.2401  0.4465  0.4551
 3861TIP3   OH233073   2.427   1.220  11.503 -0.6353  0.2210  0.7195
 3861TIP3    H133074   2.468   1.260  11.427 -1.3094 -0.1440  0.1563
 3861TIP3    H233075   2.499   1.182  11.552 -0.4388 -2.7507 -1.6015
 3862TIP3   OH233076   6.756   2.073   3.570 -0.0280 -0.1194  0.1129
 3862TIP3    H133077   6.807   2.104   3.644 -0.0954  0.2169  0.0209
 3862TIP3    H233078   6.781   2.131   3.497 -0.0288 -0.3887 -0.1029
 3863TIP3   OH233079   2.871   5.156  13.992 -0.3551  0.3283  0.2024
 3863TIP3    H133080   2.834   5.068  13.982 -1.4336  0.6614  1.0639
 3863TIP3    H233081   2.825   5.208  13.926  0.0087  0.3335 -0.0506
 3864TIP3   OH233082   2.120   5.796   2.632  0.0443  0.3852  0.1362
 3864TIP3    H133083   2.164   5.717   2.602  0.2443  0.6547 -0.2916
 3864TIP3    H233084   2.096   5.842   2.552  0.0210  0.8062  0.3817
 3865TIP3   OH233085   6.684   1.626   3.656  0.0974  0.3449 -0.4740
 3865TIP3    H133086   6.644   1.613   3.742 -1.2040  0.8130 -0.9793
 3865TIP3    H233087   6.776   1.605   3.669 -0.6234 -2.9658  0.2385
 3866TIP3   OH233088   3.011   0.597  11.959 -0.2820  0.3307 -0.6963
 3866TIP3    H133089   3.005   0.647  11.878 -0.4888 -1.0959 -1.5996
 3866TIP3    H233090   2.928   0.613  12.004 -0.5865  0.3376 -1.2545
 3867TIP3   OH233091   1.357   3.974  13.841 -0.0112  0.1381  0.2804
 3867TIP3    H133092   1.327   4.054  13.797  0.2334  0.1245  0.0862
 3867TIP3    H233093   1.452   3.984  13.846 -0.0375  0.1360  0.8006
 3868TIP3   OH233094   2.996   6.675  12.408 -0.1206  0.0579 -0.2282
 3868TIP3    H133095   3.062   6.665  12.340 -0.0501  3.9070 -0.9551
 3868TIP3    H233096   3.046   6.688  12.488 -0.2047 -4.1397  0.7173
 3869TIP3   OH233097   2.599   5.546   4.044 -0.1002 -0.3319 -0.0310
 3869TIP3    H133098   2.504   5.552   4.057 -0.2327 -0.6980 -0.7728
 3869TIP3    H233099   2.633   5.629   4.078 -0.5324 -0.7267  1.4445
 3870TIP3   OH233100   4.114   4.963   5.853  0.0153  0.1096 -0.3422
 3870TIP3    H133101   4.116   4.913   5.935  0.2364  2.1806  1.0094
 3870TIP3    H233102   4.204   4.990   5.839  0.0692 -0.6528 -1.5928
 3871TIP3   OH233103   3.244   4.672   4.771 -0.3120  0.1563 -0.2095
 3871TIP3    H133104   3.167   4.677   4.714 -0.7873 -1.3216  0.2595
 3871TIP3    H233105   3.225   4.599   4.831  0.8579  0.6549  0.8159
 3872TIP3   OH233106   5.175   0.754  12.010  0.2581 -0.1760 -0.4839
 3872TIP3    H133107   5.177   0.846  12.038  0.4269 -0.5751  0.8980
 3872TIP3    H233108   5.136   0.707  12.085  0.0014 -1.2112 -1.2398
 3873TIP3   OH233109   5.883   1.659   1.211 -0.6991 -0.2583 -0.0029
 3873TIP3    H133110   5.890   1.753   1.192 -2.5734 -0.0415  0.1605
 3873TIP3    H233111   5.902   1.616   1.128  1.8356  0.1384  0.2892
 3874TIP3   OH233112   1.605   2.881   0.374 -0.9920  0.0571  0.2248
 3874TIP3    H133113   1.584   2.974   0.383  0.2796  0.5242 -1.2251
 3874TIP3    H233114   1.680   2.867   0.431 -2.5049 -0.6551  2.1758
 3875TIP3   OH233115   2.241   0.048   3.928  0.2206 -0.1763 -0.4432
 3875TIP3    H133116   2.316  -0.012   3.931 -1.6088 -2.6223 -1.0076
 3875TIP3    H233117   2.230   0.076   4.019  1.0507 -0.7576 -0.1455
 3876TIP3   OH233118   4.396   1.968  14.337  0.3246  0.1199 -0.4661
 3876TIP3    H133119   4.488   1.966  14.312  0.1388 -2.1402 -1.2848
 3876TIP3    H233120   4.396   1.988  14.430  1.9200 -2.6564  0.2593
 3877TIP3   OH233121   5.851   1.902   0.260  0.2287 -0.1091  0.6347
 3877TIP3    H133122   5.934   1.855   0.260 -0.1540 -0.8292 -0.3030
 3877TIP3    H233123   5.788   1.839   0.296 -0.2318 -0.2376 -0.3451
 3878TIP3   OH233124   0.793   4.888  12.476 -0.4486 -0.5363 -0.1625
 3878TIP3    H133125   0.802   4.927  12.563 -0.0207 -0.4713 -0.2306
 3878TIP3    H233126   0.704   4.853  12.474 -0.6864  0.0330  0.0674
 3879TIP3   OH233127   1.066   1.187   1.246  0.2397 -0.3121 -0.0088
 3879TIP3    H133128   1.137   1.250   1.228 -0.1911  0.2633  0.2674
 3879TIP3    H233129   1.015   1.228   1.316  0.4717 -1.3882  0.8208
 3880TIP3   OH233130   5.089   1.800  13.839 -1.0231  0.1446 -0.1571
 3880TIP3    H133131   5.033   1.825  13.766  0.1806 -1.2354 -1.6307
 3880TIP3    H233132   5.178   1.816  13.808 -0.4438 -1.2776  0.6540
 3881TIP3   OH233133   3.649   5.693  11.736 -0.0040  0.0679  0.1544
 3881TIP3    H133134   3.663   5.639  11.658  0.1799 -0.5275  0.5876
 3881TIP3    H233135   3.700   5.649  11.804 -1.9130 -0.7033  1.1688
 3882TIP3   OH233136   1.411   3.680  13.266  0.2951  0.0052  0.1301
 3882TIP3    H133137   1.483   3.629  13.302  0.7300  0.2536 -0.3790
 3882TIP3    H233138   1.450   3.765  13.245 -0.2568  0.3048  0.3008
 3883TIP3   OH233139   1.239   2.507  14.622 -0.2607  0.0844 -0.0503
 3883TIP3    H133140   1.288   2.494  14.703 -0.4495  0.3093  0.1020
 3883TIP3    H233141   1.305   2.536  14.559  0.3564 -2.4358 -0.6672
 3884TIP3   OH233142   0.009   3.873  14.651  0.5064 -0.4793  0.1365
 3884TIP3    H133143  -0.050   3.803  14.683  0.5836 -0.9975 -0.8281
 3884TIP3    H233144   0.030   3.847  14.561  2.2272 -0.3096  0.4621
 3885TIP3   OH233145   5.838   1.814   2.691 -0.4102  0.5845  0.4789
 3885TIP3    H133146   5.912   1.790   2.636 -0.7546 -1.7899  0.9176
 3885TIP3    H233147   5.876   1.860   2.765  0.3073  1.6525 -0.5141
 3886TIP3   OH233148   1.173   3.638   2.029 -0.7089 -0.9342  0.1251
 3886TIP3    H133149   1.235   3.570   2.058  0.3928 -0.3425 -0.7557
 3886TIP3    H233150   1.147   3.683   2.109  0.4860 -0.8117  0.4611
 3887TIP3   OH233151   2.892   3.955   6.154 -0.2047  0.1174 -0.0447
 3887TIP3    H133152   2.880   4.034   6.208  0.4166  0.6903 -0.7216
 3887TIP3    H233153   2.804   3.922   6.140 -0.3335 -0.7849  2.3668
 3888TIP3   OH233154   1.415   5.532   3.830 -0.0289 -0.3308 -0.2591
 3888TIP3    H133155   1.458   5.613   3.804 -1.4777  0.7799  0.6335
 3888TIP3    H233156   1.484   5.479   3.869  1.6950 -1.0080 -3.8031
 3889TIP3   OH233157   2.347   2.911  16.826 -0.3049 -0.2062 -0.3663
 3889TIP3    H133158   2.283   2.950  16.885 -0.3160  0.4291 -0.7949
 3889TIP3    H233159   2.296   2.857  16.766 -0.4340  0.2140 -0.6386
 3890TIP3   OH233160   3.234   4.315   3.845 -0.1255  0.1763  0.4408
 3890TIP3    H133161   3.230   4.387   3.909  0.2926  2.1255 -1.6119
 3890TIP3    H233162   3.328   4.300   3.832 -0.2098 -0.3099  0.3608
 3891TIP3   OH233163   4.110   1.411  16.259  0.7164 -0.0138 -0.3742
 3891TIP3    H133164   4.146   1.473  16.322  2.8411 -0.5130 -1.0100
 3891TIP3    H233165   4.111   1.327  16.304 -0.9875  0.1596  0.0546
 3892TIP3   OH233166   1.504   0.534  13.329  0.3295 -0.0824 -0.0840
 3892TIP3    H133167   1.535   0.443  13.325  3.5342  0.8374  0.8600
 3892TIP3    H233168   1.503   0.555  13.423  0.6885  1.1435 -0.3363
 3893TIP3   OH233169   5.350   3.525   0.819 -0.4104  0.0780  0.0347
 3893TIP3    H133170   5.292   3.454   0.792  1.1103 -1.3659  0.4400
 3893TIP3    H233171   5.394   3.552   0.738 -1.5276  1.1117 -0.2561
 3894TIP3   OH233172   3.067   0.247  11.407 -0.2006 -0.7796  0.0569
 3894TIP3    H133173   3.016   0.172  11.438 -1.4271 -0.8720 -1.9491
 3894TIP3    H233174   3.086   0.226  11.315 -0.1773  1.1296 -0.4192
 3895TIP3   OH233175   4.578   5.927   4.894  0.3075  0.1104 -0.2307
 3895TIP3    H133176   4.657   5.981   4.898  1.3159 -1.2899 -0.6507
 3895TIP3    H233177   4.534   5.945   4.977  0.6338  1.5174 -0.3309
 3896TIP3   OH233178   6.561   4.550  14.494 -0.2801  0.5029  0.1459
 3896TIP3    H133179   6.529   4.640  14.503 -1.9412 -0.1887  1.8837
 3896TIP3    H233180   6.656   4.557  14.502 -0.4810  1.9632  1.8987
 3897TIP3   OH233181   5.635   5.108  16.271 -0.6216  0.2037 -0.3137
 3897TIP3    H133182   5.594   5.137  16.353 -0.9242 -0.5094 -0.2001
 3897TIP3    H233183   5.724   5.082  16.297 -0.1664  1.4812 -0.5077
 3898TIP3   OH233184   3.509   0.146   2.589  0.8218 -0.0977  0.3725
 3898TIP3    H133185   3.604   0.150   2.595  0.8695 -1.9596  1.9922
 3898TIP3    H233186   3.485   0.220   2.534  3.2133  0.2697 -0.2846
 3899TIP3   OH233187   6.648   6.186  14.429  0.3390  0.0221 -0.3379
 3899TIP3    H133188   6.562   6.226  14.437 -0.3174 -1.0377 -1.6584
 3899TIP3    H233189   6.693   6.209  14.510 -0.2365  2.7773 -0.7089
 3900TIP3   OH233190   1.918   0.290   2.738 -0.4595 -0.1738 -0.0169
 3900TIP3    H133191   1.962   0.320   2.818 -0.7720  1.5175 -0.4589
 3900TIP3    H233192   1.825   0.292   2.760 -0.4982 -0.6207 -0.1322
 3901TIP3   OH233193   1.523   1.371   4.483  0.3264 -0.5657 -0.4324
 3901TIP3    H133194   1.612   1.334   4.479  1.9745  2.5927  1.8907
 3901TIP3    H233195   1.525   1.443   4.420 -1.5214 -1.8680 -2.1090
 3902TIP3   OH233196   1.657   5.263   4.209  0.0562 -0.0117 -0.3332
 3902TIP3    H133197   1.709   5.219   4.276  0.5357  0.3696 -0.4499
 3902TIP3    H233198   1.570   5.223   4.216  0.2302 -0.3073  0.1928
 3903TIP3   OH233199   1.570   4.915   1.940  0.0537 -0.3756  0.0862
 3903TIP3    H133200   1.516   4.836   1.938 -2.4850  1.2293  0.3462
 3903TIP3    H233201   1.600   4.921   2.031 -2.0604  0.3224  0.8015
 3904TIP3   OH233202   5.105   6.125   2.698  0.0893  0.0695  0.5071
 3904TIP3    H133203   5.100   6.213   2.660  0.1128 -0.6205 -1.1734
 3904TIP3    H233204   5.013   6.102   2.716  0.0853  0.4375  0.9712
 3905TIP3   OH233205   0.063   1.892  12.810 -0.1914 -0.1925  0.2434
 3905TIP3    H133206  -0.001   1.820  12.813 -2.0523  1.2873 -1.2733
 3905TIP3    H233207   0.030   1.955  12.875  0.2968  0.1734  0.1384
 3906TIP3   OH233208   0.595   5.834  17.291 -0.0531 -0.5430 -0.6108
 3906TIP3    H133209   0.575   5.769  17.224  0.0606  0.2652 -1.4511
 3906TIP3    H233210   0.677   5.803  17.329  0.9787  0.0181 -2.2474
 3907TIP3   OH233211   3.051   1.108   2.586 -0.6232  0.0382  0.7524
 3907TIP3    H133212   3.107   1.173   2.629 -0.8411 -0.4603  1.8151
 3907TIP3    H233213   2.964   1.124   2.621 -0.7354 -0.6243  0.7893
 3908TIP3   OH233214   4.290   1.793   3.973 -0.1425  0.4251  0.0990
 3908TIP3    H133215   4.348   1.720   3.997 -0.2436  0.1258 -0.5409
 3908TIP3    H233216   4.223   1.753   3.917 -0.1913  1.0093 -0.2718
 3909TIP3   OH233217   5.343   0.632  15.857 -0.3731  0.5144  0.1958
 3909TIP3    H133218   5.259   0.619  15.901 -0.3777  2.2469  0.7483
 3909TIP3    H233219   5.320   0.645  15.765 -0.5733 -0.5029  0.0901
 3910TIP3   OH233220   5.244   6.585   4.550 -0.5661  0.1992  0.0488
 3910TIP3    H133221   5.292   6.504   4.567 -0.8670  0.0355  0.1429
 3910TIP3    H233222   5.254   6.600   4.456  0.7919  0.9009  0.2889
 3911TIP3   OH233223   6.179   1.139   0.528 -0.1042  0.1240 -0.2161
 3911TIP3    H133224   6.170   1.230   0.558 -0.2219  0.7077 -1.9322
 3911TIP3    H233225   6.160   1.087   0.606 -1.1608  1.5513  0.5448
 3912TIP3   OH233226   4.161   6.548  13.722  0.4764  0.0912 -0.1435
 3912TIP3    H133227   4.247   6.581  13.698  1.3128 -1.9243 -0.1511
 3912TIP3    H233228   4.169   6.524  13.814  0.1772 -0.8014 -0.3399
 3913TIP3   OH233229   2.164   4.869   1.027 -0.4528  0.8231  0.1065
 3913TIP3    H133230   2.217   4.872   0.947 -1.1822  1.1433 -0.3775
 3913TIP3    H233231   2.125   4.956   1.033 -1.0948  0.5254  0.3255
 3914TIP3   OH233232   0.608   6.784  11.169 -0.2198  0.8442 -0.1278
 3914TIP3    H133233   0.663   6.709  11.146  0.3410  1.9593 -2.6521
 3914TIP3    H233234   0.556   6.752  11.243 -0.1641 -2.1256 -1.2097
 3915TIP3   OH233235   4.597   4.871   0.707  0.2319  0.3241  0.0867
 3915TIP3    H133236   4.625   4.803   0.768  0.6808 -0.4239 -0.9134
 3915TIP3    H233237   4.651   4.856   0.629 -0.1490  1.4049 -0.4034
 3916TIP3   OH233238   0.819   4.392   0.997  0.0942 -0.2232  0.2978
 3916TIP3    H133239   0.839   4.300   1.015 -1.0024 -0.7288 -0.9255
 3916TIP3    H233240   0.880   4.417   0.928 -0.1818 -0.2970  0.0246
 3917TIP3   OH233241   3.266   5.369  10.942  0.0233  0.6226  0.5607
 3917TIP3    H133242   3.284   5.380  10.849 -3.2684 -1.0221 -0.4383
 3917TIP3    H233243   3.178   5.405  10.955 -1.2149 -2.5383  2.0980
 3918TIP3   OH233244   4.848   2.291  13.076 -0.2660 -0.3324  0.4656
 3918TIP3    H133245   4.897   2.214  13.045  0.0913 -0.1839  0.6611
 3918TIP3    H233246   4.913   2.344  13.121 -0.8308 -0.6556  1.6965
 3919TIP3   OH233247   0.266   3.024   0.804 -0.2341  0.1511  0.0238
 3919TIP3    H133248   0.248   3.012   0.898 -0.8143  0.4510 -0.0395
 3919TIP3    H233249   0.181   3.049   0.767  0.0471  0.2883 -0.5395
 3920TIP3   OH233250   3.818   0.762  13.218 -0.6499 -0.1504  0.2538
 3920TIP3    H133251   3.897   0.709  13.232  0.2997 -0.0037 -3.4903
 3920TIP3    H233252   3.845   0.851  13.241 -0.0541 -0.2680  0.0404
 3921TIP3   OH233253   6.529   5.286  15.921 -0.0133 -0.0642 -0.2027
 3921TIP3    H133254   6.598   5.325  15.867 -1.0774  1.0390 -0.8276
 3921TIP3    H233255   6.447   5.323  15.886 -0.9326 -1.3789  0.4668
 3922TIP3   OH233256   0.592   1.992  11.195 -0.2771 -0.7147  0.0456
 3922TIP3    H133257   0.596   1.897  11.203 -1.3980 -0.9606 -1.6956
 3922TIP3    H233258   0.498   2.012  11.204  0.0107  0.3107  0.9916
 3923TIP3   OH233259   4.623   1.312  16.167 -0.9474 -0.1554  0.0454
 3923TIP3    H133260   4.596   1.404  16.173 -1.9655 -0.4808  0.8254
 3923TIP3    H233261   4.654   1.302  16.077  1.0043  1.4182  0.4706
 3924TIP3   OH233262   4.938   4.044   0.403 -0.0487 -0.0964  0.4352
 3924TIP3    H133263   4.845   4.054   0.384 -0.3996 -0.6639  1.7428
 3924TIP3    H233264   4.944   3.963   0.454  0.9847  0.5737  1.4260
 3925TIP3   OH233265   4.393   4.223  16.062 -0.0775 -0.1760  0.0886
 3925TIP3    H133266   4.376   4.169  15.985 -0.8610  0.1966 -0.0116
 3925TIP3    H233267   4.486   4.246  16.056 -0.0650 -0.3918 -0.5850
 3926TIP3   OH233268   2.444   3.246  11.131 -0.2336  0.3598 -0.2621
 3926TIP3    H133269   2.474   3.157  11.146 -1.1544 -0.2717 -1.8755
 3926TIP3    H233270   2.455   3.259  11.036  0.6343  2.2510  0.0583
 3927TIP3   OH233271   6.066   2.355   2.167 -0.2850  0.0713 -0.4800
 3927TIP3    H133272   5.995   2.299   2.199  0.1193 -0.7981 -1.0606
 3927TIP3    H233273   6.127   2.361   2.240  1.9499 -4.0616 -1.7227
 3928TIP3   OH233274   3.918   6.330   4.677  0.2013 -0.6379  0.6246
 3928TIP3    H133275   3.966   6.371   4.605 -2.3377  0.2284 -0.6795
 3928TIP3    H233276   3.944   6.380   4.755  3.6938 -2.1560  0.6367
 3929TIP3   OH233277   5.276   4.506   0.354  0.3865  0.6275 -0.3642
 3929TIP3    H133278   5.340   4.459   0.300  0.5525 -0.0657  0.4165
 3929TIP3    H233279   5.206   4.443   0.369 -0.3337  1.2850 -0.9432
 3930TIP3   OH233280   2.485   6.096  13.277  0.0888  0.3261 -0.5058
 3930TIP3    H133281   2.506   6.043  13.201  0.7967  0.5664 -0.4823
 3930TIP3    H233282   2.402   6.061  13.309  0.2065 -0.3135 -0.8927
 3931TIP3   OH233283   6.500   5.780  14.556 -0.1192 -0.2737 -0.0421
 3931TIP3    H133284   6.552   5.851  14.519 -2.1310  0.9141 -0.7901
 3931TIP3    H233285   6.443   5.823  14.620 -0.8842 -1.3118  0.0115
 3932TIP3   OH233286   4.108   2.639   5.515 -0.3970  0.0545  0.5106
 3932TIP3    H133287   4.051   2.570   5.481  1.5895 -0.5882 -1.7102
 3932TIP3    H233288   4.095   2.713   5.456  0.3922  0.2149  0.5299
 3933TIP3   OH233289   1.459   3.141  13.249 -0.5471 -0.2954 -0.4180
 3933TIP3    H133290   1.528   3.131  13.314  0.1915 -1.1128 -1.3154
 3933TIP3    H233291   1.381   3.103  13.290 -0.3283  0.0696  0.3498
 3934TIP3   OH233292   3.249   2.738  11.289 -0.0376 -0.1717  0.2361
 3934TIP3    H133293   3.333   2.742  11.243  0.6035 -2.3033  1.1028
 3934TIP3    H233294   3.192   2.689  11.230  0.1038 -0.8928  0.6778
 3935TIP3   OH233295   1.851   5.988   5.220 -0.0099 -0.7646 -0.2127
 3935TIP3    H133296   1.872   5.983   5.127 -0.0449 -0.6910 -0.2247
 3935TIP3    H233297   1.813   6.076   5.232  1.0293 -0.3396  0.0744
 3936TIP3   OH233298   1.713   3.305   3.991 -0.7851  0.1923 -0.0702
 3936TIP3    H133299   1.664   3.347   4.061 -0.5774  1.6153 -0.7434
 3936TIP3    H233300   1.805   3.314   4.018 -0.7372  0.1042 -0.2023
 3937TIP3   OH233301   0.135   6.015  17.295  0.5105  0.2086 -0.5598
 3937TIP3    H133302   0.074   5.997  17.223 -0.5329  0.6226  0.1996
 3937TIP3    H233303   0.218   6.033  17.251  0.5128 -1.8539 -1.5563
 3938TIP3   OH233304   6.038   5.220  13.339 -0.1499  0.1879 -0.0143
 3938TIP3    H133305   6.025   5.303  13.385 -0.7324 -0.2164  0.5769
 3938TIP3    H233306   6.132   5.216  13.321 -0.3827  1.9625 -1.9630
 3939TIP3   OH233307   4.068   5.981   3.701 -0.4396  0.2895 -0.6610
 3939TIP3    H133308   4.143   5.949   3.750 -0.9416  1.9594  1.3313
 3939TIP3    H233309   3.999   5.917   3.719 -0.9050  1.3730  1.7420
 3940TIP3   OH233310   0.619   4.114   2.300 -0.1159 -0.0647 -0.2659
 3940TIP3    H133311   0.587   4.035   2.257  1.6931 -0.6667 -0.6214
 3940TIP3    H233312   0.624   4.090   2.393  0.8947 -0.5912 -0.4307
 3941TIP3   OH233313   1.742   4.603   2.877 -0.3507 -0.0314  0.2533
 3941TIP3    H133314   1.782   4.640   2.798 -1.2008 -0.7392 -0.5308
 3941TIP3    H233315   1.755   4.670   2.944  0.2686  0.6434 -0.5180
 3942TIP3   OH233316   4.944   4.140  16.629 -0.4569  0.0767  0.3684
 3942TIP3    H133317   5.011   4.143  16.560  0.0742 -1.3092  0.7863
 3942TIP3    H233318   4.943   4.228  16.665 -1.4327  1.1532 -2.0294
 3943TIP3   OH233319   3.243   3.962  15.583  0.2805 -0.2066  0.3068
 3943TIP3    H133320   3.292   3.949  15.502  0.3648  0.5907  0.2186
 3943TIP3    H233321   3.181   4.032  15.563 -1.5195 -1.7685  0.1531
 3944TIP3   OH233322   1.106   3.122  11.256 -0.3152 -0.4342 -0.1525
 3944TIP3    H133323   1.044   3.144  11.186 -0.5470 -0.0459  0.1693
 3944TIP3    H233324   1.186   3.098  11.211 -0.6089 -0.6537 -0.5667
 3945TIP3   OH233325   5.919   6.061   1.098  0.9066  0.0279 -0.5109
 3945TIP3    H133326   5.978   6.043   1.171  1.5449 -2.5818 -1.5472
 3945TIP3    H233327   5.887   5.975   1.071 -2.7492  1.2467 -0.5974
 3946TIP3   OH233328   0.583   2.219   6.479 -0.2206 -0.2222 -0.5692
 3946TIP3    H133329   0.663   2.216   6.426  0.9009  0.0617  1.0244
 3946TIP3    H233330   0.512   2.205   6.417  1.0493 -0.1635 -2.0874
 3947TIP3   OH233331   6.362   5.500   1.076  0.0544  0.1430  0.0654
 3947TIP3    H133332   6.414   5.470   1.151 -1.8448 -3.0819  0.2709
 3947TIP3    H233333   6.381   5.436   1.008 -3.0913 -0.8372 -0.0225
 3948TIP3   OH233334   4.049   2.384   6.026  0.0906 -0.1069  0.3861
 3948TIP3    H133335   4.019   2.295   6.006 -1.1177  0.3928 -0.1222
 3948TIP3    H233336   4.050   2.388   6.121 -1.4508 -0.1624  0.4221
 3949TIP3   OH233337   5.845   2.029  11.125 -0.4109 -0.3615  0.3295
 3949TIP3    H133338   5.780   2.005  11.191 -0.8352 -1.1755 -0.3622
 3949TIP3    H233339   5.807   2.105  11.080 -2.3553 -2.5646 -2.0385
 3950TIP3   OH233340   2.522   2.643  17.266  1.1936  0.0294  0.1342
 3950TIP3    H133341   2.596   2.696  17.238  1.4917 -1.5963 -2.6031
 3950TIP3    H233342   2.447   2.680  17.220  0.7948  0.0553  0.7973
 3951TIP3   OH233343   2.242   4.299   1.923 -0.1817 -0.1915 -0.1396
 3951TIP3    H133344   2.207   4.213   1.901  1.6713 -1.1704  0.5248
 3951TIP3    H233345   2.316   4.281   1.981 -0.0507  1.8852  0.4227
 3952TIP3   OH233346   1.924   1.181  12.672 -0.2902  0.3708  0.5454
 3952TIP3    H133347   1.851   1.147  12.724 -0.7266  1.1004  0.4105
 3952TIP3    H233348   1.897   1.269  12.647  1.0343  1.0266  1.3063
 3953TIP3   OH233349   5.257   1.406   4.559  0.0225  0.0941  0.0724
 3953TIP3    H133350   5.215   1.488   4.532 -1.0913 -0.3241  0.4751
 3953TIP3    H233351   5.186   1.342   4.558  0.7353 -0.7136  0.4372
 3954TIP3   OH233352   5.353   2.941  11.188  0.2958  0.4835  0.7249
 3954TIP3    H133353   5.263   2.908  11.184  0.5809 -0.4692  1.7769
 3954TIP3    H233354   5.407   2.862  11.195  1.2001  1.0590  0.4116
 3955TIP3   OH233355   2.251   3.673   4.496 -0.2046 -0.3671  0.7556
 3955TIP3    H133356   2.324   3.615   4.519  0.0138 -0.4525 -0.1423
 3955TIP3    H233357   2.186   3.657   4.565  0.9240  0.2834  2.0290
 3956TIP3   OH233358   2.532   3.108   3.161 -0.3016 -0.0986 -0.4636
 3956TIP3    H133359   2.520   3.014   3.168  0.7331 -0.1380  1.3862
 3956TIP3    H233360   2.509   3.142   3.248  1.9005  1.0238 -0.2450
 3957TIP3   OH233361   4.977   3.812  12.098 -0.2287  0.1886  0.1429
 3957TIP3    H133362   5.021   3.728  12.094 -0.0611  0.3147 -1.6381
 3957TIP3    H233363   4.884   3.791  12.085 -0.0442  0.3433 -1.6926
 3958TIP3   OH233364   2.819   3.781  14.400 -0.2245  0.3045  0.0682
 3958TIP3    H133365   2.845   3.834  14.476  0.1361  1.1093 -0.5901
 3958TIP3    H233366   2.797   3.846  14.333 -1.1120 -0.3963 -0.3253
 3959TIP3   OH233367   2.509   2.637  14.468 -0.4466 -0.1754 -0.3799
 3959TIP3    H133368   2.497   2.694  14.392  0.8148  1.5716  0.6567
 3959TIP3    H233369   2.592   2.665  14.506 -1.3246 -0.5850  1.9923
 3960TIP3   OH233370   2.450   6.285   2.879  0.3872  0.2705  0.3250
 3960TIP3    H133371   2.368   6.319   2.841  1.2899 -0.3963 -2.4704
 3960TIP3    H233372   2.513   6.291   2.807  1.6913 -3.2276  1.0245
 3961TIP3   OH233373   6.407   3.804  16.292  0.4700  0.2700 -0.1640
 3961TIP3    H133374   6.386   3.878  16.234 -1.7746  0.2985  0.5778
 3961TIP3    H233375   6.455   3.844  16.364 -0.3381  0.9698  0.0098
 3962TIP3   OH233376   3.806   5.738   3.538 -0.0664  0.0508 -0.0580
 3962TIP3    H133377   3.825   5.777   3.453 -0.2349 -0.3335 -0.2783
 3962TIP3    H233378   3.772   5.810   3.590  2.4709  0.9027  0.5463
 3963TIP3   OH233379   4.127   4.464   1.994  0.0634 -0.3328  0.0219
 3963TIP3    H133380   4.159   4.374   1.989  2.6713  0.3149  2.4466
 3963TIP3    H233381   4.166   4.507   1.917  0.6042 -0.7895  0.0338
 3964TIP3   OH233382   5.405   2.403   1.296  0.0803  0.2599 -0.1669
 3964TIP3    H133383   5.386   2.389   1.204  0.4662  0.2001 -0.2399
 3964TIP3    H233384   5.448   2.489   1.299  1.9954 -0.6344 -0.3261
 3965TIP3   OH233385   5.849   2.910  17.192  0.2110  0.0025  0.4912
 3965TIP3    H133386   5.778   2.971  17.173 -0.1416 -0.4850  0.1903
 3965TIP3    H233387   5.869   2.924  17.284  2.2489  2.7402 -0.2624
 3966TIP3   OH233388   3.259   1.947  16.961 -0.5387 -0.7568  0.1258
 3966TIP3    H133389   3.208   1.935  16.880 -0.1522 -2.4678  0.0973
 3966TIP3    H233390   3.336   1.996  16.933 -0.8636 -0.5129 -0.3641
 3967TIP3   OH233391   6.381   4.517   4.421 -0.2893  0.2556 -0.2512
 3967TIP3    H133392   6.439   4.513   4.497 -0.6947 -1.6742 -0.0136
 3967TIP3    H233393   6.313   4.579   4.447  1.0283  1.7288 -0.1259
 3968TIP3   OH233394   0.100   6.053  14.162 -0.4314 -0.4191 -0.7745
 3968TIP3    H133395   0.163   6.122  14.141 -1.1078  0.4375 -0.0110
 3968TIP3    H233396   0.119   6.030  14.253 -0.8977 -0.5098 -0.6977
 3969TIP3   OH233397   2.037   2.605   0.416 -0.5541 -0.0876  0.3298
 3969TIP3    H133398   2.078   2.683   0.454 -1.9009  0.9310 -0.2157
 3969TIP3    H233399   1.957   2.593   0.467 -0.4060 -1.0779  0.3481
 3970TIP3   OH233400   4.950   5.010   3.832  0.9279 -0.3257 -0.7119
 3970TIP3    H133401   4.936   5.088   3.885 -0.5308 -1.3180  0.4603
 3970TIP3    H233402   4.965   5.043   3.744 -2.1846  1.2852 -0.7928
 3971TIP3   OH233403   0.501   1.845   3.640 -0.5058  0.0388 -1.0500
 3971TIP3    H133404   0.527   1.889   3.721 -2.9504  1.7986 -1.1067
 3971TIP3    H233405   0.508   1.752   3.660 -1.0182  0.4187  1.1874
 3972TIP3   OH233406   5.616   1.372   3.768  0.1604 -0.1009  0.2597
 3972TIP3    H133407   5.552   1.383   3.839 -0.3579 -0.0708 -0.2074
 3972TIP3    H233408   5.576   1.415   3.693  0.4667 -0.6096 -0.1985
 3973TIP3   OH233409   1.706   0.169  14.699  0.0452 -0.0768  0.1134
 3973TIP3    H133410   1.693   0.264  14.698  2.9743  0.4198  0.3847
 3973TIP3    H233411   1.669   0.140  14.615 -1.2757  1.2005  0.2010
 3974TIP3   OH233412   2.491   0.203   5.414 -0.0771  0.2555  0.4232
 3974TIP3    H133413   2.571   0.165   5.450 -0.5938  0.2546  1.6317
 3974TIP3    H233414   2.508   0.297   5.413 -0.4691  0.3671  1.8213
 3975TIP3   OH233415   6.101   5.793  17.273  0.5289 -0.0904 -0.1326
 3975TIP3    H133416   6.158   5.716  17.279 -0.0272 -0.3615  2.8500
 3975TIP3    H233417   6.150   5.862  17.318  0.0261  0.6798 -0.7562
 3976TIP3   OH233418   5.863   2.469   3.002  0.0536 -0.0422  0.4844
 3976TIP3    H133419   5.823   2.382   3.003 -1.4598  0.6346  1.7721
 3976TIP3    H233420   5.921   2.467   2.926 -0.7837 -1.8001 -0.1678
 3977TIP3   OH233421   0.336   5.042   5.568  0.9683 -0.0897 -0.0262
 3977TIP3    H133422   0.394   5.089   5.508  1.9861  0.6180  1.4616
 3977TIP3    H233423   0.257   5.025   5.516  1.3169  1.6053 -1.1971
 3978TIP3   OH233424   2.415   0.089   5.128  0.1278 -0.0127 -0.1740
 3978TIP3    H133425   2.424   0.184   5.133 -1.3128  0.0774  1.9779
 3978TIP3    H233426   2.337   0.075   5.074  0.1158  0.0323 -0.1688
 3979TIP3   OH233427   2.872   3.762  14.971 -0.3791 -0.0114 -0.5626
 3979TIP3    H133428   2.869   3.671  15.001 -1.5602  0.2669  0.2201
 3979TIP3    H233429   2.882   3.813  15.051 -0.7975  0.6018 -0.8983
 3980TIP3   OH233430   5.874   4.762   6.046  0.4244  0.2595 -0.5354
 3980TIP3    H133431   5.814   4.786   5.976 -0.0394 -2.0415 -1.0051
 3980TIP3    H233432   5.824   4.780   6.126  0.8008  2.4934 -0.7401
 3981TIP3   OH233433   4.335   3.262  12.734 -0.1453  0.0964  0.1900
 3981TIP3    H133434   4.245   3.246  12.762 -0.7657  0.5653 -1.4166
 3981TIP3    H233435   4.358   3.185  12.683  0.2814  0.0823  0.4037
 3982TIP3   OH233436   6.047   5.110  14.322  0.1057 -0.0730  0.4190
 3982TIP3    H133437   6.043   5.017  14.299 -0.9705 -0.5919  2.4429
 3982TIP3    H233438   5.960   5.144  14.300 -0.0892  0.0194  1.2946
 3983TIP3   OH233439   0.976   4.709   3.872 -0.3316  0.1950  0.3645
 3983TIP3    H133440   0.998   4.634   3.816 -0.6231  1.0180 -0.8947
 3983TIP3    H233441   1.035   4.778   3.843  1.1869 -0.0182  2.7298
 3984TIP3   OH233442   3.895   3.295   6.032 -0.2397  0.4514  0.3189
 3984TIP3    H133443   3.899   3.358   6.104  0.7397  1.7272 -0.8014
 3984TIP3    H233444   3.969   3.235   6.048 -1.9483 -1.3228  2.1141
 3985TIP3   OH233445   0.713   2.544   2.232 -0.0851  0.2378  0.1212
 3985TIP3    H133446   0.706   2.567   2.139  1.7480  0.2334 -0.0469
 3985TIP3    H233447   0.746   2.624   2.274  1.6925 -0.5580  0.3075
 3986TIP3   OH233448   4.138   1.785   1.889 -0.2440  0.2446  0.1128
 3986TIP3    H133449   4.114   1.703   1.932 -0.3129  0.2568  0.0981
 3986TIP3    H233450   4.102   1.853   1.947 -1.3986  0.2484 -0.5760
 3987TIP3   OH233451   5.892   4.911  12.095  0.0499  0.0229 -0.1206
 3987TIP3    H133452   5.924   4.998  12.117 -1.1946  0.3850  0.3106
 3987TIP3    H233453   5.966   4.853  12.112  0.2867  0.7517  1.4789
 3988TIP3   OH233454   3.902   2.832  14.505  0.6620 -0.2782  0.4398
 3988TIP3    H133455   3.991   2.797  14.495  0.5136 -0.6071  0.2692
 3988TIP3    H233456   3.906   2.887  14.583  0.7483 -1.1247  1.0305
 3989TIP3   OH233457   1.329   1.854   2.180  0.0803 -0.0022  0.0202
 3989TIP3    H133458   1.403   1.914   2.178 -0.1221  0.2406 -0.8544
 3989TIP3    H233459   1.289   1.863   2.093 -0.1195 -1.1916 -0.0258
 3990TIP3   OH233460   1.223   6.210   5.563  0.8139  0.1990  0.3125
 3990TIP3    H133461   1.309   6.251   5.569  1.2815 -0.9285  1.7117
 3990TIP3    H233462   1.214   6.159   5.643 -0.6536 -0.6888 -0.3636
 3991TIP3   OH233463   1.020   6.392  10.187  0.1407  0.0654  0.5748
 3991TIP3    H133464   1.114   6.391  10.170  0.3465 -0.2598  1.6490
 3991TIP3    H233465   0.992   6.302  10.172 -0.3824  0.5370 -1.6050
 3992TIP3   OH233466   6.463   2.330   4.584 -0.2211  0.1740 -0.5363
 3992TIP3    H133467   6.457   2.315   4.489 -0.9350  0.5953 -0.5701
 3992TIP3    H233468   6.467   2.243   4.622 -2.5764 -0.1370 -0.8159
 3993TIP3   OH233469   5.843   0.694   6.691 -0.4399  0.2370 -0.2745
 3993TIP3    H133470   5.869   0.627   6.628 -1.5357 -1.7183  1.2232
 3993TIP3    H233471   5.800   0.762   6.638  1.5991  0.2968 -1.9526
 3994TIP3   OH233472   2.247   6.281  16.119 -0.5196  0.5862 -0.0036
 3994TIP3    H133473   2.296   6.244  16.045  0.8389  1.4716  0.4034
 3994TIP3    H233474   2.214   6.364  16.087 -0.4897  0.6678  0.1734
 3995TIP3   OH233475   1.683   3.306  11.577  0.5455 -0.5132 -0.3009
 3995TIP3    H133476   1.773   3.277  11.593  0.3109 -1.0430  0.0954
 3995TIP3    H233477   1.643   3.235  11.528  1.0033  0.7371 -2.6290
 3996TIP3   OH233478   3.545   3.161  14.377  0.5719 -0.0536  0.6558
 3996TIP3    H133479   3.572   3.087  14.324  4.9749  0.7774  1.3937
 3996TIP3    H233480   3.591   3.236  14.339  0.4054  1.3405  3.0251
 3997TIP3   OH233481   5.999   3.302  16.783  0.4808  0.1099  0.4671
 3997TIP3    H133482   5.947   3.369  16.738  0.8775 -0.1178 -0.3530
 3997TIP3    H233483   6.067   3.351  16.829  1.1073  0.2572 -0.5820
 3998TIP3   OH233484   1.174   1.454  15.570 -0.2865  0.9511  0.3052
 3998TIP3    H133485   1.240   1.385  15.565 -1.0858  0.1701  0.2396
 3998TIP3    H233486   1.224   1.535  15.578  0.6800  0.1579  3.4220
 3999TIP3   OH233487   5.563   6.777  12.568 -0.4838  0.2538  0.2377
 3999TIP3    H133488   5.513   6.742  12.494  0.1809 -0.4069  0.0871
 3999TIP3    H233489   5.625   6.707  12.590 -0.1502  0.7539  0.9160
 4000TIP3   OH233490   0.121   0.392  11.756  0.6600 -0.3484  0.7414
 4000TIP3    H133491   0.089   0.363  11.841 -1.2503  1.6081  0.7728
 4000TIP3    H233492   0.205   0.434  11.775 -0.3802  1.2991  1.9441
 4001TIP3   OH233493   4.226   0.209   5.000 -0.6063 -0.3673 -0.1936
 4001TIP3    H133494   4.215   0.278   4.935  0.2123 -1.0376 -1.0670
 4001TIP3    H233495   4.321   0.200   5.010 -0.7156 -0.7041  0.6325
 4002TIP3   OH233496   6.547   6.306   5.361  0.0010 -0.5002  0.7908
 4002TIP3    H133497   6.479   6.258   5.314  1.2084  0.3063 -2.0084
 4002TIP3    H233498   6.629   6.273   5.325  0.9628  1.0259  1.4751
 4003TIP3   OH233499   2.588   2.079  13.445  0.4232 -0.0595  0.6265
 4003TIP3    H133500   2.557   2.011  13.384 -0.3369  0.4205  0.4633
 4003TIP3    H233501   2.667   2.042  13.484  0.7465 -0.5181 -0.4128
 4004TIP3   OH233502   0.887   4.207  15.012 -0.3008  0.0030  0.8262
 4004TIP3    H133503   0.805   4.222  15.059 -0.8706 -0.4385 -0.0073
 4004TIP3    H233504   0.863   4.153  14.937  0.2436  2.0389 -0.9482
 4005TIP3   OH233505   1.184   6.166  12.923  0.3000  0.4308  0.2042
 4005TIP3    H133506   1.271   6.130  12.904 -0.1272 -0.1882 -0.6426
 4005TIP3    H233507   1.169   6.144  13.015  0.9525  0.3560  0.3001
 4006TIP3   OH233508   5.933   4.133  13.442 -0.1318  0.1131 -0.2583
 4006TIP3    H133509   5.892   4.148  13.527  1.1682  2.6133  0.0311
 4006TIP3    H233510   6.025   4.154  13.456  0.3341 -0.6227 -2.0113
 4007TIP3   OH233511   4.427   0.430   5.827 -0.3601 -0.1552  0.3761
 4007TIP3    H133512   4.492   0.370   5.864 -1.4444 -0.7185  1.4517
 4007TIP3    H233513   4.432   0.416   5.733 -1.5268 -2.9859  0.6593
 4008TIP3   OH233514   6.401   2.476  11.207 -0.1342  0.4779  0.2795
 4008TIP3    H133515   6.389   2.569  11.191  1.1649  0.8435  1.2874
 4008TIP3    H233516   6.385   2.435  11.122 -0.9646  1.5849 -0.1188
 4009TIP3   OH233517   6.482   0.089  16.946  0.4439 -0.1948 -0.6372
 4009TIP3    H133518   6.463   0.099  17.039 -1.1473 -0.6368 -0.8787
 4009TIP3    H233519   6.492   0.178  16.913  1.7692 -0.0522  0.0671
 4010TIP3   OH233520   6.660   1.274  14.134 -0.6505  0.0351  0.2762
 4010TIP3    H133521   6.613   1.221  14.199 -0.8179 -0.4156 -0.2056
 4010TIP3    H233522   6.619   1.360  14.140 -0.5476  0.0473  0.8866
 4011TIP3   OH233523   3.061   5.281   4.285 -0.4377 -0.3196 -0.2878
 4011TIP3    H133524   2.976   5.239   4.270 -0.7343  0.4853 -0.9076
 4011TIP3    H233525   3.113   5.256   4.208 -0.5547  0.2811 -0.5663
 4012TIP3   OH233526   6.228   6.546   6.125 -0.0074 -0.5711  0.2651
 4012TIP3    H133527   6.238   6.463   6.079  0.1503 -1.2060  1.4082
 4012TIP3    H233528   6.310   6.557   6.173 -0.0799  0.1802  0.2300
 4013TIP3   OH233529   3.521   2.830   4.874  0.1927  0.0728 -0.4774
 4013TIP3    H133530   3.430   2.840   4.846 -0.5916 -3.5249  0.2791
 4013TIP3    H233531   3.536   2.902   4.935 -1.4506  1.9151 -2.1384
 4014TIP3   OH233532   2.672   0.918  12.777  0.0573  0.1513 -0.4839
 4014TIP3    H133533   2.664   0.961  12.691  1.5618 -0.4327 -0.9521
 4014TIP3    H233534   2.708   0.832  12.758 -0.5416 -0.3801  0.6728
 4015TIP3   OH233535   5.222   3.612   0.096  0.3925  0.1118  0.9992
 4015TIP3    H133536   5.316   3.596   0.102  0.2165 -1.3170  0.2703
 4015TIP3    H233537   5.182   3.526   0.096 -0.7482  0.5582 -1.0344
 4016TIP3   OH233538   4.130   4.470  10.630 -0.1488 -0.7162 -0.4383
 4016TIP3    H133539   4.095   4.382  10.617 -0.2584 -0.6527 -0.5806
 4016TIP3    H233540   4.193   4.461  10.701 -1.4816 -0.5675  0.8081
 4017TIP3   OH233541   6.712   2.420   3.027  0.2078 -0.2634 -0.9248
 4017TIP3    H133542   6.700   2.501   3.075  0.6661 -1.1849  0.8071
 4017TIP3    H233543   6.626   2.400   2.991 -0.6177 -0.4896  1.0671
 4018TIP3   OH233544   6.414   1.187  11.292  0.4272  0.4636  0.0520
 4018TIP3    H133545   6.374   1.182  11.379  1.0761  0.9507  0.3883
 4018TIP3    H233546   6.356   1.245  11.243  0.5124  0.8682  0.4207
 4019TIP3   OH233547   5.646   6.673  15.433 -0.0494 -0.0046  0.1521
 4019TIP3    H133548   5.679   6.746  15.485 -1.2038  0.6625 -0.0209
 4019TIP3    H233549   5.712   6.659  15.365  0.4847  0.4497  0.5791
 4020TIP3   OH233550   0.563   3.658  12.921 -0.0903  0.4401 -0.0872
 4020TIP3    H133551   0.587   3.747  12.898  0.4766  0.6474  1.2182
 4020TIP3    H233552   0.512   3.626  12.846 -0.3591  1.8728 -0.5360
 4021TIP3   OH233553   6.283   1.820  10.757  0.2231  0.0053  0.0048
 4021TIP3    H133554   6.282   1.783  10.845  0.9594 -1.9057 -0.7389
 4021TIP3    H233555   6.363   1.785  10.717  0.7018  2.0329 -0.9446
 4022TIP3   OH233556   0.828   4.065   6.598 -0.3607  0.3734 -0.3513
 4022TIP3    H133557   0.862   4.134   6.655  0.2654  0.6437 -1.0366
 4022TIP3    H233558   0.744   4.041   6.636 -0.0323  0.6788  0.5725
 4023TIP3   OH233559   3.525   4.979   1.571  0.1319  0.0953 -0.0717
 4023TIP3    H133560   3.528   4.908   1.636  1.3582  0.2652  0.0831
 4023TIP3    H233561   3.528   5.059   1.622  1.3230  0.2302 -0.3135
 4024TIP3   OH233562   2.743   6.247   1.749 -0.2571  0.0983  0.0684
 4024TIP3    H133563   2.798   6.188   1.698 -1.9195 -0.8170 -0.7636
 4024TIP3    H233564   2.683   6.189   1.796 -0.1153  1.0286  1.4349
 4025TIP3   OH233565   4.746   3.785   4.473  0.0542 -0.4594 -0.7243
 4025TIP3    H133566   4.674   3.746   4.425  1.0876  0.5094 -3.2129
 4025TIP3    H233567   4.804   3.712   4.493  0.2104 -0.7294 -2.0987
 4026TIP3   OH233568   2.959   0.885   2.786  0.1579  0.8533  0.2300
 4026TIP3    H133569   2.991   0.968   2.751 -1.1270  0.7683 -1.2542
 4026TIP3    H233570   2.903   0.909   2.860 -1.3269  1.4498 -1.0434
 4027TIP3   OH233571   6.521   2.364   4.321 -0.1479 -0.7044 -0.4754
 4027TIP3    H133572   6.610   2.393   4.343 -0.5108  1.2359 -1.2745
 4027TIP3    H233573   6.523   2.356   4.225 -1.1090  0.5583 -0.6309
 4028TIP3   OH233574   5.364   5.996  16.623 -0.4107  0.1997 -0.5652
 4028TIP3    H133575   5.306   6.027  16.693 -0.5198 -2.6105  0.7348
 4028TIP3    H233576   5.317   6.017  16.542 -2.1937  0.0113  0.3618
 4029TIP3   OH233577   5.366   5.980   2.657  0.1557 -0.2970 -0.1151
 4029TIP3    H133578   5.393   6.067   2.685 -0.6281 -0.7843  2.3554
 4029TIP3    H233579   5.276   5.972   2.686  0.2970 -2.0318 -0.0404
 4030TIP3   OH233580   4.821   6.187   0.865  0.1108 -0.0136 -0.1350
 4030TIP3    H133581   4.916   6.189   0.877  0.0032  2.9495  0.8944
 4030TIP3    H233582   4.792   6.275   0.886 -3.3445 -1.6991  3.4547
 4031TIP3   OH233583   0.400   5.403   2.915  0.0014 -0.0592  0.1402
 4031TIP3    H133584   0.493   5.422   2.902  0.4450 -1.8816  0.4184
 4031TIP3    H233585   0.398   5.316   2.954 -1.7580  0.8681  2.3468
 4032TIP3   OH233586   2.102   4.681   2.088 -0.3535 -0.4316  0.3903
 4032TIP3    H133587   2.139   4.636   2.163 -0.2851 -0.3189  0.4247
 4032TIP3    H233588   2.052   4.753   2.125  1.6176  1.1042  0.2808
 4033TIP3   OH233589   1.690   1.042   0.945 -0.3131  0.1357  0.1935
 4033TIP3    H133590   1.686   0.956   0.903 -1.0464  0.3416 -0.1916
 4033TIP3    H233591   1.598   1.064   0.961 -0.0812  0.4086  1.2093
 4034TIP3   OH233592   5.602   2.139  13.421 -0.6976  0.7027 -0.7038
 4034TIP3    H133593   5.630   2.190  13.497 -0.7275  1.1764 -1.0026
 4034TIP3    H233594   5.597   2.203  13.350 -1.5423  0.4293 -0.8952
 4035TIP3   OH233595   3.502   3.787   2.081  0.2106  0.1810 -0.2591
 4035TIP3    H133596   3.457   3.753   2.159  0.2922 -0.6544 -0.5706
 4035TIP3    H233597   3.500   3.715   2.019  0.2173  0.8199 -1.0150
 4036TIP3   OH233598   5.819   5.231  12.771 -0.3763 -0.0402  0.5457
 4036TIP3    H133599   5.845   5.143  12.743  1.9447  0.9168 -0.6187
 4036TIP3    H233600   5.747   5.255  12.712  1.1363  0.0177 -1.3855
 4037TIP3   OH233601   2.468   1.161   5.886 -0.3068 -0.1460  0.0725
 4037TIP3    H133602   2.531   1.201   5.945 -3.7030  2.6922  2.1400
 4037TIP3    H233603   2.477   1.210   5.804 -0.5413  1.0285  0.7277
 4038TIP3   OH233604   6.561   4.751  12.107  0.3458 -0.1962 -0.3531
 4038TIP3    H133605   6.547   4.677  12.166  1.3519  0.6941  1.0589
 4038TIP3    H233606   6.493   4.740  12.039  0.0212 -1.9947  0.1897
 4039TIP3   OH233607   2.896   1.768  11.406 -0.0902 -0.1741  0.1202
 4039TIP3    H133608   2.933   1.838  11.353  1.1163 -0.4950  0.5120
 4039TIP3    H233609   2.826   1.810  11.456  1.5616  1.1378  1.4428
 4040TIP3   OH233610   6.068   6.410  15.149 -0.2312  0.0792  0.5467
 4040TIP3    H133611   6.148   6.404  15.201  0.8562 -2.2778 -1.1846
 4040TIP3    H233612   6.079   6.343  15.080 -2.0128  2.2633 -2.0814
 4041TIP3   OH233613   1.908   2.952  16.921  0.9291 -0.4463  0.1868
 4041TIP3    H133614   1.825   2.988  16.890  0.6902  0.0506  1.3439
 4041TIP3    H233615   1.974   2.990  16.864  0.2988 -1.7000 -1.4579
 4042TIP3   OH233616   3.350   1.209   1.130  0.0625 -0.7056  0.6779
 4042TIP3    H133617   3.317   1.297   1.112  1.4347 -0.2584  0.2634
 4042TIP3    H233618   3.273   1.160   1.160 -0.6278  0.7494  1.3390
 4043TIP3   OH233619   5.412   0.017  14.469 -0.0457  0.0246  0.2598
 4043TIP3    H133620   5.458  -0.004  14.388 -1.9829 -1.0627 -0.6337
 4043TIP3    H233621   5.449  -0.044  14.533  0.1941 -0.4006 -0.2703
 4044TIP3   OH233622   5.627   1.858   3.426  0.1367 -0.0887  0.0610
 4044TIP3    H133623   5.709   1.865   3.377  0.9653 -0.5827  1.3367
 4044TIP3    H233624   5.574   1.796   3.375  0.7880 -0.2290 -0.4558
 4045TIP3   OH233625   0.977   4.890  11.046  0.1988  0.4052 -0.1029
 4045TIP3    H133626   1.010   4.916  11.132  2.5853 -0.9062 -0.5305
 4045TIP3    H233627   0.882   4.892  11.055  0.3624 -0.4499  2.8004
 4046TIP3   OH233628   3.424   1.900  14.057  0.1419 -0.4240 -0.3302
 4046TIP3    H133629   3.427   1.831  13.991 -0.1134 -0.2552 -0.5226
 4046TIP3    H233630   3.412   1.981  14.007 -0.4515 -0.3361 -0.0642
 4047TIP3   OH233631   4.585   4.029  12.808  0.0241  0.0839 -0.1732
 4047TIP3    H133632   4.598   4.039  12.714 -1.3534 -0.2614 -0.4216
 4047TIP3    H233633   4.490   4.035  12.820  0.2696  1.6383  1.3903
 4048TIP3   OH233634   5.916   5.977   0.137  0.1854  0.3741  0.0303
 4048TIP3    H133635   5.906   5.899   0.081  0.7483 -0.4393  1.0252
 4048TIP3    H233636   5.917   5.942   0.226  2.1394  1.3372  0.4307
 4049TIP3   OH233637   2.499   0.728  12.317  0.0366 -0.2330  0.1342
 4049TIP3    H133638   2.424   0.698  12.369 -0.4100  0.8018  0.1106
 4049TIP3    H233639   2.473   0.814  12.285  0.3061 -0.8466 -1.8206
 4050TIP3   OH233640   2.363   0.306  11.377  0.0223 -0.6300 -0.1283
 4050TIP3    H133641   2.416   0.301  11.298 -0.2090 -0.2912 -0.3056
 4050TIP3    H233642   2.302   0.379  11.362 -0.8063 -1.2969 -0.1203
 4051TIP3   OH233643   4.633   0.588   5.956  0.4287 -0.1715  0.3299
 4051TIP3    H133644   4.619   0.611   6.047 -1.1175  0.8721 -0.1329
 4051TIP3    H233645   4.556   0.538   5.931  0.9869 -0.7321 -0.3199
 4052TIP3   OH233646   0.825   0.642   5.508 -0.1338 -0.7874  0.4181
 4052TIP3    H133647   0.770   0.576   5.549  1.1275 -0.6920  2.4040
 4052TIP3    H233648   0.910   0.632   5.550  1.0763 -0.1719 -1.7356
 4053TIP3   OH233649   5.149   1.798   6.756  0.3147  0.4989 -0.1368
 4053TIP3    H133650   5.057   1.793   6.728 -0.3107  1.0461  1.6397
 4053TIP3    H233651   5.155   1.880   6.805  1.7873  0.5139 -0.3028
 4054TIP3   OH233652   5.025   6.544  13.530 -0.5484 -0.3505 -0.3933
 4054TIP3    H133653   4.970   6.621  13.517  0.0379  0.0978 -0.2357
 4054TIP3    H233654   4.974   6.471  13.495 -0.7470  0.2305 -1.3132
 4055TIP3   OH233655   5.281   2.886   1.260 -0.1636  0.1144 -0.1139
 4055TIP3    H133656   5.229   2.941   1.202  0.3541  0.3837 -0.3345
 4055TIP3    H233657   5.322   2.821   1.203 -0.5029 -0.2906  0.1001
 4056TIP3   OH233658   1.733   5.696  14.990  0.3326 -0.8281  0.1019
 4056TIP3    H133659   1.698   5.612  15.021  0.8332 -0.6718  1.1233
 4056TIP3    H233660   1.662   5.732  14.937  0.9842 -2.9705 -2.4117
 4057TIP3   OH233661   1.878   1.516  15.673  0.2213 -0.2572 -0.7449
 4057TIP3    H133662   1.868   1.472  15.588 -1.1088 -1.8882  0.1931
 4057TIP3    H233663   1.797   1.565  15.685  0.8287  0.7897 -0.8434
 4058TIP3   OH233664   1.448   5.255  11.381 -0.0789  0.0846 -0.0673
 4058TIP3    H133665   1.378   5.234  11.320  1.3737 -1.3425 -1.3280
 4058TIP3    H233666   1.495   5.328  11.340 -1.5176  1.9369  1.4030
 4059TIP3   OH233667   3.909   3.289   0.158  0.2647 -0.0946  0.2038
 4059TIP3    H133668   3.855   3.365   0.136  0.7700  0.0008 -0.7532
 4059TIP3    H233669   3.930   3.249   0.074  2.4031  0.3610  0.4564
 4060TIP3   OH233670   1.389   5.484  11.775 -0.0873 -0.6542 -0.6549
 4060TIP3    H133671   1.417   5.507  11.686  1.9772 -2.0720 -0.4556
 4060TIP3    H233672   1.452   5.529  11.832 -1.6088  0.5349  0.1517
 4061TIP3   OH233673   0.517   5.383  15.645 -0.3661 -0.3223 -0.4066
 4061TIP3    H133674   0.510   5.472  15.613 -0.2291 -0.2279 -0.1789
 4061TIP3    H233675   0.426   5.353  15.654 -0.4017 -0.3702 -0.9350
 4062TIP3   OH233676   2.882   3.422   0.509  0.2188 -0.0042  0.1250
 4062TIP3    H133677   2.919   3.454   0.591  0.0331  0.1238  0.1576
 4062TIP3    H233678   2.799   3.381   0.534  0.0050  0.3227 -0.0415
 4063TIP3   OH233679   4.384   5.296  11.313  0.4314  0.4659  0.4733
 4063TIP3    H133680   4.421   5.330  11.394 -0.2455  0.6702  0.7013
 4063TIP3    H233681   4.290   5.315  11.319  0.2806 -0.0515 -0.0874
 4064TIP3   OH233682   5.203   4.912   2.909  0.1228  0.7398 -0.2830
 4064TIP3    H133683   5.227   4.928   3.000  0.6990  2.3894 -0.6975
 4064TIP3    H233684   5.287   4.912   2.862 -0.1788  0.0484 -0.8413
 4065TIP3   OH233685   2.292   3.119  12.593 -0.1060  0.0659  0.3351
 4065TIP3    H133686   2.200   3.142  12.584 -0.5206 -1.4708  0.3646
 4065TIP3    H233687   2.319   3.092  12.505  0.9864  2.6564 -0.2107
 4066TIP3   OH233688   3.836   4.060  15.864 -0.2565  0.0570  0.5429
 4066TIP3    H133689   3.805   4.148  15.847 -0.9825 -0.0898  1.0824
 4066TIP3    H233690   3.879   4.033  15.782 -0.4476  0.7231  0.2214
 4067TIP3   OH233691   5.983   0.045  13.764 -0.5026 -0.0540 -0.2080
 4067TIP3    H133692   5.939  -0.036  13.739 -0.8629 -0.2112  0.9102
 4067TIP3    H233693   5.919   0.114  13.745 -0.1420  0.0079 -1.2993
 4068TIP3   OH233694   0.550   5.940   1.649  0.0614 -0.1734  0.0499
 4068TIP3    H133695   0.603   6.019   1.658 -1.6839  1.0874 -0.2833
 4068TIP3    H233696   0.512   5.926   1.736 -1.1231  0.4788 -0.3457
 4069TIP3   OH233697   0.071   4.161  11.477 -0.2962 -0.1732  0.4480
 4069TIP3    H133698   0.123   4.199  11.548  2.9296 -1.9536 -0.7816
 4069TIP3    H233699   0.058   4.233  11.415  0.9420  0.2765  0.6904
 4070TIP3   OH233700   3.573   3.512   0.518 -0.6235  0.1156  0.0066
 4070TIP3    H133701   3.642   3.446   0.517 -1.2300 -0.5841  1.3554
 4070TIP3    H233702   3.618   3.593   0.544  0.3249  0.5528 -2.7290
 4071TIP3   OH233703   1.712   1.460  11.726 -0.0423 -0.5754  0.4272
 4071TIP3    H133704   1.645   1.395  11.703  1.1190 -2.1645  1.3816
 4071TIP3    H233705   1.795   1.418  11.705  0.7955  0.0977  2.2590
 4072TIP3   OH233706   0.401   5.253   2.625 -0.3971 -0.1618  0.3448
 4072TIP3    H133707   0.415   5.299   2.542  0.7425 -1.6185 -0.3202
 4072TIP3    H233708   0.308   5.266   2.643 -0.8516 -0.3581 -1.5422
 4073TIP3   OH233709   4.344   4.150  16.563  0.4812  0.4237  0.5971
 4073TIP3    H133710   4.315   4.064  16.534  1.2843  0.2801  0.1799
 4073TIP3    H233711   4.438   4.152  16.544  0.6581  1.0504  1.4453
 4074TIP3   OH233712   0.966   0.847  15.829  0.1554  0.1421  0.2759
 4074TIP3    H133713   1.037   0.815  15.884 -0.2547 -1.8213 -0.2351
 4074TIP3    H233714   0.903   0.885  15.890 -0.3498 -2.0890  1.2547
 4075TIP3   OH233715   1.779   2.870   2.104 -0.3336  0.0976 -0.7861
 4075TIP3    H133716   1.710   2.809   2.129 -0.8269  1.3714  1.1124
 4075TIP3    H233717   1.757   2.952   2.148 -0.0765  1.9365 -3.7726
 4076TIP3   OH233718   2.003   0.590   3.975  0.3295  0.1227  0.0730
 4076TIP3    H133719   1.971   0.677   3.953 -1.0718  0.3089  2.4693
 4076TIP3    H233720   1.925   0.534   3.975  0.5898 -0.3133  2.0017
 4077TIP3   OH233721   5.545   1.222   0.482 -0.2074  0.4039 -0.1643
 4077TIP3    H133722   5.608   1.287   0.451  1.4793 -1.2026 -0.3692
 4077TIP3    H233723   5.554   1.223   0.577  2.0949 -1.4991 -0.2546
 4078TIP3   OH233724   2.889   0.940   5.377 -0.3349  0.1380 -0.3326
 4078TIP3    H133725   2.893   0.938   5.281 -0.5913  0.9803 -0.3700
 4078TIP3    H233726   2.968   0.988   5.404 -1.2294  1.6285 -0.2379
 4079TIP3   OH233727   1.150   1.542  16.067  0.0084  0.1255 -0.0431
 4079TIP3    H133728   1.172   1.502  16.151 -0.3126 -2.0538 -0.9302
 4079TIP3    H233729   1.184   1.481  16.002 -1.3751  0.8327 -1.4948
 4080TIP3   OH233730   2.584   3.514  16.299 -0.2004 -0.5555 -0.0118
 4080TIP3    H133731   2.575   3.429  16.343 -0.4385  0.2374  1.5641
 4080TIP3    H233732   2.538   3.503  16.216 -1.5177 -1.5358  0.8062
 4081TIP3   OH233733   3.946   3.604   3.036  0.0208  0.2100 -0.6849
 4081TIP3    H133734   3.905   3.590   3.122 -1.1534  2.5229 -0.7937
 4081TIP3    H233735   3.872   3.600   2.975  0.8175 -1.1776 -1.6113
 4082TIP3   OH233736   1.632   4.322  13.139  0.0735  0.0521  0.1520
 4082TIP3    H133737   1.675   4.408  13.134  1.4992 -0.5677  0.9714
 4082TIP3    H233738   1.704   4.260  13.128 -0.8708 -1.0388  0.0536
 4083TIP3   OH233739   3.727   4.309   0.296 -0.4582  0.0337 -0.0673
 4083TIP3    H133740   3.700   4.263   0.216 -2.3357  0.3514  0.3193
 4083TIP3    H233741   3.737   4.400   0.269  1.4287 -0.2641 -0.4469
 4084TIP3   OH233742   6.763   3.140  12.836  0.0892 -0.3427  0.3699
 4084TIP3    H133743   6.708   3.083  12.783  0.2038  0.2382 -0.3793
 4084TIP3    H233744   6.851   3.104  12.827  0.0930 -0.3022  0.2497
 4085TIP3   OH233745   2.832   5.655   5.543  0.2511  0.2260  0.0127
 4085TIP3    H133746   2.746   5.620   5.521  0.3298 -0.6899  1.0901
 4085TIP3    H233747   2.825   5.749   5.526 -0.6344  0.0126 -0.8722
 4086TIP3   OH233748   2.952   0.925  12.523  0.2533 -0.5038 -0.0257
 4086TIP3    H133749   3.001   0.924  12.605  0.7800 -0.5447 -0.3394
 4086TIP3    H233750   2.946   0.832  12.498 -1.2709 -0.6516  0.7662
 4087TIP3   OH233751   5.945   5.297  16.965  0.4918  0.1395 -0.4689
 4087TIP3    H133752   5.890   5.331  17.036  1.0536 -0.8154  0.4615
 4087TIP3    H233753   5.893   5.228  16.925  0.2949  0.4719 -0.7856
 4088TIP3   OH233754   1.235   4.970  12.424 -0.8964 -0.1714 -0.5335
 4088TIP3    H133755   1.155   4.919  12.416 -0.5160 -0.6792 -1.2397
 4088TIP3    H233756   1.274   4.967  12.337 -0.7398  1.1334 -0.5183
 4089TIP3   OH233757   0.331   6.374  13.862 -0.0047 -0.0463 -0.1660
 4089TIP3    H133758   0.425   6.361  13.872 -0.2892 -1.5418  0.9014
 4089TIP3    H233759   0.312   6.342  13.773  0.4618  0.1388 -0.3362
 4090TIP3   OH233760   1.992   4.169  14.238 -0.6286 -0.1142  0.1929
 4090TIP3    H133761   1.977   4.214  14.321  0.1301 -1.0192  0.8451
 4090TIP3    H233762   1.948   4.224  14.172  0.8863  1.9855  0.8334
 4091TIP3   OH233763   1.766   0.740   5.284  0.3276 -0.1960  0.0071
 4091TIP3    H133764   1.789   0.651   5.259  1.0254 -0.1400  0.4331
 4091TIP3    H233765   1.712   0.730   5.362 -0.6024 -0.2955 -0.6322
 4092TIP3   OH233766   3.617   6.760  11.660 -0.1918 -0.2855  0.0268
 4092TIP3    H133767   3.622   6.765  11.565 -0.0801 -0.8496  0.0013
 4092TIP3    H233768   3.617   6.851  11.689 -1.5505 -0.0734 -0.5674
 4093TIP3   OH233769   1.372   4.502  16.248  0.0512 -0.1481  0.0096
 4093TIP3    H133770   1.318   4.433  16.286 -1.5282  0.9676 -0.1285
 4093TIP3    H233771   1.348   4.505  16.156  0.1819  0.5065 -0.0122
 4094TIP3   OH233772   2.921   1.594   2.093  0.3784  0.2678  0.1451
 4094TIP3    H133773   2.987   1.625   2.032 -0.4675  0.8811 -0.4686
 4094TIP3    H233774   2.850   1.560   2.038 -0.4444  0.9283  0.7533
 4095TIP3   OH233775   3.182   2.470   3.699  0.3511  1.0016  0.3961
 4095TIP3    H133776   3.217   2.540   3.754  1.9612 -0.4359  1.3172
 4095TIP3    H233777   3.255   2.410   3.688 -0.6639  0.0008 -1.2919
 4096TIP3   OH233778   0.152   3.049  17.149  0.5720  0.5234  0.2307
 4096TIP3    H133779   0.122   2.973  17.098  0.1107  1.4196 -0.8824
 4096TIP3    H233780   0.169   3.014  17.236 -0.9765 -0.5933  0.1285
 4097TIP3   OH233781   2.097   3.761  11.684  0.7199 -0.1141  0.4373
 4097TIP3    H133782   2.016   3.767  11.634  1.5206  1.2365 -0.7889
 4097TIP3    H233783   2.075   3.708  11.761 -1.3745  0.4237  0.2513
 4098TIP3   OH233784   4.704   4.239  16.374  0.1584  0.4447  0.5868
 4098TIP3    H133785   4.630   4.202  16.324  0.3125 -0.1874  0.8164
 4098TIP3    H233786   4.666   4.266  16.457 -0.0032  1.0458  0.3230
 4099TIP3   OH233787   0.311   6.800   1.818 -0.7234 -0.2701  0.1201
 4099TIP3    H133788   0.274   6.751   1.892  1.0004  0.2840  1.4223
 4099TIP3    H233789   0.240   6.856   1.787 -1.6969 -1.0658  0.8716
 4100TIP3   OH233790   5.970   4.047   2.971  0.0317 -0.1361 -0.0746
 4100TIP3    H133791   6.041   4.026   3.031  1.8516  1.2069 -1.6428
 4100TIP3    H233792   5.941   4.135   2.997  0.9173  0.5100 -1.1437
 4101TIP3   OH233793   2.961   4.422  11.564  0.2623 -0.5363 -0.2059
 4101TIP3    H133794   2.960   4.331  11.593 -1.1379 -0.2257  0.8046
 4101TIP3    H233795   2.950   4.474  11.643 -1.8355  0.3967 -1.0367
 4102TIP3   OH233796   0.580   1.716  11.169 -0.3188 -0.5788 -0.2994
 4102TIP3    H133797   0.503   1.708  11.113 -2.0916  2.6181  1.3632
 4102TIP3    H233798   0.583   1.634  11.218 -1.8905 -1.2744 -1.2908
 4103TIP3   OH233799   6.347   1.071  16.833  0.4451  0.0010 -0.1969
 4103TIP3    H133800   6.411   1.002  16.852  0.0953 -1.2543 -3.0320
 4103TIP3    H233801   6.396   1.134  16.780 -0.0648  0.2548 -0.3656
 4104TIP3   OH233802   5.416   5.366  11.868  0.0340 -0.0399  0.1415
 4104TIP3    H133803   5.439   5.376  11.775 -0.9883  0.4686 -0.0807
 4104TIP3    H233804   5.349   5.297  11.868  0.0301 -0.0376  0.5066
 4105TIP3   OH233805   6.008   3.370  13.059  0.4931  0.1983 -0.0741
 4105TIP3    H133806   6.024   3.464  13.052 -0.3468  0.3874  0.4473
 4105TIP3    H233807   5.918   3.363  13.091  0.0818 -0.8002 -1.3589
 4106TIP3   OH233808   4.107   0.362   0.382 -0.6349  0.2255 -0.4524
 4106TIP3    H133809   4.153   0.281   0.403  0.7014  0.8942 -0.6830
 4106TIP3    H233810   4.064   0.387   0.464 -0.2835 -0.2390 -0.1187
 4107TIP3   OH233811   5.244   4.434   4.230  0.2586 -0.0705 -0.8529
 4107TIP3    H133812   5.299   4.506   4.262  1.4559 -1.5171  0.5668
 4107TIP3    H233813   5.229   4.380   4.307 -1.6512 -0.7262 -1.6233
 4108TIP3   OH233814   1.859   6.523   0.233 -0.1280 -0.2327 -0.0012
 4108TIP3    H133815   1.881   6.590   0.168  2.0755 -0.9039 -0.0490
 4108TIP3    H233816   1.793   6.564   0.289  0.1078  1.4475 -0.8914
 4109TIP3   OH233817   4.186   0.691  11.540  0.6788  0.6072 -0.0618
 4109TIP3    H133818   4.198   0.688  11.445 -1.8782 -1.2068 -0.4076
 4109TIP3    H233819   4.099   0.729  11.552  0.3476 -0.5353  1.4525
 4110TIP3   OH233820   0.048   2.472   1.574  0.1384  0.1912  0.1115
 4110TIP3    H133821   0.010   2.471   1.661  1.3184 -0.2530  0.6357
 4110TIP3    H233822   0.142   2.459   1.588  0.2639 -0.5510 -1.2536
 4111TIP3   OH233823   0.696   2.999   3.406  0.1464  0.0464 -0.4333
 4111TIP3    H133824   0.669   2.911   3.377  2.0800 -1.1812  1.2390
 4111TIP3    H233825   0.747   3.033   3.332  2.1673 -1.6562  0.0608
 4112TIP3   OH233826   2.489   3.494   3.596  0.1723 -0.8129  0.1061
 4112TIP3    H133827   2.515   3.545   3.672 -2.9195  2.4928 -0.7658
 4112TIP3    H233828   2.536   3.534   3.523  0.4784 -1.6786 -0.1874
 4113TIP3   OH233829   6.594   3.059   1.930 -0.3861  0.1222 -0.1661
 4113TIP3    H133830   6.552   3.118   1.993 -0.2761 -0.3095  0.3100
 4113TIP3    H233831   6.657   3.115   1.884 -1.0545  0.6353 -0.4781
 4114TIP3   OH233832   3.016   2.840   4.815 -0.5602  0.6774 -0.4749
 4114TIP3    H133833   2.968   2.782   4.755  0.7019  0.2780 -1.1186
 4114TIP3    H233834   2.974   2.825   4.900 -1.6734  0.4598 -1.0367
 4115TIP3   OH233835   1.429   4.265  10.852 -0.1589  0.1139  0.6108
 4115TIP3    H133836   1.494   4.241  10.786 -0.6149 -0.2030  0.2748
 4115TIP3    H233837   1.415   4.358  10.840 -2.4545 -0.4348 -1.7639
 4116TIP3   OH233838   3.123   3.499   2.357 -0.6738 -0.5721  0.5466
 4116TIP3    H133839   3.029   3.485   2.365 -0.3802 -1.6588  2.7787
 4116TIP3    H233840   3.161   3.411   2.366  0.5479 -0.2812 -1.1904
 4117TIP3   OH233841   4.268   5.692   6.626  0.0913  0.3246 -0.1000
 4117TIP3    H133842   4.225   5.693   6.711  0.3422 -0.2694  0.0391
 4117TIP3    H233843   4.199   5.663   6.565  0.3519 -0.9546  0.1715
 4118TIP3   OH233844   3.623   2.086   5.438  0.4131  0.4348  0.0395
 4118TIP3    H133845   3.606   2.052   5.350 -3.0490 -0.7455  0.9781
 4118TIP3    H233846   3.575   2.169   5.442  1.3202  0.9546  0.5601
 4119TIP3   OH233847   5.365   1.794   2.766 -0.0636  0.0374  0.0010
 4119TIP3    H133848   5.392   1.735   2.837  0.6544 -0.4580 -0.6583
 4119TIP3    H233849   5.431   1.780   2.698 -1.9053 -1.1017 -1.6444
 4120TIP3   OH233850   4.021   3.409   3.404  0.5381 -0.6707 -0.0784
 4120TIP3    H133851   3.989   3.448   3.485  2.4050 -2.3675  1.5729
 4120TIP3    H233852   4.044   3.483   3.349  0.5143  0.5307  1.4736
 4121TIP3   OH233853   0.912   0.187  15.123 -0.2753  0.0770 -0.3047
 4121TIP3    H133854   0.954   0.178  15.209 -0.4991 -1.4931 -0.3241
 4121TIP3    H233855   0.984   0.205  15.063 -0.1200  1.2217  0.1975
 4122TIP3   OH233856   1.970   2.902   5.115 -0.2219  0.7448 -0.2427
 4122TIP3    H133857   1.933   2.891   5.028 -0.3959  0.7445 -0.1687
 4122TIP3    H233858   1.912   2.965   5.158 -0.0310  0.8856 -0.1906
 4123TIP3   OH233859   3.754   6.111   0.957 -0.0954  0.0572 -0.0376
 4123TIP3    H133860   3.722   6.179   0.898  0.4543 -0.0765 -0.4941
 4123TIP3    H233861   3.678   6.089   1.011 -0.7352 -0.1196 -0.9790
 4124TIP3   OH233862   1.568   5.899   4.878 -0.3404  0.2873 -0.4111
 4124TIP3    H133863   1.547   5.884   4.971  0.4596  1.0063 -0.1013
 4124TIP3    H233864   1.543   5.989   4.862 -1.6362 -0.1932 -1.2498
 4125TIP3   OH233865   4.546   5.836  13.478  0.4782 -0.1489 -0.5486
 4125TIP3    H133866   4.559   5.831  13.572 -0.3883 -1.3269 -0.4655
 4125TIP3    H233867   4.614   5.779  13.441  3.1858  3.0496 -0.9409
 4126TIP3   OH233868   2.790   5.307   4.814 -0.3739 -0.3757 -0.1749
 4126TIP3    H133869   2.871   5.286   4.861  0.6834 -0.2282 -1.8543
 4126TIP3    H233870   2.784   5.403   4.818 -1.1745 -0.4483  1.0176
 4127TIP3   OH233871   2.279   4.677  13.157 -0.5455 -0.5383  0.1396
 4127TIP3    H133872   2.207   4.738  13.142 -1.1116 -0.6095  2.2428
 4127TIP3    H233873   2.345   4.701  13.093 -3.3314 -2.0962 -3.7018
 4128TIP3   OH233874   4.526   0.607  16.128 -0.2067  0.1329 -0.5421
 4128TIP3    H133875   4.467   0.677  16.101  0.6634  0.0594 -2.8431
 4128TIP3    H233876   4.510   0.597  16.222 -2.1799  1.6491 -0.6515
 4129TIP3   OH233877   4.032   0.116   0.658  0.3005  0.2307  0.0816
 4129TIP3    H133878   4.032   0.209   0.681 -0.1555 -0.0399  1.2546
 4129TIP3    H233879   3.955   0.106   0.601 -0.8474  0.2341  1.5591
 4130TIP3   OH233880   5.381   0.459  11.084 -0.2013  0.1328  0.1680
 4130TIP3    H133881   5.456   0.494  11.132  0.0493 -1.1355  0.7685
 4130TIP3    H233882   5.395   0.485  10.993  0.5413  0.5902  0.4082
 4131TIP3   OH233883   3.567   0.027   5.857 -0.2375  0.1197 -0.1901
 4131TIP3    H133884   3.579  -0.055   5.809  1.3095  1.1323 -1.6422
 4131TIP3    H233885   3.477   0.023   5.890 -0.1559 -2.1847 -0.1238
 4132TIP3   OH233886   4.008   3.741   1.606  0.0840 -0.4498 -0.4965
 4132TIP3    H133887   4.045   3.654   1.596  0.9583  0.1541 -3.2372
 4132TIP3    H233888   3.970   3.762   1.521 -1.6394  1.2204  0.5655
 4133TIP3   OH233889   1.797   3.565   4.514 -0.5123  0.2145 -0.2258
 4133TIP3    H133890   1.862   3.598   4.452 -2.0243  0.6689 -1.6488
 4133TIP3    H233891   1.829   3.591   4.600  1.2715  0.2299 -0.8622
 4134TIP3   OH233892   2.754   0.508   0.487 -0.0461  0.3067  0.0931
 4134TIP3    H133893   2.842   0.524   0.522 -0.0522  2.6486 -0.7621
 4134TIP3    H233894   2.697   0.562   0.542 -0.6043  0.7343 -0.8962
 4135TIP3   OH233895   3.421   3.032  15.795  0.0229  0.3761 -0.1103
 4135TIP3    H133896   3.355   2.974  15.831  0.6948 -0.0675  0.4299
 4135TIP3    H233897   3.504   3.000  15.831  0.5701  0.7305 -1.0163
 4136TIP3   OH233898   6.790   4.489   3.534 -0.2701  0.0358  0.1784
 4136TIP3    H133899   6.817   4.511   3.624 -0.8316 -1.5437  0.7731
 4136TIP3    H233900   6.731   4.414   3.545 -1.4857  0.7159 -1.4210
 4137TIP3   OH233901   2.050   5.956  11.560 -0.1831  0.8406  0.2253
 4137TIP3    H133902   2.145   5.957  11.576 -0.5647  2.0978  2.8741
 4137TIP3    H233903   2.030   5.864  11.543  1.5292  0.5938 -0.6788
 4138TIP3   OH233904   0.145   0.459  16.706 -0.3565  0.0382 -0.5719
 4138TIP3    H133905   0.207   0.415  16.763 -0.2295 -1.4255 -1.7680
 4138TIP3    H233906   0.090   0.388  16.671 -2.1285  1.1852 -0.2411
 4139TIP3   OH233907   0.649   5.636   3.121 -0.0693 -0.2214 -0.1739
 4139TIP3    H133908   0.604   5.601   3.199  2.1630 -1.2807  0.7435
 4139TIP3    H233909   0.710   5.566   3.096  2.5009  1.8389 -0.0740
 4140TIP3   OH233910   0.990   5.222  16.730  0.5368  0.0667 -0.2025
 4140TIP3    H133911   1.080   5.194  16.748  0.2069 -1.3916 -0.7072
 4140TIP3    H233912   0.936   5.153  16.767 -0.3693  0.7424 -0.2545
 4141TIP3   OH233913   2.969   5.844  13.794 -0.3092 -0.4967  0.3242
 4141TIP3    H133914   3.028   5.801  13.731  1.1328 -0.1766  1.3966
 4141TIP3    H233915   2.978   5.937  13.775 -2.4673 -0.5327 -1.1650
 4142TIP3   OH233916   0.568   2.149  17.070 -0.4738 -0.3818  0.2435
 4142TIP3    H133917   0.533   2.237  17.054 -1.9680 -0.8990  0.4928
 4142TIP3    H233918   0.490   2.094  17.081  0.4420 -1.4995  1.4168
 4143TIP3   OH233919   6.027   1.248   5.190 -0.5011  0.1164  0.4199
 4143TIP3    H133920   5.951   1.208   5.147 -0.5789 -1.1108  1.6063
 4143TIP3    H233921   6.060   1.312   5.127 -1.4939 -0.5407 -0.8119
 4144TIP3   OH233922   0.451   1.742  15.856  0.3774 -0.7776 -0.2633
 4144TIP3    H133923   0.529   1.747  15.800  1.0675  0.2667  0.7368
 4144TIP3    H233924   0.483   1.710  15.940 -0.4069 -1.0120 -0.0418
 4145TIP3   OH233925   3.543   3.155   3.246  0.3978 -0.2403 -0.1114
 4145TIP3    H133926   3.611   3.222   3.233  0.5738 -0.7625 -2.4460
 4145TIP3    H233927   3.580   3.077   3.204 -0.5434 -1.3240  1.0117
 4146TIP3   OH233928   2.201   2.853  16.275 -0.0932  0.6250  0.3405
 4146TIP3    H133929   2.260   2.784  16.307  0.1060  0.1496 -1.0262
 4146TIP3    H233930   2.201   2.917  16.346  3.8465  1.7315 -0.3813
 4147TIP3   OH233931   4.833   5.940   5.738  0.0264 -0.0493 -0.7751
 4147TIP3    H133932   4.743   5.968   5.756 -0.3778 -0.7725 -1.6098
 4147TIP3    H233933   4.867   6.009   5.681  1.3321  2.2854  2.4928
 4148TIP3   OH233934   0.281   4.651   3.174  0.6307 -0.5917 -0.3438
 4148TIP3    H133935   0.259   4.647   3.081 -0.9940 -0.0152 -0.0136
 4148TIP3    H233936   0.295   4.745   3.191  0.7427 -0.6736  0.0257
 4149TIP3   OH233937   4.445   2.452  16.186  0.4128 -0.9778 -0.2004
 4149TIP3    H133938   4.490   2.527  16.224 -1.5299 -0.2359  0.7741
 4149TIP3    H233939   4.478   2.448  16.096 -1.3610  2.8043 -1.1993
 4150TIP3   OH233940   4.695   3.532   2.250  0.3173  0.3501  0.8211
 4150TIP3    H133941   4.638   3.493   2.184  1.3673 -0.9776  0.6555
 4150TIP3    H233942   4.783   3.514   2.219  0.9035  3.5216  0.3794
 4151TIP3   OH233943   4.301   4.782   0.110 -0.2527 -0.0635 -0.1061
 4151TIP3    H133944   4.330   4.694   0.135 -1.0659 -0.2571  0.1560
 4151TIP3    H233945   4.206   4.775   0.102 -0.3274  0.8109 -0.0275
 4152TIP3   OH233946   2.455   0.912  14.868 -0.4862 -0.0766  0.0345
 4152TIP3    H133947   2.371   0.875  14.895 -1.6128  1.3909 -1.2747
 4152TIP3    H233948   2.463   0.889  14.775 -0.4641  1.5669 -0.3977
 4153TIP3   OH233949   2.795   2.709   0.982  0.1146  0.6232 -0.1951
 4153TIP3    H133950   2.821   2.704   0.890  1.1022 -0.6472  0.1218
 4153TIP3    H233951   2.802   2.802   1.004 -0.1742  0.9474 -1.4077
 4154TIP3   OH233952   1.160   4.935   0.973 -0.3626 -0.4748  0.3738
 4154TIP3    H133953   1.135   4.855   1.019 -1.2986 -0.0444  0.6406
 4154TIP3    H233954   1.255   4.935   0.974 -0.3121 -0.2026  2.8645
 4155TIP3   OH233955   5.570   1.753  17.263 -0.1560 -0.0849  0.1043
 4155TIP3    H133956   5.529   1.743  17.177  0.3677  3.0822 -0.6496
 4155TIP3    H233957   5.654   1.795  17.245  1.3901 -2.0974  2.0046
 4156TIP3   OH233958   2.887   1.103  13.444  0.0510 -0.2532 -0.1171
 4156TIP3    H133959   2.905   1.010  13.443  0.4186 -0.2240  1.6729
 4156TIP3    H233960   2.793   1.109  13.427  0.0746 -0.9116 -0.5272
 4157TIP3   OH233961   5.026   3.602   2.032 -0.3516  0.1649 -0.0030
 4157TIP3    H133962   4.935   3.597   2.004  0.2466 -0.9778 -1.9043
 4157TIP3    H233963   5.036   3.531   2.096 -0.6393 -0.1619 -0.3179
 4158TIP3   OH233964   0.176   4.464  14.281 -0.1217  0.3823  0.8429
 4158TIP3    H133965   0.190   4.420  14.365 -1.9534 -0.8025  0.5828
 4158TIP3    H233966   0.158   4.555  14.304 -1.3846 -0.0832  1.8327
 4159TIP3   OH233967   3.557   2.048  12.553  0.2981  0.4670 -0.5703
 4159TIP3    H133968   3.518   2.057  12.640 -0.6605  0.8994 -1.0309
 4159TIP3    H233969   3.538   2.132  12.509 -2.6627 -1.0636 -2.5417
 4160TIP3   OH233970   4.969   6.540   5.231  0.2448 -0.4317  0.4358
 4160TIP3    H133971   4.996   6.631   5.244  0.8977 -0.8281  2.0666
 4160TIP3    H233972   4.989   6.497   5.314 -1.2834 -1.7807  0.1615
 4161TIP3   OH233973   0.130   3.598   4.749 -0.1016  0.0134 -0.0787
 4161TIP3    H133974   0.038   3.570   4.746  0.0140 -0.3709 -0.1629
 4161TIP3    H233975   0.156   3.603   4.657 -0.7644  2.6349 -0.2002
 4162TIP3   OH233976   0.006   5.889   4.130 -0.3613  0.4000  0.1898
 4162TIP3    H133977   0.000   5.982   4.106 -0.4630  0.1369 -0.8638
 4162TIP3    H233978   0.062   5.888   4.207 -0.5513  1.3619  0.3634
 4163TIP3   OH233979   3.184   1.162   1.847 -0.1101 -0.0602 -0.0932
 4163TIP3    H133980   3.109   1.102   1.844 -0.8577  0.8515 -0.1179
 4163TIP3    H233981   3.156   1.237   1.795  1.0649  0.0392 -0.6025
 4164TIP3   OH233982   6.775   5.792   3.536  0.6416 -0.1048 -0.8426
 4164TIP3    H133983   6.793   5.843   3.614  0.7178  2.3122 -2.3583
 4164TIP3    H233984   6.853   5.799   3.482 -0.1764  0.0658 -2.0616
 4165TIP3   OH233985   0.462   3.513  13.428 -0.3117  0.0382 -0.0690
 4165TIP3    H133986   0.527   3.566  13.475 -1.0990 -0.7309  1.9981
 4165TIP3    H233987   0.513   3.461  13.367  1.1732 -1.0917  2.0140
 4166TIP3   OH233988   4.237   4.272  13.313  0.2055 -0.1713 -0.2619
 4166TIP3    H133989   4.169   4.313  13.260 -0.4630 -2.3690 -1.2340
 4166TIP3    H233990   4.209   4.286  13.403  0.4663  2.1564 -0.4771
 4167TIP3   OH233991   5.732   6.614  15.036 -0.4556 -0.3210  0.2348
 4167TIP3    H133992   5.767   6.625  15.125 -0.6238 -2.3850  0.6127
 4167TIP3    H233993   5.746   6.699  14.994 -0.5975  0.7904  2.2955
 4168TIP3   OH233994   3.815   0.760   6.546  0.4499 -0.1639  0.2961
 4168TIP3    H133995   3.845   0.823   6.611 -0.9501  1.3171 -0.4339
 4168TIP3    H233996   3.888   0.751   6.485 -0.1191  2.5896 -0.9016
 4169TIP3   OH233997   0.778   5.556  11.341 -0.2972  0.2662 -0.2472
 4169TIP3    H133998   0.729   5.636  11.362 -0.1852  0.0841  0.7625
 4169TIP3    H233999   0.726   5.486  11.380 -0.1365 -0.1091 -0.6990
 4170TIP3   OH234000   5.231   2.361  12.049  0.1950 -0.0575  0.1882
 4170TIP3    H134001   5.146   2.389  12.084  0.3505 -0.4253  0.8790
 4170TIP3    H234002   5.227   2.265  12.050  0.7874 -0.0842  0.6652
 4171TIP3   OH234003   4.192   2.421   5.278 -0.1624 -1.1451 -0.1062
 4171TIP3    H134004   4.138   2.357   5.232 -1.4140 -0.8182  0.8858
 4171TIP3    H234005   4.141   2.502   5.275  0.1327 -0.9003  1.0827
 4172TIP3   OH234006   0.045   4.803  14.800  0.6921  1.7453 -0.0923
 4172TIP3    H134007  -0.020   4.773  14.862  0.6934 -0.7765 -1.1945
 4172TIP3    H234008   0.047   4.899  14.811 -2.4832  1.8244  0.6186
 4173TIP3   OH234009   4.020   3.851  12.927 -0.1602  0.3099  0.7257
 4173TIP3    H134010   3.989   3.936  12.957  0.0045  0.9283 -0.7903
 4173TIP3    H234011   4.018   3.857  12.831  1.0036 -0.9719  0.5961
 4174TIP3   OH234012   5.620   2.789   2.459  0.2832  0.2967 -0.5987
 4174TIP3    H134013   5.615   2.843   2.538  0.8879  2.1645 -1.7682
 4174TIP3    H234014   5.709   2.801   2.427  0.0585 -0.4330 -1.5714
 4175TIP3   OH234015   1.370   5.165  14.984 -0.3299  0.3055  0.6334
 4175TIP3    H134016   1.318   5.218  14.924 -0.2423  0.9676  1.1227
 4175TIP3    H234017   1.309   5.142  15.054 -0.0590  0.8150  1.0459
 4176TIP3   OH234018   3.423   0.046  10.756 -0.6657 -0.3995  0.0774
 4176TIP3    H134019   3.353   0.054  10.691  0.0056 -1.4388 -0.8017
 4176TIP3    H234020   3.473   0.127  10.746  0.1166 -1.0385 -1.5681
 4177TIP3   OH234021   5.949   1.110  15.453  0.6098 -0.2097 -0.1454
 4177TIP3    H134022   5.908   1.175  15.395 -1.1866 -0.7134  0.4796
 4177TIP3    H234023   5.917   1.134  15.541  1.6254 -0.6891  0.3661
 4178TIP3   OH234024   4.384   4.975   3.345 -0.1879 -0.4053  0.1188
 4178TIP3    H134025   4.419   5.059   3.314 -0.0324 -0.7940 -0.8072
 4178TIP3    H234026   4.312   4.956   3.285 -1.7770  0.1868  1.7465
 4179TIP3   OH234027   1.515   6.548  17.238 -0.6287  0.1554 -0.2851
 4179TIP3    H134028   1.579   6.594  17.292 -0.5689 -0.7481  0.4298
 4179TIP3    H234029   1.565   6.478  17.196 -1.3472 -1.3444  1.2372
 4180TIP3   OH234030   5.120   4.429  12.447 -0.1985 -0.4514  0.0409
 4180TIP3    H134031   5.038   4.465  12.482  1.4822  0.9618  2.8932
 4180TIP3    H234032   5.135   4.350  12.499 -0.5965 -1.7459 -1.7329
 4181TIP3   OH234033   5.864   4.520   2.123  0.1341  0.3844 -0.1956
 4181TIP3    H134034   5.862   4.492   2.215  0.0590  0.0643 -0.2910
 4181TIP3    H234035   5.928   4.462   2.082  0.7587  1.0509 -0.1816
 4182TIP3   OH234036   3.937   1.767  17.112  0.5243 -0.4609  0.0259
 4182TIP3    H134037   3.927   1.739  17.021 -0.3381  0.1047 -0.0645
 4182TIP3    H234038   3.990   1.699  17.152 -0.4672 -1.5863 -0.5016
 4183TIP3   OH234039   6.398   2.903   5.964  0.6908  0.5557 -0.6942
 4183TIP3    H134040   6.489   2.899   5.993  0.5488  1.1124 -0.1723
 4183TIP3    H234041   6.369   2.812   5.966  0.1312  0.6977  2.6836
 4184TIP3   OH234042   1.416   3.305  12.176 -0.6746  0.3337 -0.5305
 4184TIP3    H134043   1.352   3.275  12.112 -1.4270  0.0191  0.3523
 4184TIP3    H234044   1.365   3.344  12.246  0.2006  1.8203 -0.6811
 4185TIP3   OH234045   0.331   1.914  12.935 -0.5027  0.6374 -0.3106
 4185TIP3    H134046   0.288   1.980  12.880 -1.3761  0.8314  0.5893
 4185TIP3    H234047   0.261   1.877  12.988 -0.1021 -1.2652 -1.0055
 4186TIP3   OH234048   3.719   0.872   6.036  0.3148 -0.4746 -0.7152
 4186TIP3    H134049   3.657   0.843   5.970 -1.1178 -0.5847  0.6176
 4186TIP3    H234050   3.754   0.791   6.074  0.8143 -0.4121 -1.0260
 4187TIP3   OH234051   0.668   6.407   4.288  0.1165 -0.3336 -0.1071
 4187TIP3    H134052   0.662   6.311   4.289  1.7810 -0.4657  0.4299
 4187TIP3    H234053   0.595   6.435   4.233 -1.7234 -1.7887  1.4183
 4188TIP3   OH234054   1.654   0.532  14.401 -0.2145 -0.7991  0.2414
 4188TIP3    H134055   1.624   0.492  14.483  1.5224 -1.1518  0.7326
 4188TIP3    H234056   1.743   0.500  14.389 -0.3844 -0.6568 -1.7500
 4189TIP3   OH234057   3.886   0.054  17.070 -0.3020 -0.0762  0.2776
 4189TIP3    H134058   3.933   0.016  17.144  0.1977 -1.5763 -0.7650
 4189TIP3    H234059   3.844  -0.020  17.027  0.0049  0.6468 -1.3509
 4190TIP3   OH234060   1.656   4.229   3.451 -0.0621 -0.0700 -0.6572
 4190TIP3    H134061   1.704   4.147   3.469  1.5931  0.9574 -0.1661
 4190TIP3    H234062   1.564   4.207   3.467  0.5814 -1.1845  2.0341
 4191TIP3   OH234063   2.425   0.313   1.737 -0.6221 -0.9050 -0.1443
 4191TIP3    H134064   2.477   0.272   1.806  0.3059  0.0494 -0.2552
 4191TIP3    H234065   2.464   0.279   1.656 -0.1763 -0.2229 -0.2262
 4192TIP3   OH234066   1.854   4.874   0.084  0.0567  0.2597  0.3087
 4192TIP3    H134067   1.929   4.823   0.053 -0.5485 -1.0630  0.9176
 4192TIP3    H234068   1.886   4.918   0.163  0.3676  0.2164  0.2092
 4193TIP3   OH234069   6.767   3.399   5.705  0.2572 -0.0942  0.8746
 4193TIP3    H134070   6.859   3.399   5.732  0.4726  1.7782  0.2729
 4193TIP3    H234071   6.770   3.418   5.611 -0.7783  1.8047  1.1793
 4194TIP3   OH234072   3.657   2.150  16.565 -0.2160 -0.4365 -0.5550
 4194TIP3    H134073   3.635   2.225  16.621 -0.1206 -0.5398 -0.3787
 4194TIP3    H234074   3.632   2.178  16.477  0.5563  0.1076 -0.6113
 4195TIP3   OH234075   1.753   4.872  14.497 -0.4353 -0.0718 -0.4579
 4195TIP3    H134076   1.834   4.908  14.459 -0.2004  0.1994  0.2855
 4195TIP3    H234077   1.703   4.949  14.522  0.1267 -0.2371  1.2745
 4196TIP3   OH234078   6.099   1.567  14.622 -0.1656  0.1094 -0.0291
 4196TIP3    H134079   6.122   1.474  14.617  0.4012  0.2766 -0.9162
 4196TIP3    H234080   6.177   1.609  14.659 -0.6187  0.1693  0.8661
 4197TIP3   OH234081   6.281   4.964  15.018 -0.4300  0.2153  0.6317
 4197TIP3    H134082   6.281   4.869  15.031  1.0434 -0.0203 -0.8035
 4197TIP3    H234083   6.348   4.979  14.951 -1.1189  2.2051  0.3294
 4198TIP3   OH234084   1.337   1.185  12.779  0.3812 -0.0856 -0.1611
 4198TIP3    H134085   1.247   1.177  12.747  0.5687  1.9808 -1.3664
 4198TIP3    H234086   1.344   1.118  12.847 -2.7279  0.9653  1.4147
 4199TIP3   OH234087   5.991   1.902  16.558  0.8875 -0.2905 -0.2865
 4199TIP3    H134088   5.927   1.834  16.537  0.9366 -0.3264 -0.3186
 4199TIP3    H234089   6.047   1.907  16.481 -0.2278  1.0857 -1.0595
 4200TIP3   OH234090   1.775   3.853   4.882 -0.0983 -0.3227 -0.5283
 4200TIP3    H134091   1.690   3.815   4.903 -0.8241 -0.1118 -2.8829
 4200TIP3    H234092   1.831   3.830   4.957 -2.2996 -0.1052  1.2673
 4201TIP3   OH234093   4.784   5.422  17.153 -0.4390  0.3126  0.5191
 4201TIP3    H134094   4.857   5.433  17.213 -1.4808  1.1525  1.6684
 4201TIP3    H234095   4.736   5.347  17.186 -0.9304  0.6805  0.6479
 4202TIP3   OH234096   2.176   2.170  13.968 -0.6190  0.3239 -0.4071
 4202TIP3    H134097   2.195   2.257  14.003 -0.7851 -0.1760  0.9834
 4202TIP3    H234098   2.080   2.167  13.963 -0.6208  0.1521 -0.2713
 4203TIP3   OH234099   3.172   5.035   0.526  0.3587  0.3601  0.0182
 4203TIP3    H134100   3.140   5.034   0.436  1.0185  2.4575 -0.2932
 4203TIP3    H234101   3.127   4.961   0.568  0.8877 -1.3833 -2.2707
 4204TIP3   OH234102   6.655   4.041  13.986 -0.1067  0.1960 -0.0696
 4204TIP3    H134103   6.560   4.030  13.999  0.1457 -1.5375  0.5142
 4204TIP3    H234104   6.684   3.958  13.949  1.4367  0.0742  1.3020
 4205TIP3   OH234105   1.705   2.472   0.056 -0.2356 -0.0717  0.4194
 4205TIP3    H134106   1.753   2.402   0.012  0.7840  1.0225 -0.2908
 4205TIP3    H234107   1.633   2.428   0.102  0.1686 -1.5208 -0.2917
 4206TIP3   OH234108   0.587   2.307  12.694  0.5223  0.0930  0.0780
 4206TIP3    H134109   0.587   2.403  12.690 -2.9878  0.2153  0.1829
 4206TIP3    H234110   0.524   2.280  12.628  1.5306 -2.2212 -0.0427
 4207TIP3   OH234111   1.255   6.440  12.677  0.7826  0.1937 -1.0456
 4207TIP3    H134112   1.273   6.504  12.746 -0.3254 -0.7978  0.2369
 4207TIP3    H234113   1.341   6.407  12.652  1.1759 -0.1936  0.6694
 4208TIP3   OH234114   4.461   6.077  12.078 -0.0707 -0.2764 -0.6105
 4208TIP3    H134115   4.542   6.112  12.042 -0.0993 -1.7610 -2.2437
 4208TIP3    H234116   4.391   6.115  12.025 -0.5709  1.4181  1.1237
 4209TIP3   OH234117   6.581   5.101   2.089  0.2230  0.2151  0.0967
 4209TIP3    H134118   6.502   5.101   2.144  0.0483 -2.5278 -0.0023
 4209TIP3    H234119   6.649   5.067   2.146  1.1378  1.6499 -0.1094
 4210TIP3   OH234120   2.808   1.509   0.856  0.7883  0.0181 -0.1697
 4210TIP3    H134121   2.903   1.498   0.856  1.0505  1.7759  1.2061
 4210TIP3    H234122   2.776   1.454   0.927  1.1757  1.6350  1.3432
 4211TIP3   OH234123   2.151   6.565  17.109  0.2801  0.0405  0.3158
 4211TIP3    H134124   2.058   6.543  17.114  0.4888 -1.2696 -0.7438
 4211TIP3    H234125   2.192   6.510  17.175  0.4686 -0.5922 -0.3132
 4212TIP3   OH234126   6.480   0.839  12.446  0.0569 -0.0457 -0.2668
 4212TIP3    H134127   6.395   0.868  12.479  0.1450  0.8657 -0.8074
 4212TIP3    H234128   6.483   0.746  12.465 -1.2528 -0.1775 -0.6237
 4213TIP3   OH234129   5.116   2.054  17.223 -0.4764  0.0894  0.4444
 4213TIP3    H134130   5.031   2.022  17.252 -0.9400 -0.1251 -1.0696
 4213TIP3    H234131   5.179   2.013  17.282 -1.5158  1.9475  3.0128
 4214TIP3   OH234132   6.414   1.927  15.392 -0.1784 -0.0959  0.0395
 4214TIP3    H134133   6.459   2.004  15.358  0.6279 -0.8976 -0.7757
 4214TIP3    H234134   6.324   1.936  15.361 -0.1591  0.6508  0.1942
 4215TIP3   OH234135   3.689   3.102  16.121 -0.7407  0.1401  0.5775
 4215TIP3    H134136   3.691   3.039  16.194 -0.2094  0.8862  1.2262
 4215TIP3    H234137   3.760   3.162  16.140  0.7946 -0.8297 -1.6724
 4216TIP3   OH234138   2.862   2.533   3.680  0.3234  0.0161  0.7507
 4216TIP3    H134139   2.940   2.484   3.705 -0.1795 -1.2460 -0.0392
 4216TIP3    H234140   2.896   2.610   3.635  1.1253 -0.8898 -0.2512
 4217TIP3   OH234141   6.647   2.941  11.565 -0.1692  0.5044  0.1622
 4217TIP3    H134142   6.709   3.001  11.523 -0.1185 -0.1687 -0.7668
 4217TIP3    H234143   6.561   2.979  11.546 -0.1764 -0.0547 -1.0262
 4218TIP3   OH234144   3.585   3.127  15.521  0.5012  0.5268 -0.3939
 4218TIP3    H134145   3.505   3.119  15.469  0.1499 -1.1341  0.3281
 4218TIP3    H234146   3.568   3.074  15.599  1.4138  2.0657  0.9222
 4219TIP3   OH234147   5.377   0.017   1.200 -0.0617  0.8517  0.2159
 4219TIP3    H134148   5.385   0.048   1.109 -2.1675  0.6278 -0.0790
 4219TIP3    H234149   5.298   0.059   1.233  0.0564  0.0309  1.6065
 4220TIP3   OH234150   2.158   0.615   5.709  0.9435 -0.0418  0.0760
 4220TIP3    H134151   2.134   0.593   5.799 -1.3986 -0.2933 -0.5533
 4220TIP3    H234152   2.075   0.633   5.665  1.9251 -0.8283 -2.2928
 4221TIP3   OH234153   2.015   5.678   3.668  0.7519 -0.4439 -0.5015
 4221TIP3    H134154   2.071   5.707   3.740 -1.0487  0.6509  0.5553
 4221TIP3    H234155   2.005   5.755   3.613 -0.1007 -0.4761 -0.4017
 4222TIP3   OH234156   0.087   2.249  12.358 -1.1047 -0.1001  0.4628
 4222TIP3    H134157   0.062   2.192  12.432 -0.6817  0.9650  1.4618
 4222TIP3    H234158   0.096   2.189  12.284 -0.8233 -1.3302  1.4409
 4223TIP3   OH234159   2.677   3.980  12.601  0.2927 -0.7068  0.0386
 4223TIP3    H134160   2.637   4.055  12.645 -1.0088 -1.5228  0.2863
 4223TIP3    H234161   2.658   3.993  12.509  0.6104 -0.4120  0.0146
 4224TIP3   OH234162   4.105   4.605   2.231  0.7363  0.4968 -0.1675
 4224TIP3    H134163   4.124   4.694   2.199  0.6107  0.2932 -0.8218
 4224TIP3    H234164   4.111   4.550   2.153  3.2895 -0.4756  0.5888
 4225TIP3   OH234165   4.887   3.594  16.236 -0.0731 -0.6961 -0.4886
 4225TIP3    H134166   4.971   3.638  16.222 -0.1009 -0.4802 -0.0144
 4225TIP3    H234167   4.881   3.585  16.331 -1.2538  0.6211 -0.4039
 4226TIP3   OH234168   5.658   4.221   4.842  0.3657  0.2450  0.0126
 4226TIP3    H134169   5.673   4.127   4.843 -2.2863 -0.2579  0.7963
 4226TIP3    H234170   5.567   4.231   4.816  0.1848  2.5097  1.2172
 4227TIP3   OH234171   3.091   4.117  14.563  0.2454 -0.2781  0.4261
 4227TIP3    H134172   2.998   4.104  14.580  0.3748  0.8845  2.3442
 4227TIP3    H234173   3.127   4.143  14.648  2.1138  0.3753 -0.5201
 4228TIP3   OH234174   4.699   4.852  11.642 -0.2564  0.3580  0.1884
 4228TIP3    H134175   4.781   4.888  11.675  0.2764 -3.0170  3.1519
 4228TIP3    H234176   4.716   4.838  11.548  1.1342  3.0445 -0.0708
 4229TIP3   OH234177   4.668   0.227   0.264  0.2370 -0.0577 -0.7870
 4229TIP3    H134178   4.739   0.224   0.199 -0.7924  0.7606 -1.9931
 4229TIP3    H234179   4.639   0.318   0.263 -1.0181 -0.4370 -0.5178
 4230TIP3   OH234180   1.348   0.471  15.139  0.7360 -0.0031 -0.3627
 4230TIP3    H134181   1.372   0.433  15.054  2.1658 -1.1129  0.4945
 4230TIP3    H234182   1.421   0.448  15.197  0.5529  2.1112  0.7920
 4231TIP3   OH234183   0.805   2.886  17.036 -0.9084 -0.3138 -0.1780
 4231TIP3    H134184   0.829   2.837  16.957 -0.7927  1.1321 -1.0619
 4231TIP3    H234185   0.885   2.889  17.088 -0.2186  1.0703 -1.2805
 4232TIP3   OH234186   1.154   5.238   1.251 -0.8635  0.1093  0.0817
 4232TIP3    H134187   1.105   5.291   1.314 -3.7424  1.0676 -2.6632
 4232TIP3    H234188   1.194   5.302   1.192 -0.5643 -0.7418 -0.6552
 4233TIP3   OH234189   5.385   3.623  12.444 -0.5524  0.3312 -0.1259
 4233TIP3    H134190   5.455   3.574  12.488  0.2348  1.4317 -0.1044
 4233TIP3    H234191   5.387   3.710  12.485 -1.8415  0.4283 -0.2343
 4234TIP3   OH234192   0.365   1.481  12.108 -0.2836  0.0480  0.0137
 4234TIP3    H134193   0.381   1.418  12.178  2.2803  2.2372  1.6229
 4234TIP3    H234194   0.426   1.455  12.038 -0.5364 -0.2776 -0.0896
 4235TIP3   OH234195   1.672   0.451  15.019  0.3066 -0.1618 -0.1929
 4235TIP3    H134196   1.735   0.386  14.988  0.0511  0.0639 -1.2229
 4235TIP3    H234197   1.597   0.442  14.959 -0.1698  0.3394  0.3196
 4236TIP3   OH234198   2.923   6.430   5.252  0.7923  0.4193  0.2900
 4236TIP3    H134199   2.861   6.359   5.232  1.3581 -0.1481  0.5171
 4236TIP3    H234200   2.990   6.423   5.183  0.5680  1.0844 -0.0054
 4237TIP3   OH234201   0.366   4.431   3.723 -0.2834 -0.4692 -0.4844
 4237TIP3    H134202   0.451   4.431   3.680 -0.5628 -0.4156 -1.0544
 4237TIP3    H234203   0.354   4.520   3.755  0.6067 -0.8855  1.1143
 4238TIP3   OH234204   3.739   2.365  13.430  0.7991  0.0152  0.2905
 4238TIP3    H134205   3.700   2.282  13.458 -1.1156  1.2963  1.6651
 4238TIP3    H234206   3.804   2.385  13.498  1.9384 -0.7435 -0.5263
 4239TIP3   OH234207   6.807   6.324   5.067  0.4624  0.1675 -0.2877
 4239TIP3    H134208   6.716   6.314   5.039  0.3899  1.7514 -0.7038
 4239TIP3    H234209   6.822   6.249   5.126 -0.7945 -0.6450 -0.9535
 4240TIP3   OH234210   1.283   0.338   3.962 -0.1648  0.4908 -0.0391
 4240TIP3    H134211   1.332   0.275   3.909  1.7457  1.8773 -0.0097
 4240TIP3    H234212   1.308   0.319   4.052 -0.7092  0.3829  0.0950
 4241TIP3   OH234213   4.300   6.142   0.485 -0.2978 -0.6533  0.3169
 4241TIP3    H134214   4.276   6.101   0.401  0.8763 -1.9095  0.5519
 4241TIP3    H234215   4.354   6.076   0.529  2.0594  1.2789  0.5467
 4242TIP3   OH234216   0.412   4.658  11.320 -0.2564  0.4498  0.0874
 4242TIP3    H134217   0.382   4.667  11.410  0.7071 -0.2027  0.4935
 4242TIP3    H234218   0.467   4.735  11.305 -0.0329  0.3137  0.2124
 4243TIP3   OH234219   0.769   0.325  16.131 -0.2389  0.3139 -0.2933
 4243TIP3    H134220   0.773   0.230  16.118 -0.3438  0.5062 -1.8379
 4243TIP3    H234221   0.861   0.352  16.135 -0.1836  0.3779 -1.7409
 4244TIP3   OH234222   5.486   4.310   4.143  0.2013 -0.6312  0.5005
 4244TIP3    H134223   5.401   4.349   4.122  1.1329  1.7273  0.8116
 4244TIP3    H234224   5.542   4.334   4.069  2.3924  4.1498  3.1954
 4245TIP3   OH234225   4.743   4.698  14.494 -0.0506  0.9781  0.1119
 4245TIP3    H134226   4.820   4.654  14.530 -0.0695  0.9970  0.1744
 4245TIP3    H234227   4.763   4.791  14.502  0.3722  0.9852 -0.8395
 4246TIP3   OH234228   0.216   3.701  16.683 -0.3658  0.0629 -0.2876
 4246TIP3    H134229   0.267   3.633  16.727 -0.9146 -0.0169  0.2251
 4246TIP3    H234230   0.125   3.679  16.701 -0.6608 -0.3966 -2.0834
 4247TIP3   OH234231   5.773   0.775  13.212 -0.0002  0.2583  0.0330
 4247TIP3    H134232   5.740   0.863  13.230 -0.2031  0.1286  0.2963
 4247TIP3    H234233   5.843   0.788  13.148 -0.0122  0.6135  0.0919
 4248TIP3   OH234234   0.371   4.355   1.541  0.6607  0.0700  0.4719
 4248TIP3    H134235   0.342   4.444   1.561 -0.5765  0.0032 -0.8419
 4248TIP3    H234236   0.321   4.299   1.600  0.3351  0.1677  0.2949
 4249TIP3   OH234237   1.665   5.907   3.938 -0.0013  0.2178 -0.5570
 4249TIP3    H134238   1.699   5.843   4.001  0.8223  0.4625 -0.7452
 4249TIP3    H234239   1.702   5.991   3.966  1.2861  0.1834 -1.9712
 4250TIP3   OH234240   4.693   4.174   0.298 -0.6325 -0.2302  0.0452
 4250TIP3    H134241   4.688   4.249   0.239  0.6402 -0.2530 -0.1096
 4250TIP3    H234242   4.642   4.106   0.254 -1.1013  0.2778 -0.2076
 4251TIP3   OH234243   4.006   2.583   2.392 -0.0128  0.6211 -0.0820
 4251TIP3    H134244   3.944   2.651   2.420  0.7322  1.6996 -0.9795
 4251TIP3    H234245   4.085   2.599   2.444 -0.6312 -1.1464  1.5267
 4252TIP3   OH234246   1.513   5.289  13.126 -0.6111  0.0809  0.4773
 4252TIP3    H134247   1.483   5.341  13.200  0.9058 -0.6473  1.6456
 4252TIP3    H234248   1.571   5.348  13.078  0.3706 -0.2117  1.2792
 4253TIP3   OH234249   2.520   2.465   4.204 -0.3848 -0.0030  0.1803
 4253TIP3    H134250   2.518   2.550   4.248 -1.0583 -0.0426  0.2363
 4253TIP3    H234251   2.429   2.437   4.203 -0.0772 -1.0664  0.8064
 4254TIP3   OH234252   1.045   3.915  14.891 -0.0425 -0.1673  0.0344
 4254TIP3    H134253   1.051   4.007  14.916 -0.0940  0.1153 -0.9356
 4254TIP3    H234254   0.973   3.913  14.827  0.2814 -0.7886 -0.3192
 4255TIP3   OH234255   1.569   5.967  16.316 -0.4435 -0.9262 -0.0370
 4255TIP3    H134256   1.515   5.971  16.394 -2.5590  1.3665 -1.4582
 4255TIP3    H234257   1.651   6.009  16.341 -0.9419 -0.5833  1.0577
 4256TIP3   OH234258   1.541   2.815   3.068  0.7305 -0.3746  0.5435
 4256TIP3    H134259   1.524   2.804   3.162  1.1811 -0.0718  0.6623
 4256TIP3    H234260   1.587   2.735   3.043 -0.6551 -1.1102  0.2619
 4257TIP3   OH234261   6.453   2.086  14.874 -0.3324  0.0589  0.1839
 4257TIP3    H134262   6.446   2.101  14.780 -0.1193 -0.4624  0.0808
 4257TIP3    H234263   6.373   2.123  14.910  1.7502  5.1591  0.4658
 4258TIP3   OH234264   6.059   0.487   4.967 -0.2469  0.2845  0.3582
 4258TIP3    H134265   6.126   0.418   4.966 -2.1292 -1.6554  0.6843
 4258TIP3    H234266   6.048   0.511   4.875  1.5446  1.3628  0.3799
 4259TIP3   OH234267   1.041   4.467   3.476 -0.0200  0.4769 -0.2100
 4259TIP3    H134268   1.109   4.407   3.507 -0.8605  0.2751  1.3702
 4259TIP3    H234269   1.030   4.445   3.383 -0.1114 -1.6370  0.2464
 4260TIP3   OH234270   0.011   2.584   2.769 -0.4737 -0.2146  0.0802
 4260TIP3    H134271   0.073   2.530   2.819  0.1062 -0.4356 -0.8538
 4260TIP3    H234272  -0.064   2.594   2.827  0.2093 -0.4077  1.0230
 4261TIP3   OH234273   5.992   3.599   1.898  0.0437  0.5736  0.5221
 4261TIP3    H134274   6.031   3.521   1.937 -0.4538 -1.7546 -3.1730
 4261TIP3    H234275   6.063   3.664   1.900  1.9793 -1.3785 -0.1074
 4262TIP3   OH234276   6.702   0.726   5.937  0.5018  0.3378 -0.0390
 4262TIP3    H134277   6.748   0.808   5.919  0.1840  1.2136  2.6936
 4262TIP3    H234278   6.635   0.750   6.002  1.1404 -2.2664  1.7259
 4263TIP3   OH234279   6.547   3.702  16.040 -0.0122 -0.3764 -0.3095
 4263TIP3    H134280   6.511   3.741  16.119 -0.6417 -1.3334 -0.1097
 4263TIP3    H234281   6.641   3.720  16.044 -0.3715  1.8446 -0.6574
 4264TIP3   OH234282   2.343   6.417   5.162 -0.3879  0.7466  0.5324
 4264TIP3    H134283   2.387   6.334   5.144 -0.8670  0.3350  1.1977
 4264TIP3    H234284   2.413   6.478   5.184 -0.0546  0.4458  0.3196
 4265TIP3   OH234285   1.072   2.004   1.887  0.1229  0.0314 -0.1597
 4265TIP3    H134286   1.165   2.002   1.910 -0.5609 -3.1307  3.1882
 4265TIP3    H234287   1.043   2.091   1.916  1.7917  0.7730 -0.5412
 4266TIP3   OH234288   0.156   1.211  11.282  0.2219 -0.6200  0.4642
 4266TIP3    H134289   0.139   1.292  11.329  1.0115  0.3801 -0.9204
 4266TIP3    H234290   0.117   1.224  11.196  2.6949 -0.5834 -0.7437
 4267TIP3   OH234291   6.199   4.935   4.678  0.5531  0.0958 -0.2119
 4267TIP3    H134292   6.226   5.006   4.619 -1.0303 -0.6001 -1.8765
 4267TIP3    H234293   6.126   4.972   4.728  0.5280  0.0260 -0.1961
 4268TIP3   OH234294   3.842   6.474   0.289  0.2602 -0.3468  0.0699
 4268TIP3    H134295   3.748   6.490   0.296 -0.0181 -1.0572 -1.5095
 4268TIP3    H234296   3.871   6.462   0.379 -0.8683  1.3562  0.7161
 4269TIP3   OH234297   0.242   5.240  13.114  0.1581  0.1411  0.4124
 4269TIP3    H134298   0.240   5.194  13.030  2.3837  0.3002  0.2167
 4269TIP3    H234299   0.210   5.328  13.093  1.6023  0.4849 -0.5337
 4270TIP3   OH234300   4.572   4.622  13.250 -0.3117 -0.4495 -0.8766
 4270TIP3    H134301   4.598   4.686  13.317  0.4158  0.6075 -2.1052
 4270TIP3    H234302   4.637   4.552  13.257 -0.1951 -0.3092 -0.5237
 4271TIP3   OH234303   3.682   0.542   4.135  0.0311 -0.7974 -0.0201
 4271TIP3    H134304   3.638   0.497   4.064  1.2906 -1.5581 -0.3565
 4271TIP3    H234305   3.614   0.596   4.176 -0.6028  0.0845 -2.1064
 4272TIP3   OH234306   0.124   1.674   1.882  0.3078  0.1056  0.1415
 4272TIP3    H134307   0.207   1.669   1.929  0.2358  2.7084  0.6951
 4272TIP3    H234308   0.138   1.741   1.815 -1.2894  0.5085  0.1724
 4273TIP3   OH234309   6.219   3.751  12.217  0.6280  0.0407 -0.3182
 4273TIP3    H134310   6.225   3.843  12.194 -0.4598  0.2851  0.2869
 4273TIP3    H234311   6.163   3.713  12.148 -2.6445  0.7761  1.7107
 4274TIP3   OH234312   1.214   2.163   0.686 -0.2842 -0.3130 -0.1979
 4274TIP3    H134313   1.119   2.170   0.682 -0.3455 -0.5048  0.6781
 4274TIP3    H234314   1.244   2.185   0.598 -1.1366 -0.2347 -0.4733
 4275TIP3   OH234315   3.899   4.901   4.701 -0.7740  0.2784  0.2744
 4275TIP3    H134316   3.827   4.887   4.639 -1.5228 -0.0458  1.1963
 4275TIP3    H234317   3.859   4.951   4.772 -0.1392 -0.1338  0.9233
 4276TIP3   OH234318   1.782   4.480  14.539  0.0844 -0.1364  0.2917
 4276TIP3    H134319   1.699   4.521  14.561 -0.2650 -1.5052  1.6963
 4276TIP3    H234320   1.759   4.405  14.483  0.1932 -1.2944  1.7318
 4277TIP3   OH234321   1.848   6.069  16.459 -0.1362 -0.0702 -0.0652
 4277TIP3    H134322   1.929   6.096  16.415  1.4360  0.3105  2.8044
 4277TIP3    H234323   1.865   5.979  16.487  0.6143  0.9284  3.0930
 4278TIP3   OH234324   2.123   4.136  13.265  0.1701  0.3382 -0.2543
 4278TIP3    H134325   2.191   4.090  13.314 -0.7836  0.0615  0.8393
 4278TIP3    H234326   2.144   4.229  13.276 -0.3070  0.2980  1.1005
 4279TIP3   OH234327   0.869   3.995  12.483  0.3547  0.1179 -0.5825
 4279TIP3    H134328   0.816   3.921  12.454  1.4582  0.0069 -2.4463
 4279TIP3    H234329   0.818   4.072  12.459  0.1630 -0.0083 -0.5851
 4280TIP3   OH234330   0.128   4.083  14.773  0.1245 -0.2383 -0.1510
 4280TIP3    H134331   0.219   4.085  14.744  0.0092 -0.7903 -0.5747
 4280TIP3    H234332   0.097   3.995  14.750 -0.5457 -0.0192 -0.1213
 4281TIP3   OH234333   3.926   2.068   2.508 -0.2594  0.5490  0.1064
 4281TIP3    H134334   3.832   2.067   2.492 -0.2035 -0.8901 -0.2997
 4281TIP3    H234335   3.959   2.140   2.454 -0.9322  0.0105 -1.0804
 4282TIP3   OH234336   5.027   5.614  15.940  0.6632 -0.6607 -0.0407
 4282TIP3    H134337   5.047   5.532  15.896 -1.3236 -0.0087 -2.3455
 4282TIP3    H234338   5.012   5.677  15.870 -2.2740  0.5544  1.4768
 4283TIP3   OH234339   4.445   3.777   2.592 -0.1489  0.2210 -0.6038
 4283TIP3    H134340   4.476   3.786   2.502 -0.7098 -0.6966 -0.8998
 4283TIP3    H234341   4.350   3.765   2.584 -0.8674  4.1392  0.3600
 4284TIP3   OH234342   1.729   5.530   5.535 -0.4607 -0.1137  0.1864
 4284TIP3    H134343   1.720   5.455   5.476 -0.9316 -0.9410  1.2781
 4284TIP3    H234344   1.777   5.495   5.610  1.9106  1.3841 -0.4981
 4285TIP3   OH234345   0.837   4.055   2.952 -0.0892  0.6048  0.1035
 4285TIP3    H134346   0.808   4.143   2.927 -3.6822 -1.0334 -2.4496
 4285TIP3    H234347   0.898   4.029   2.883 -0.7035  0.3660 -0.3592
 4286TIP3   OH234348   1.660   4.280   2.459 -0.1736 -0.4348 -0.0620
 4286TIP3    H134349   1.712   4.205   2.431 -0.1929 -0.2397 -0.6465
 4286TIP3    H234350   1.628   4.256   2.546 -1.4893 -1.8116 -0.8592
 4287TIP3   OH234351   1.273   6.115  10.997 -0.1726  0.3148  0.3819
 4287TIP3    H134352   1.218   6.171  10.943  0.3927  0.9258  0.4242
 4287TIP3    H234353   1.359   6.120  10.956  0.3518  1.0571  1.5131
 4288TIP3   OH234354   0.759   1.905  13.963  0.4129  0.2085 -0.0396
 4288TIP3    H134355   0.771   1.880  14.055  0.9559  2.0436  0.4344
 4288TIP3    H234356   0.666   1.887  13.946  0.6836 -1.7276  0.3164
 4289TIP3   OH234357   0.560   2.536   4.838  0.3144  0.1650 -0.4453
 4289TIP3    H134358   0.474   2.494   4.835  0.0191  0.2507  2.9278
 4289TIP3    H234359   0.578   2.561   4.747 -3.0023 -0.2345 -1.3334
 4290TIP3   OH234360   4.224   1.769  12.183 -0.8776  0.1927  0.6320
 4290TIP3    H134361   4.192   1.850  12.143 -0.0171  0.2081 -0.0425
 4290TIP3    H234362   4.170   1.701  12.143  1.9308 -0.1674 -3.0513
 4291TIP3   OH234363   5.118   6.501   4.291 -0.3628 -0.4476 -0.6530
 4291TIP3    H134364   5.133   6.439   4.220  0.3188 -0.4309 -0.5270
 4291TIP3    H234365   5.097   6.446   4.366  2.4270 -0.7048  0.0412
 4292TIP3   OH234366   5.349   6.419   5.921  0.4375  0.1734 -0.5184
 4292TIP3    H134367   5.306   6.483   5.977 -0.2874  0.2581 -1.1552
 4292TIP3    H234368   5.278   6.367   5.885  0.8447  0.3612 -1.6463
 4293TIP3   OH234369   1.309   2.724   2.509 -0.2762 -0.0717  0.2523
 4293TIP3    H134370   1.389   2.748   2.555  0.0215 -2.3843  1.0499
 4293TIP3    H234371   1.244   2.712   2.578 -0.9889  0.5449 -0.2895
 4294TIP3   OH234372   6.235   0.635   5.547 -0.0244  0.6091 -0.2135
 4294TIP3    H134373   6.145   0.651   5.576 -0.3192 -1.6200  0.3548
 4294TIP3    H234374   6.264   0.718   5.510 -0.0829  3.5090  5.2394
 4295TIP3   OH234375   0.099   3.283   0.045  0.4182  0.2750  0.2434
 4295TIP3    H134376   0.145   3.251  -0.032  0.7486 -0.3589  0.6986
 4295TIP3    H234377   0.149   3.360   0.073 -1.3520  2.3617 -1.8774
 4296TIP3   OH234378   0.076   4.751   1.975 -0.1520 -0.0011  0.0384
 4296TIP3    H134379   0.114   4.673   2.016  0.5683  0.9699  1.3097
 4296TIP3    H234380   0.103   4.823   2.032 -0.9594  1.1616 -0.9989
 4297TIP3   OH234381   3.418   3.533  12.374  0.2444 -0.2851 -0.5122
 4297TIP3    H134382   3.418   3.627  12.354  2.2507  0.4175  2.2499
 4297TIP3    H234383   3.510   3.509  12.379  0.0866 -0.8680  4.5842
 4298TIP3   OH234384   2.635   1.812   5.712  0.1481 -0.0373  0.3748
 4298TIP3    H134385   2.701   1.857   5.660 -0.2146  0.2117  0.1262
 4298TIP3    H234386   2.669   1.722   5.721  0.0549 -0.1803 -0.5772
 4299TIP3   OH234387   3.282   0.951   6.056  0.1387 -0.2667  0.3684
 4299TIP3    H134388   3.203   0.922   6.101 -0.1822 -1.0211 -0.6410
 4299TIP3    H234389   3.321   0.871   6.022  1.3706  0.0979  0.8940
 4300TIP3   OH234390   4.830   5.421  14.413 -0.0611 -0.3122  0.8435
 4300TIP3    H134391   4.785   5.411  14.329  0.8317 -0.6328  0.3788
 4300TIP3    H234392   4.813   5.339  14.459  1.6493 -1.2933 -0.1591
 4301TIP3   OH234393   2.444   2.836   4.913 -0.2485 -0.0063  0.0454
 4301TIP3    H134394   2.471   2.754   4.954 -1.2845 -0.0016  0.7649
 4301TIP3    H234395   2.375   2.870   4.970  0.6846  1.7538  0.1758
 4302TIP3   OH234396   1.332   4.204  12.264 -0.0794  0.3101 -0.3075
 4302TIP3    H134397   1.268   4.153  12.314  0.9867  1.2084  2.1625
 4302TIP3    H234398   1.405   4.143  12.252  0.1984  0.4714  0.4712
 4303TIP3   OH234399   5.486   2.655   4.379  0.5459  0.7878  1.2629
 4303TIP3    H134400   5.506   2.589   4.445 -0.6888  0.1439  1.0199
 4303TIP3    H234401   5.536   2.628   4.302 -0.7489 -0.5136  0.8255
 4304TIP3   OH234402   4.108   6.397   5.490 -0.6916  0.0756  0.0151
 4304TIP3    H134403   4.099   6.330   5.558 -1.9189  2.0830  1.9712
 4304TIP3    H234404   4.201   6.421   5.494 -0.5710 -0.4189  0.3824
 4305TIP3   OH234405   3.112   3.558  14.567  0.1006 -0.4455 -0.3526
 4305TIP3    H134406   3.088   3.473  14.530 -1.2325 -0.0016 -0.5617
 4305TIP3    H234407   3.036   3.582  14.622  0.4580  0.6093 -0.3008
 4306TIP3   OH234408   3.042   0.295   0.501 -0.6002 -0.4765  0.1253
 4306TIP3    H134409   3.106   0.243   0.550 -1.3133 -2.3012 -0.7875
 4306TIP3    H234410   3.088   0.322   0.422 -0.6047 -0.8013  0.0112
 4307TIP3   OH234411   2.952   5.456  13.833  0.6938  0.0268  0.6361
 4307TIP3    H134412   3.036   5.424  13.801  0.2565 -2.5314  1.8092
 4307TIP3    H234413   2.907   5.487  13.755  1.0981 -2.6075 -0.7672
 4308TIP3   OH234414   6.037   0.212  13.399  0.0607 -0.2028  0.1349
 4308TIP3    H134415   6.063   0.171  13.316 -0.3240  0.1980 -0.1855
 4308TIP3    H234416   5.944   0.191  13.407  0.3456 -1.2077  1.0328
 4309TIP3   OH234417   4.495   3.004   2.977  0.2754  0.1118  0.3030
 4309TIP3    H134418   4.557   2.944   3.018  1.0000  0.8804  0.3458
 4309TIP3    H234419   4.457   3.054   3.050  0.5387  0.5126  0.1694
 4310TIP3   OH234420   4.826   2.686   6.446  0.5978 -0.0310  0.4581
 4310TIP3    H134421   4.820   2.594   6.469  1.4301 -0.3133 -0.3499
 4310TIP3    H234422   4.864   2.728   6.523 -0.2776 -0.2599  1.0254
 4311TIP3   OH234423   1.783   5.668   5.818  0.2995 -0.4077 -0.3122
 4311TIP3    H134424   1.714   5.707   5.871  0.8689  0.5572 -0.2574
 4311TIP3    H234425   1.760   5.575   5.814 -0.8944 -0.1401 -0.1518
 4312TIP3   OH234426   4.559   3.158   2.343  0.5165  0.2334 -0.3704
 4312TIP3    H134427   4.543   3.072   2.383  0.7720  0.1048 -0.5391
 4312TIP3    H234428   4.633   3.194   2.391  0.9611 -0.0144 -0.8639
 4313TIP3   OH234429   3.109   2.767   5.587 -0.1182 -0.5832 -0.6146
 4313TIP3    H134430   3.122   2.827   5.660  0.7040  0.2562 -1.4285
 4313TIP3    H234431   3.168   2.694   5.605 -0.1703 -0.5426 -0.2732
 4314TIP3   OH234432   2.461   3.671  13.869  0.4328 -0.9393  0.1771
 4314TIP3    H134433   2.370   3.698  13.876  0.5108 -0.8342  0.8614
 4314TIP3    H234434   2.477   3.664  13.775 -0.2436 -0.8392  0.0516
 4315TIP3   OH234435   0.573   5.753  16.936  0.2921 -0.1430  0.2085
 4315TIP3    H134436   0.540   5.842  16.940  3.4513  1.0873  1.9098
 4315TIP3    H234437   0.551   5.723  16.847 -1.1694  2.1451 -0.2722
 4316TIP3   OH234438   6.256   6.321   5.970  0.6224 -0.3605 -0.3579
 4316TIP3    H134439   6.346   6.296   5.948 -0.0318 -0.7458 -2.8851
 4316TIP3    H234440   6.217   6.348   5.887 -0.9566  2.0270  1.0380
 4317TIP3   OH234441   3.085   3.297  14.205 -0.6099 -0.2811  0.2266
 4317TIP3    H134442   3.078   3.293  14.109 -3.4182  0.9207  0.2774
 4317TIP3    H234443   3.161   3.353  14.221 -1.4351  1.4382 -1.4137
 4318TIP3   OH234444   2.997   3.434   1.447 -0.5960  0.1744  0.2469
 4318TIP3    H134445   2.948   3.507   1.484 -0.8240  1.0021 -1.5417
 4318TIP3    H234446   2.938   3.359   1.454 -0.9563  0.4995  0.7463
 4319TIP3   OH234447   3.183   1.336   4.843  0.1995 -0.4676  1.0050
 4319TIP3    H134448   3.229   1.268   4.793 -1.6554 -1.3657  0.4340
 4319TIP3    H234449   3.136   1.386   4.776 -1.9712 -1.4141  1.7530
 4320TIP3   OH234450   3.166   5.350  16.465 -0.0138 -0.2831  0.3421
 4320TIP3    H134451   3.226   5.421  16.441  0.7571 -0.7951  0.6971
 4320TIP3    H234452   3.085   5.369  16.418  0.6576  0.0596 -0.7017
 4321TIP3   OH234453   0.786   3.076  11.081  0.1088 -0.1685 -0.1037
 4321TIP3    H134454   0.699   3.046  11.053 -0.1318  0.9486 -0.6267
 4321TIP3    H234455   0.781   3.078  11.176  0.4484 -2.6252  0.0404
 4322TIP3   OH234456   0.230   5.952  13.873 -0.7827 -0.0143 -0.3756
 4322TIP3    H134457   0.240   6.044  13.849 -0.0767 -0.5957 -2.4745
 4322TIP3    H234458   0.179   5.954  13.954  0.4103  2.2701  0.4061
 4323TIP3   OH234459   2.337   3.886   5.493  0.0001  0.5370 -0.1289
 4323TIP3    H134460   2.381   3.963   5.529 -0.4397  0.8202 -0.2050
 4323TIP3    H234461   2.283   3.919   5.422  0.7359 -0.0015 -0.9666
 4324TIP3   OH234462   5.479   6.188   4.560  0.0644 -0.3142  0.1932
 4324TIP3    H134463   5.528   6.261   4.523 -0.8509 -0.6867 -1.8492
 4324TIP3    H234464   5.415   6.165   4.493 -1.5611 -1.1649  1.9478
 4325TIP3   OH234465   3.192   2.376  16.394 -0.9159 -0.0583 -0.7252
 4325TIP3    H134466   3.099   2.360  16.374 -1.3102  2.4336 -1.2149
 4325TIP3    H234467   3.223   2.293  16.429 -3.2829 -1.0284 -0.7051
 4326TIP3   OH234468   1.898   4.102  16.619  0.1324  0.1815 -0.1322
 4326TIP3    H134469   1.887   4.183  16.570 -1.4275  0.4715  0.6233
 4326TIP3    H234470   1.936   4.129  16.702  0.7907 -0.0364 -0.3579
 4327TIP3   OH234471   5.648   1.956  11.586  0.1221  0.4944  0.0672
 4327TIP3    H134472   5.573   1.908  11.622  1.1480  0.1829  1.9045
 4327TIP3    H234473   5.645   1.938  11.492 -0.8339 -1.3206  0.3994
 4328TIP3   OH234474   1.908   4.297   3.604 -0.3117 -0.7746 -0.1590
 4328TIP3    H134475   1.818   4.330   3.604  0.1414  0.5230 -0.6541
 4328TIP3    H234476   1.903   4.214   3.556 -1.2035 -0.6152 -0.3684
 4329TIP3   OH234477   3.866   5.694   1.103 -0.4208  0.3757  0.0499
 4329TIP3    H134478   3.827   5.621   1.055 -0.1361 -0.0701  0.4833
 4329TIP3    H234479   3.960   5.677   1.101 -0.1453  1.8046 -1.5797
 4330TIP3   OH234480   3.141   4.653  11.297  0.1821 -0.2025 -0.2814
 4330TIP3    H134481   3.147   4.748  11.291  0.4174 -0.2512 -0.8196
 4330TIP3    H234482   3.182   4.620  11.217 -0.4894 -0.7401 -0.4147
 4331TIP3   OH234483   0.378   6.239  11.774  0.1883 -0.2136 -0.2040
 4331TIP3    H134484   0.346   6.302  11.709  1.1685 -1.0972 -1.5943
 4331TIP3    H234485   0.359   6.281  11.858 -2.1844  0.4497 -0.9822
 4332TIP3   OH234486   1.044   0.541   3.331  0.7267 -0.0465  0.1300
 4332TIP3    H134487   1.068   0.605   3.398  1.3824 -0.1215 -0.0244
 4332TIP3    H234488   0.951   0.556   3.315  0.9383  1.0769 -0.1333
 4333TIP3   OH234489   1.959   1.054   2.167  0.2620  0.0198 -0.2792
 4333TIP3    H134490   1.919   0.994   2.104  0.6447  0.2986 -0.7986
 4333TIP3    H234491   1.890   1.071   2.231  0.0650 -0.7495 -0.2802
 4334TIP3   OH234492   4.777   1.765  15.209 -0.3123 -0.1555  0.2509
 4334TIP3    H134493   4.716   1.784  15.138 -1.5666 -1.4248  0.9391
 4334TIP3    H234494   4.843   1.707  15.170  0.0367  0.6014 -0.3025
 4335TIP3   OH234495   1.392   2.025   3.105 -0.0156  0.2608 -0.5489
 4335TIP3    H134496   1.371   2.114   3.076  1.8212  0.5488 -1.1184
 4335TIP3    H234497   1.308   1.981   3.111 -0.9346  1.9387 -0.6019
 4336TIP3   OH234498   0.921   1.529   6.064  0.0643  0.2665 -0.2396
 4336TIP3    H134499   0.861   1.542   6.137 -0.8888  0.4680 -1.0409
 4336TIP3    H234500   1.002   1.572   6.092 -0.9832  2.3498 -0.1916
 4337TIP3   OH234501   2.832   4.207  12.198 -0.0404 -0.1064 -0.2705
 4337TIP3    H134502   2.880   4.203  12.281  1.2519 -1.4633 -1.0452
 4337TIP3    H234503   2.829   4.117  12.167 -0.6705  0.3516 -1.6187
 4338TIP3   OH234504   2.898   0.222  15.722 -0.3467  0.1637  0.0539
 4338TIP3    H134505   2.866   0.213  15.811 -0.2942  0.4863  0.1089
 4338TIP3    H234506   2.974   0.164  15.717 -0.6040 -0.1782  0.0898
 4339TIP3   OH234507   6.245   2.994   0.962 -0.3305  0.6041 -0.6364
 4339TIP3    H134508   6.328   2.967   0.923 -0.9757  0.9574 -2.3612
 4339TIP3    H234509   6.179   2.970   0.897 -1.4207  1.7675 -0.0166
 4340TIP3   OH234510   3.664   4.451   5.267  0.1665 -0.0950  0.5627
 4340TIP3    H134511   3.589   4.466   5.210 -0.7688  0.1507  1.8160
 4340TIP3    H234512   3.637   4.378   5.323 -0.1147  1.4744  2.5924
 4341TIP3   OH234513   4.514   6.249  14.654 -0.2432 -0.1896  1.1247
 4341TIP3    H134514   4.466   6.187  14.599  0.8686 -0.8384  0.8544
 4341TIP3    H234515   4.530   6.324  14.597  1.1658 -0.9829  0.4307
 4342TIP3   OH234516   3.881   5.584  15.434  0.3272 -0.3923  0.4040
 4342TIP3    H134517   3.916   5.574  15.346  1.2996  0.3722  0.6831
 4342TIP3    H234518   3.827   5.663  15.430 -0.4895 -0.9471  0.2475
 4343TIP3   OH234519   1.822   1.924   4.035 -0.0023  0.7585 -0.4611
 4343TIP3    H134520   1.837   1.922   3.941  1.4116  0.8956 -0.2548
 4343TIP3    H234521   1.846   1.836   4.065  1.5176  1.3241  0.0348
 4344TIP3   OH234522   2.979   4.617  11.753 -0.2499  0.0842 -0.5465
 4344TIP3    H134523   2.992   4.677  11.827  0.7589  0.1773 -0.7945
 4344TIP3    H234524   2.926   4.667  11.691  0.7917  0.8266 -0.8614
 4345TIP3   OH234525   5.950   0.318  16.164  0.1306  0.9033 -0.1381
 4345TIP3    H134526   5.951   0.382  16.236 -1.1589 -0.3076  1.0100
 4345TIP3    H234527   6.042   0.303  16.144  0.6839 -0.4716  2.9032
 4346TIP3   OH234528   1.531   4.785   5.193  0.3112  0.2265  0.0117
 4346TIP3    H134529   1.623   4.759   5.194  0.2602 -0.2038 -2.2917
 4346TIP3    H234530   1.532   4.878   5.171  0.1824 -0.1862 -1.8909
 4347TIP3   OH234531   6.552   0.727  14.814 -0.4116 -0.4028 -0.4650
 4347TIP3    H134532   6.560   0.809  14.863 -1.5984  0.0585 -0.9953
 4347TIP3    H234533   6.481   0.743  14.752  1.4681 -0.7200 -2.8539
 4348TIP3   OH234534   5.194   6.085  10.525  0.0276  0.7469 -0.7779
 4348TIP3    H134535   5.194   6.000  10.482  0.1035  1.0867 -1.4700
 4348TIP3    H234536   5.277   6.088  10.573 -0.0649  0.3555 -0.5901
 4349TIP3   OH234537   4.506   3.217  13.044  0.3763 -0.1300 -0.0307
 4349TIP3    H134538   4.501   3.286  13.110 -0.0468  0.6691 -0.8752
 4349TIP3    H234539   4.523   3.137  13.094 -0.3414  0.3856  1.0741
 4350TIP3   OH234540   2.967   5.431  17.267  0.1428 -0.0401  0.4771
 4350TIP3    H134541   2.907   5.496  17.301  1.2528  1.7955 -0.8956
 4350TIP3    H234542   2.914   5.378  17.207 -1.3940 -2.2027  3.4619
 4351TIP3   OH234543   2.911   6.531  13.657 -0.0211  0.4634 -0.0252
 4351TIP3    H134544   2.958   6.537  13.575 -1.0585 -0.5821 -0.7236
 4351TIP3    H234545   2.834   6.587  13.644  1.1447  2.5319  1.2642
 4352TIP3   OH234546   3.349   2.025   2.363 -0.0695  0.3660  0.1369
 4352TIP3    H134547   3.314   1.938   2.384 -1.5282  1.1452  1.0834
 4352TIP3    H234548   3.370   2.063   2.448  2.0682  0.3890 -0.3430
 4353TIP3   OH234549   4.104   4.714  13.046  0.2404 -0.3197  0.2800
 4353TIP3    H134550   4.148   4.775  12.987 -0.9387 -0.6404 -0.9970
 4353TIP3    H234551   4.173   4.652  13.071  0.9399  0.2527 -0.1749
 4354TIP3   OH234552   5.422   2.083  15.976 -0.6509  0.5833  0.8443
 4354TIP3    H134553   5.472   2.025  16.034 -2.2452 -0.7554  0.9763
 4354TIP3    H234554   5.487   2.121  15.917  0.5829 -0.6414  1.3759
 4355TIP3   OH234555   2.747   0.434   1.431 -0.1168 -0.3219  0.0691
 4355TIP3    H134556   2.718   0.343   1.437 -1.1510 -0.0217 -0.2239
 4355TIP3    H234557   2.826   0.429   1.376 -0.7425 -0.9300 -0.8120
 4356TIP3   OH234558   1.428   4.351  15.185  0.7691  0.2391 -0.2533
 4356TIP3    H134559   1.508   4.366  15.236  0.9552  0.1994 -0.5313
 4356TIP3    H234560   1.459   4.331  15.097  0.6569 -3.5615  0.4141
 4357TIP3   OH234561   5.837   4.894   4.624 -0.8788 -0.0375 -0.1552
 4357TIP3    H134562   5.767   4.843   4.664  1.0217 -1.8507  1.1488
 4357TIP3    H234563   5.892   4.921   4.698  0.7165 -0.2024 -1.2240
 4358TIP3   OH234564   3.750   6.057   0.596  0.3103 -0.0399  0.7498
 4358TIP3    H134565   3.679   6.108   0.557  0.2507 -0.8616 -0.2366
 4358TIP3    H234566   3.714   5.969   0.605  1.0408 -0.3442  0.7181
 4359TIP3   OH234567   4.926   4.964   0.280 -0.6569 -0.1871  0.9882
 4359TIP3    H134568   4.862   4.986   0.347  0.7253  2.8213  1.4691
 4359TIP3    H234569   4.984   4.900   0.322 -2.2262 -1.6195  1.1078
 4360TIP3   OH234570   5.674   5.249  10.447 -0.4603  0.5033  0.5356
 4360TIP3    H134571   5.763   5.225  10.472  0.0936 -0.4112 -1.9523
 4360TIP3    H234572   5.684   5.332  10.399 -0.2812 -1.3370 -2.9158
 4361TIP3   OH234573   4.179   3.103  13.599 -0.6236  0.5618 -0.2490
 4361TIP3    H134574   4.179   3.062  13.685  1.3190  2.1798  0.5942
 4361TIP3    H234575   4.228   3.042  13.543  1.6739  1.3171  0.8283
 4362TIP3   OH234576   6.535   1.530  14.071 -0.0558  0.1248  0.3430
 4362TIP3    H134577   6.524   1.601  14.007  1.2497 -1.0206 -1.2189
 4362TIP3    H234578   6.491   1.563  14.150 -0.1400  2.3527 -0.5511
 4363TIP3   OH234579   5.153   3.680   6.832  0.5788 -0.2601  0.5051
 4363TIP3    H134580   5.228   3.629   6.861  0.8360  0.7213  1.6324
 4363TIP3    H234581   5.090   3.675   6.904 -0.1309 -0.4348 -0.1103
 4364TIP3   OH234582   0.419   5.881  15.029  0.1378  0.6913 -0.1092
 4364TIP3    H134583   0.395   5.903  14.939  1.6439  1.1255 -0.4393
 4364TIP3    H234584   0.489   5.943  15.051 -0.6428  1.0164  1.5999
 4365TIP3   OH234585   6.344   3.634   1.955  0.3547  0.0335  0.7687
 4365TIP3    H134586   6.345   3.652   1.861  0.1368  0.2136  0.7988
 4365TIP3    H234587   6.297   3.708   1.993 -0.2461 -0.4207  0.9351
 4366TIP3   OH234588   0.974   3.561  13.962 -0.1634 -0.3550  0.0475
 4366TIP3    H134589   1.001   3.491  13.902  0.2264 -0.3968  0.2708
 4366TIP3    H234590   0.952   3.635  13.905  1.0732 -0.0924 -0.1184
 4367TIP3   OH234591   6.095   1.215   3.470  0.1251 -0.2348 -0.4598
 4367TIP3    H134592   6.137   1.223   3.555  1.4602  1.7220 -1.2399
 4367TIP3    H234593   6.003   1.235   3.487  0.1181 -1.1245  0.6886
 4368TIP3   OH234594   3.757   3.164   5.830  0.1143 -0.4117  0.0010
 4368TIP3    H134595   3.735   3.089   5.886 -0.0413  0.3997  1.0536
 4368TIP3    H234596   3.805   3.224   5.887 -0.4179  0.6316 -0.6163
 4369TIP3   OH234597   0.803   1.241  11.077 -0.3879  0.1358 -0.2848
 4369TIP3    H134598   0.859   1.202  11.144  0.3013 -1.3620 -1.6808
 4369TIP3    H234599   0.863   1.271  11.009 -1.0732  1.7126 -0.2514
 4370TIP3   OH234600   1.416   1.303   0.391 -0.0907 -0.2804  0.3500
 4370TIP3    H134601   1.379   1.218   0.415 -1.2646 -0.1984 -1.0526
 4370TIP3    H234602   1.485   1.282   0.329 -1.3425 -0.1842 -1.1387
 4371TIP3   OH234603   1.862   6.147  15.115 -0.2874 -0.3798 -0.2652
 4371TIP3    H134604   1.875   6.112  15.026 -0.0723  0.4458 -0.5626
 4371TIP3    H234605   1.789   6.095  15.150  1.1902 -2.4252  0.0030
 4372TIP3   OH234606   0.785   6.386  13.925  1.1157 -0.4309 -0.2905
 4372TIP3    H134607   0.878   6.376  13.901  1.4050  0.4050  0.4240
 4372TIP3    H234608   0.775   6.329  14.002  1.2395  0.0655  0.0993
 4373TIP3   OH234609   1.563   5.385   1.827  0.1480 -0.1592  0.3385
 4373TIP3    H134610   1.493   5.431   1.872  1.4548  2.1852  0.1203
 4373TIP3    H234611   1.643   5.410   1.874  1.3309  0.8758 -2.0664
 4374TIP3   OH234612   1.376   6.588   1.652  0.2489 -0.5285 -0.3656
 4374TIP3    H134613   1.297   6.551   1.690  0.3306  1.7473  2.2858
 4374TIP3    H234614   1.447   6.558   1.710  0.7576  0.8164 -0.2666
 4375TIP3   OH234615   4.107   0.860  16.724 -0.2986 -0.3958 -0.1122
 4375TIP3    H134616   4.121   0.945  16.682  1.3514 -0.0790  1.0204
 4375TIP3    H234617   4.141   0.870  16.813  1.4288 -2.6769 -0.4143
 4376TIP3   OH234618   3.037   0.922   2.285  0.2871 -0.1651 -0.1046
 4376TIP3    H134619   3.069   0.847   2.235  1.2520 -0.8922  1.5080
 4376TIP3    H234620   3.018   0.989   2.220 -0.1265 -1.6327 -1.5555
 4377TIP3   OH234621   5.461   1.310   4.702  0.1190 -0.3732 -0.0118
 4377TIP3    H134622   5.383   1.339   4.654 -0.7276  1.9546  2.5163
 4377TIP3    H234623   5.450   1.215   4.708 -1.8739 -0.2516 -0.7941
 4378TIP3   OH234624   2.643   0.802   1.174  0.8138  0.2937  0.0702
 4378TIP3    H134625   2.626   0.762   1.260  2.3596 -2.4191 -0.7654
 4378TIP3    H234626   2.587   0.752   1.114  0.8423  1.1918 -0.7236
 4379TIP3   OH234627   2.616   1.040  15.983 -0.1286  0.4049  0.6056
 4379TIP3    H134628   2.551   1.069  16.047 -0.1549  0.4736  0.5473
 4379TIP3    H234629   2.611   1.104  15.912 -1.1156 -0.4716 -0.1490
 4380TIP3   OH234630   4.284   2.960  13.052 -0.2103 -0.1755 -0.9626
 4380TIP3    H134631   4.370   3.002  13.062  0.4662 -1.5900 -0.4693
 4380TIP3    H234632   4.235   3.019  12.995  1.6672 -0.1336 -2.6523
 4381TIP3   OH234633   0.718   4.464   4.310  0.0428  0.2061 -0.0386
 4381TIP3    H134634   0.680   4.543   4.272  0.8216 -0.2800 -1.9695
 4381TIP3    H234635   0.796   4.448   4.258  0.1988 -1.5387  0.6615
 4382TIP3   OH234636   4.043   2.346  14.160 -0.4556  0.0390 -0.2438
 4382TIP3    H134637   4.115   2.327  14.099 -1.5810  0.2044 -1.6831
 4382TIP3    H234638   4.064   2.296  14.238  1.4325  0.4111 -0.4790
 4383TIP3   OH234639   6.204   1.375   2.756  0.1139 -0.1806  0.0364
 4383TIP3    H134640   6.211   1.294   2.705 -0.0220 -0.7054  0.8311
 4383TIP3    H234641   6.179   1.346   2.844 -4.6593  0.9770 -0.6653
 4384TIP3   OH234642   4.160   2.727  11.910  0.0982  0.5379  0.6614
 4384TIP3    H134643   4.129   2.706  11.822  0.4682  0.4298  0.5545
 4384TIP3    H234644   4.082   2.723  11.965 -0.0934  0.3730  0.3793
 4385TIP3   OH234645   5.764   5.024  15.985 -0.1523  0.1900 -0.5960
 4385TIP3    H134646   5.801   5.040  15.898  1.0323  1.4673  0.1040
 4385TIP3    H234647   5.836   5.041  16.046 -1.0608 -0.2957  0.6722
 4386TIP3   OH234648   3.590   0.725   1.523 -0.2485  0.7737 -0.8177
 4386TIP3    H134649   3.626   0.639   1.543 -0.4394  0.8240 -0.2419
 4386TIP3    H234650   3.656   0.766   1.467  0.9329  1.1295  0.7873
 4387TIP3   OH234651   2.185   1.328   5.084 -0.4064  0.0672 -0.0073
 4387TIP3    H134652   2.092   1.349   5.082 -0.4716 -0.0715  0.8351
 4387TIP3    H234653   2.189   1.233   5.098 -0.1354 -0.0083 -0.5796
 4388TIP3   OH234654   5.039   1.953   5.343 -0.8961 -0.4812  0.0886
 4388TIP3    H134655   5.050   1.911   5.429  1.9112 -0.6247 -0.2444
 4388TIP3    H234656   5.100   2.027   5.345 -0.3991 -0.7764 -1.9430
 4389TIP3   OH234657   6.765   1.433   4.572  0.2104 -0.2723  0.3448
 4389TIP3    H134658   6.695   1.368   4.571 -0.2965  0.2520 -1.0316
 4389TIP3    H234659   6.719   1.517   4.578  0.5811  0.1587 -1.9044
 4390TIP3   OH234660   5.536   6.398  16.337 -0.0587  0.2660 -0.6160
 4390TIP3    H134661   5.514   6.380  16.429 -0.1542 -0.3849 -0.7639
 4390TIP3    H234662   5.465   6.360  16.287 -0.4141  1.3146 -0.9359
 4391TIP3   OH234663   4.408   2.405   6.326 -0.0236  0.5306 -0.1408
 4391TIP3    H134664   4.353   2.481   6.344  0.7272  0.6988  1.5459
 4391TIP3    H234665   4.397   2.349   6.403 -0.3267 -0.9580 -1.2140
 4392TIP3   OH234666   6.669   0.973   4.822 -0.3430 -0.1273  0.3492
 4392TIP3    H134667   6.656   0.896   4.766  0.8864 -1.9307  2.3456
 4392TIP3    H234668   6.734   0.944   4.886 -0.1041  2.5111  1.4067
 4393TIP3   OH234669   6.759   5.567   4.471 -0.0229  0.2664  0.1392
 4393TIP3    H134670   6.789   5.597   4.557 -0.2291  0.1225  0.2658
 4393TIP3    H234671   6.702   5.637   4.440 -0.3205  0.1120  0.3305
 4394TIP3   OH234672   1.893   3.449  15.967 -0.4954 -0.4604  0.5012
 4394TIP3    H134673   1.968   3.507  15.983 -0.3770 -0.9309  1.7764
 4394TIP3    H234674   1.931   3.361  15.961 -0.7032 -0.4664 -1.1698
 4395TIP3   OH234675   1.059   2.725   1.264  0.2042  0.0619 -0.0855
 4395TIP3    H134676   1.081   2.765   1.348 -3.4896 -1.4456  1.7985
 4395TIP3    H234677   0.989   2.780   1.229 -1.9273 -2.1258  0.4754
 4396TIP3   OH234678   5.669   0.334   5.538 -0.2474  0.1034 -0.0337
 4396TIP3    H134679   5.625   0.318   5.621  0.5197 -1.7803  0.0678
 4396TIP3    H234680   5.759   0.307   5.553  0.3931  1.6084 -0.9358
 4397TIP3   OH234681   1.511   3.849  11.621  0.3398  0.5279  0.4061
 4397TIP3    H134682   1.528   3.756  11.607  3.7877  1.4227 -3.4999
 4397TIP3    H234683   1.534   3.864  11.712 -3.5165 -2.7805  2.2299
 4398TIP3   OH234684   5.929   4.277  12.562  0.7502  0.2624  0.4230
 4398TIP3    H134685   5.839   4.284  12.593  0.5238 -2.7911  0.7725
 4398TIP3    H234686   5.926   4.208  12.496  2.4024  2.0746 -1.7112
 4399TIP3   OH234687   6.516   3.343   0.344 -0.2533 -0.7510  0.4571
 4399TIP3    H134688   6.482   3.331   0.255 -1.5537 -3.0273  1.1758
 4399TIP3    H234689   6.607   3.370   0.331 -1.4426  3.1520 -1.5255
 4400TIP3   OH234690   6.098   1.459  16.022  0.3353 -0.0812 -0.3707
 4400TIP3    H134691   6.125   1.392  15.960 -1.0196 -1.3364  0.3519
 4400TIP3    H234692   6.134   1.431  16.106 -1.5399 -0.7938  0.2426
 4401TIP3   OH234693   5.401   3.078  14.760  0.4159  0.0922 -0.1868
 4401TIP3    H134694   5.422   3.056  14.669 -1.8545 -0.4537 -0.6226
 4401TIP3    H234695   5.421   3.171  14.767 -0.3198  0.3685 -1.5366
 4402TIP3   OH234696   0.043   2.224  10.953 -0.1057  0.1889  0.5154
 4402TIP3    H134697   0.137   2.240  10.962 -0.1560 -0.1114  1.7175
 4402TIP3    H234698   0.002   2.310  10.965 -0.0998 -0.0245  2.2632
 4403TIP3   OH234699   2.062   5.014  15.374  0.1004 -0.4666  0.5793
 4403TIP3    H134700   2.077   4.934  15.426 -3.4300 -0.5001  1.7928
 4403TIP3    H234701   1.986   4.993  15.320 -0.7876  1.9733  0.7743
 4404TIP3   OH234702   3.610   1.811  11.733  0.1363 -0.2795 -0.0894
 4404TIP3    H134703   3.562   1.795  11.652 -0.0324 -0.6665  0.0856
 4404TIP3    H234704   3.569   1.889  11.770  0.2897 -0.0326 -0.4313
 4405TIP3   OH234705   0.938   2.961  15.163 -0.2371 -0.4594 -0.1821
 4405TIP3    H134706   0.960   2.868  15.152  1.6587 -0.0598 -0.1084
 4405TIP3    H234707   0.935   2.974  15.257 -1.4292 -0.6244 -0.1848
 4406TIP3   OH234708   4.773   3.040   0.028  0.1756  0.3116  0.2263
 4406TIP3    H134709   4.723   3.121   0.013 -0.3543  0.1479  1.0673
 4406TIP3    H234710   4.752   2.985  -0.047 -0.3655  0.5072  0.2314
 4407TIP3   OH234711   6.392   0.613  13.550  0.1342  0.1701  0.5418
 4407TIP3    H134712   6.446   0.561  13.491  0.8251  1.7696 -0.3035
 4407TIP3    H234713   6.377   0.556  13.626  0.6801 -1.2988 -0.4175
 4408TIP3   OH234714   2.984   3.609   0.704 -0.4587  0.1334  0.8428
 4408TIP3    H134715   2.961   3.547   0.773 -0.9390 -1.0721 -0.3522
 4408TIP3    H234716   3.027   3.682   0.749 -2.1533  0.1134  2.5836
 4409TIP3   OH234717   6.455   1.680   3.255 -0.0709  0.1714  0.6975
 4409TIP3    H134718   6.393   1.748   3.229 -1.8419 -0.9954  1.6743
 4409TIP3    H234719   6.426   1.603   3.206  1.2063 -0.1841  0.4749
 4410TIP3   OH234720   3.242   2.379  15.348 -0.5146 -0.4688 -0.6085
 4410TIP3    H134721   3.246   2.418  15.435  2.3372  0.9714 -1.2637
 4410TIP3    H234722   3.177   2.432  15.301  0.1482  0.7615 -0.1947
 4411TIP3   OH234723   1.534   2.441  14.391  0.2409  0.1268  0.1799
 4411TIP3    H134724   1.489   2.361  14.362  0.4103  0.2011 -0.2790
 4411TIP3    H234725   1.627   2.424  14.373  0.3310  0.2377  0.5274
 4412TIP3   OH234726   2.585   3.858   1.849 -0.5774 -0.3911  0.6103
 4412TIP3    H134727   2.603   3.908   1.928 -0.7560  0.8574 -0.1104
 4412TIP3    H234728   2.491   3.840   1.852 -0.4429 -1.0911  1.0755
 4413TIP3   OH234729   1.013   4.373   5.931 -0.2474 -0.4994 -0.5823
 4413TIP3    H134730   1.102   4.372   5.966 -1.0406 -1.3973  1.5782
 4413TIP3    H234731   0.971   4.297   5.971 -2.7241  1.3198  0.5298
 4414TIP3   OH234732   5.373   3.100  17.271  0.4504  0.2959  0.1769
 4414TIP3    H134733   5.395   3.134  17.185  0.8789  0.9411  0.5340
 4414TIP3    H234734   5.291   3.145  17.295  0.2295 -0.0254  0.0261
 4415TIP3   OH234735   4.902   1.151   2.049  0.0649  0.0007 -0.5062
 4415TIP3    H134736   4.833   1.215   2.033 -0.9754 -1.3805 -1.8259
 4415TIP3    H234737   4.895   1.090   1.976  1.3033 -1.3740  0.4730
 4416TIP3   OH234738   1.961   1.495  13.674 -0.2795  0.1168 -0.5645
 4416TIP3    H134739   1.892   1.557  13.652  0.0922  0.5249 -0.6005
 4416TIP3    H234740   1.954   1.427  13.608 -0.6153  0.1841 -0.5982
 4417TIP3   OH234741   3.146   1.643  13.160 -0.1832  0.2744  0.2763
 4417TIP3    H134742   3.095   1.625  13.081  0.7179 -0.4610 -0.1497
 4417TIP3    H234743   3.106   1.723  13.196 -2.2212 -0.7672  0.4752
 4418TIP3   OH234744   2.736   1.831   1.891  0.0966 -0.0110  0.5487
 4418TIP3    H134745   2.714   1.745   1.927 -1.6078  0.3222  0.3465
 4418TIP3    H234746   2.671   1.846   1.823  1.7279  0.4947 -0.9746
 4419TIP3   OH234747   2.867   1.511  11.322  1.1536  1.0510 -0.0214
 4419TIP3    H134748   2.939   1.473  11.372  2.4874  2.0117 -1.1419
 4419TIP3    H234749   2.856   1.598  11.359  1.9815  1.6741 -1.1895
 4420TIP3   OH234750   5.677   5.384   2.883 -0.3234 -0.0425  0.1163
 4420TIP3    H134751   5.715   5.411   2.799 -0.0161 -0.6479  0.0543
 4420TIP3    H234752   5.643   5.465   2.921 -0.5476  0.2214 -0.6317
 4421TIP3   OH234753   4.879   1.994  14.761 -0.5082 -0.9621 -0.1772
 4421TIP3    H134754   4.897   2.007  14.668 -0.2151 -1.8122 -0.2438
 4421TIP3    H234755   4.910   1.906  14.780 -0.5588 -0.7956  0.7326
 4422TIP3   OH234756   4.956   4.508  12.167 -0.1673 -0.2553  0.2829
 4422TIP3    H134757   4.945   4.492  12.074  1.2629  1.1660 -0.1870
 4422TIP3    H234758   5.033   4.456  12.192 -0.0490  0.0070  0.4732
 4423TIP3   OH234759   1.508   1.489  11.435  0.2136 -0.5429 -0.0525
 4423TIP3    H134760   1.546   1.440  11.508  0.8867 -0.6029 -0.4350
 4423TIP3    H234761   1.575   1.485  11.366 -0.2544 -0.1640 -0.5364
 4424TIP3   OH234762   1.327   5.121   2.931 -0.0298 -0.2797  0.1046
 4424TIP3    H134763   1.266   5.183   2.892 -0.2008 -0.3301  0.2909
 4424TIP3    H234764   1.278   5.079   3.001  0.2873 -0.1570  0.4060
 4425TIP3   OH234765   4.492   1.825   4.295  0.1237 -0.1506 -0.1343
 4425TIP3    H134766   4.405   1.866   4.299 -0.0389 -0.5648  2.9756
 4425TIP3    H234767   4.482   1.743   4.343  2.1692 -0.3259  0.0684
 4426TIP3   OH234768   5.802   5.092  16.877 -0.1148  0.6624 -0.3856
 4426TIP3    H134769   5.741   5.125  16.943 -0.0758  1.2741 -0.6526
 4426TIP3    H234770   5.748   5.036  16.821 -0.1484  0.1334  0.1578
 4427TIP3   OH234771   2.357   5.027   4.853 -0.4408  0.5329  0.0431
 4427TIP3    H134772   2.359   4.941   4.811 -2.6830  0.7600 -0.6675
 4427TIP3    H234773   2.437   5.070   4.823 -0.1565 -0.6760 -1.0172
 4428TIP3   OH234774   0.175   6.599   4.497 -0.3711 -0.6055  0.1226
 4428TIP3    H134775   0.122   6.566   4.570  0.8442  1.7548  2.2262
 4428TIP3    H234776   0.254   6.544   4.499  0.8334  1.0397  2.4213
 4429TIP3   OH234777   4.096   0.794   0.222  0.0363  0.2496  0.4813
 4429TIP3    H134778   4.078   0.840   0.304  1.5462 -1.7818  2.0503
 4429TIP3    H234779   4.045   0.713   0.228 -0.4008  0.3917 -0.9520
 4430TIP3   OH234780   2.581   1.035   5.027 -0.0211 -0.0111  0.5392
 4430TIP3    H134781   2.537   1.098   4.970  0.5279  0.8905  1.0821
 4430TIP3    H234782   2.547   0.950   5.000  2.3896 -0.0012 -3.2243
 4431TIP3   OH234783   1.267   3.059   3.884  0.8794  0.1129  0.3599
 4431TIP3    H134784   1.337   3.000   3.910  1.2106  0.1266 -0.4646
 4431TIP3    H234785   1.229   3.018   3.807  0.7678  0.7108  0.0914
 4432TIP3   OH234786   4.133   4.875  15.599 -0.0278  0.1669 -0.0480
 4432TIP3    H134787   4.083   4.809  15.648  1.3762 -0.8415  0.1028
 4432TIP3    H234788   4.217   4.880  15.646 -0.3292  2.5812  0.3290
 4433TIP3   OH234789   5.199   2.247   4.695  0.6272  0.4985 -0.0556
 4433TIP3    H134790   5.168   2.268   4.607  0.9102 -0.5645 -0.4139
 4433TIP3    H234791   5.291   2.271   4.695  0.3793  1.5108  0.3019
 4434TIP3   OH234792   4.582   6.498   2.440  0.2433  0.3562  0.2442
 4434TIP3    H134793   4.602   6.507   2.533 -0.1970  0.4202  0.3340
 4434TIP3    H234794   4.489   6.517   2.433  0.3697  0.8231 -0.2819
 4435TIP3   OH234795   0.264   3.514   6.519  0.0268 -0.1696 -0.6181
 4435TIP3    H134796   0.299   3.489   6.434 -2.5554 -0.6172 -1.6400
 4435TIP3    H234797   0.264   3.609   6.518 -0.5986 -0.1683 -1.4154
 4436TIP3   OH234798   6.438   0.298  12.196  0.4010 -0.5916  0.2521
 4436TIP3    H134799   6.495   0.363  12.156 -0.2048  0.0709  0.4442
 4436TIP3    H234800   6.416   0.335  12.282 -1.3627 -0.2019 -0.3243
 4437TIP3   OH234801   2.221   0.991  13.433 -0.7704  0.5916  0.0566
 4437TIP3    H134802   2.271   0.985  13.351 -1.8337  1.6349 -0.7160
 4437TIP3    H234803   2.287   0.994  13.501  0.1367 -3.4556 -0.4385
 4438TIP3   OH234804   2.634   3.840   6.083 -0.1863  0.5048 -0.5640
 4438TIP3    H134805   2.567   3.784   6.043 -1.1414  1.3478 -0.1856
 4438TIP3    H234806   2.666   3.788   6.157 -1.1215  0.4709 -0.1645
 4439TIP3   OH234807   3.597   3.737   3.065 -0.1675 -0.0796 -0.0642
 4439TIP3    H134808   3.538   3.683   3.013 -0.4905 -0.6780  0.8970
 4439TIP3    H234809   3.685   3.710   3.037 -0.3338  0.0685 -0.7478
 4440TIP3   OH234810   1.827   2.988   3.677  0.1227  0.3277  0.2966
 4440TIP3    H134811   1.892   2.933   3.722  0.0881 -0.0519 -0.1121
 4440TIP3    H234812   1.744   2.968   3.722  0.1104  0.0458  0.1513
 4441TIP3   OH234813   3.583   2.911  12.835  0.0379  0.2012 -0.0973
 4441TIP3    H134814   3.634   2.870  12.766 -1.7487 -1.3392 -0.5668
 4441TIP3    H234815   3.631   2.992  12.855  1.0400  0.2926 -2.5330
 4442TIP3   OH234816   2.189   6.453  14.537  0.2300  0.0575  0.5768
 4442TIP3    H134817   2.218   6.454  14.446  0.6018  0.0308  0.6928
 4442TIP3    H234818   2.132   6.376  14.543  0.4405 -0.1103  0.4395
 4443TIP3   OH234819   2.541   2.360  10.812  0.5532 -0.6105  0.2873
 4443TIP3    H134820   2.500   2.274  10.803  0.9905 -1.0147  1.8125
 4443TIP3    H234821   2.577   2.379  10.725 -2.3765 -0.4507 -0.9905
 4444TIP3   OH234822   4.067   1.010   1.690 -0.5887 -0.0775  0.4425
 4444TIP3    H134823   4.057   0.960   1.771 -0.9472 -2.4951 -1.0104
 4444TIP3    H234824   3.986   1.061   1.684 -1.2538 -1.0604  0.8452
 4445TIP3   OH234825   1.918   3.622  16.459  0.0809  0.2445  0.4194
 4445TIP3    H134826   1.867   3.621  16.541 -0.8278 -0.2021 -0.1321
 4445TIP3    H234827   1.872   3.561  16.402  1.1237  0.0121 -0.1894
 4446TIP3   OH234828   4.782   3.159   2.548  0.3254 -0.3881 -0.0459
 4446TIP3    H134829   4.750   3.114   2.626  4.1943 -1.6248  1.0533
 4446TIP3    H234830   4.823   3.239   2.580  0.4145 -0.0318 -1.0035
 4447TIP3   OH234831   0.462   3.378  10.683 -0.0644  0.1628 -0.4249
 4447TIP3    H134832   0.529   3.394  10.749 -0.0044 -0.8022 -0.2402
 4447TIP3    H234833   0.471   3.451  10.621 -0.5224  1.4157  0.9415
 4448TIP3   OH234834   1.222   3.900  11.292  0.3375  0.0582 -0.0392
 4448TIP3    H134835   1.129   3.909  11.272  0.7301  0.1767 -2.0596
 4448TIP3    H234836   1.239   3.806  11.286 -0.3421 -0.5255  4.1855
 4449TIP3   OH234837   1.257   6.711  13.176  0.3313 -0.1967  0.3610
 4449TIP3    H134838   1.292   6.778  13.234 -2.5454  1.3786  0.4396
 4449TIP3    H234839   1.266   6.629  13.225  0.3775  0.7011  1.9105
 4450TIP3   OH234840   1.842   1.696   4.332 -0.5209  0.4068  0.5402
 4450TIP3    H134841   1.926   1.741   4.328 -0.0510 -0.5123 -1.2321
 4450TIP3    H234842   1.863   1.605   4.309 -2.3630  0.8043 -3.6822
 4451TIP3   OH234843   4.209   5.856   2.249  0.2331 -0.1047  0.7368
 4451TIP3    H134844   4.116   5.848   2.269  0.6895 -0.9349  2.8217
 4451TIP3    H234845   4.212   5.882   2.157 -2.0746  1.2163  0.9578
 4452TIP3   OH234846   6.019   0.344   3.044  0.5634 -0.4894 -0.0777
 4452TIP3    H134847   5.975   0.274   2.997  0.0487 -0.0065 -0.3206
 4452TIP3    H234848   6.007   0.322   3.136 -0.1448 -0.3891 -0.1407
 4453TIP3   OH234849   1.056   5.305  11.241  0.4724  0.2925 -0.3846
 4453TIP3    H134850   0.983   5.282  11.298  0.2234  0.1023 -0.7796
 4453TIP3    H234851   1.016   5.346  11.165  0.8704  1.4616  0.0216
 4454TIP3   OH234852   4.307   1.939   0.707  0.2377  0.1046  0.2044
 4454TIP3    H134853   4.357   1.995   0.767  0.4853  0.0120  0.0876
 4454TIP3    H234854   4.348   1.953   0.622 -1.1372  1.4717 -0.2692
 4455TIP3   OH234855   5.505   3.770   2.927  0.3981  0.6226 -0.0224
 4455TIP3    H134856   5.443   3.841   2.944 -0.5555  0.1004 -1.1709
 4455TIP3    H234857   5.591   3.811   2.938 -0.1228  2.0107 -0.8396
 4456TIP3   OH234858   1.195   0.863   0.166  0.0610 -0.3707 -0.3551
 4456TIP3    H134859   1.108   0.869   0.126 -0.6877  2.8444  1.3577
 4456TIP3    H234860   1.183   0.902   0.253  3.1681 -0.1192  0.0502
 4457TIP3   OH234861   2.448   2.204  15.447  0.4416  0.1599  0.4745
 4457TIP3    H134862   2.409   2.191  15.534  0.8090 -0.2023  0.5865
 4457TIP3    H234863   2.403   2.140  15.391  1.3375 -0.7456  0.7505
 4458TIP3   OH234864   6.240   4.831   5.471 -0.2840  0.1826 -0.5572
 4458TIP3    H134865   6.280   4.747   5.448 -0.3885  0.0520 -0.2609
 4458TIP3    H234866   6.156   4.830   5.424 -1.1330 -0.6914  0.9034
 4459TIP3   OH234867   1.914   5.875  14.625  1.0436  0.1644  0.2593
 4459TIP3    H134868   1.927   5.816  14.550  1.0112  1.8114 -1.1103
 4459TIP3    H234869   1.819   5.878  14.636  1.0654 -3.1618  3.0469
 4460TIP3   OH234870   1.106   2.964  17.066  0.6719 -0.1997 -0.0215
 4460TIP3    H134871   1.162   2.904  17.018  0.1837  0.5587 -1.6105
 4460TIP3    H234872   1.140   3.051  17.044 -0.3042  0.2123  0.0447
 4461TIP3   OH234873   0.072   5.625  13.295 -0.5789 -0.6086  0.1349
 4461TIP3    H134874  -0.013   5.589  13.270 -2.1105  1.3784  2.1561
 4461TIP3    H234875   0.084   5.598  13.387  0.4738  0.0268  0.2080
 4462TIP3   OH234876   4.080   5.411   0.975  0.0023  0.0057  0.0970
 4462TIP3    H134877   4.072   5.322   1.010  0.3681 -0.0730 -0.0111
 4462TIP3    H234878   4.017   5.414   0.903 -1.0206  0.2878  0.9888
 4463TIP3   OH234879   1.689   6.618  12.618  0.3221 -0.5580 -0.1470
 4463TIP3    H134880   1.756   6.634  12.551 -1.3263 -1.3281 -2.0839
 4463TIP3    H234881   1.704   6.687  12.683  2.5787 -0.3372 -0.7960
 4464TIP3   OH234882   4.368   2.791   4.442 -0.4822 -0.4649  0.5205
 4464TIP3    H134883   4.384   2.813   4.534  0.0949  0.7534  0.1577
 4464TIP3    H234884   4.400   2.702   4.432 -1.4345 -0.9727  1.7135
 4465TIP3   OH234885   4.739   2.952   1.667  0.2408 -0.4175  0.3398
 4465TIP3    H134886   4.697   2.947   1.752 -1.1106 -0.0979 -0.2765
 4465TIP3    H234887   4.830   2.975   1.686 -0.2321  0.4628  1.6545
 4466TIP3   OH234888   4.689   0.847   5.828  0.0888  0.0513 -0.4818
 4466TIP3    H134889   4.784   0.852   5.818  0.1889  0.9029  0.6902
 4466TIP3    H234890   4.670   0.754   5.837  0.9967 -0.0452  0.6839
 4467TIP3   OH234891   2.795   0.760   3.599 -0.0469  0.2053  0.0732
 4467TIP3    H134892   2.840   0.778   3.516  0.8092 -0.7609  0.3017
 4467TIP3    H234893   2.759   0.672   3.587 -0.9726  0.5430  0.2936
 4468TIP3   OH234894   1.197   5.098   2.370  0.4170 -0.1713 -0.0734
 4468TIP3    H134895   1.186   5.061   2.282 -1.4120  0.5421 -0.1792
 4468TIP3    H234896   1.235   5.185   2.355 -0.0731  0.0258 -0.1703
 4469TIP3   OH234897   1.286   6.490  14.463  0.1107  0.2367 -0.4443
 4469TIP3    H134898   1.366   6.542  14.463 -0.8727  1.9421 -2.6844
 4469TIP3    H234899   1.301   6.422  14.397  0.3125 -0.5590  0.3937
 4470TIP3   OH234900   4.686   6.413  11.626 -0.0441 -0.0914  0.0325
 4470TIP3    H134901   4.626   6.458  11.566 -1.2611 -0.5536  0.8675
 4470TIP3    H234902   4.698   6.474  11.698 -1.2365 -0.8251  0.8876
 4471TIP3   OH234903   5.078   1.744  11.029 -0.5992 -0.2420 -0.7794
 4471TIP3    H134904   5.065   1.703  10.943 -3.1788  0.3256 -0.7525
 4471TIP3    H234905   5.107   1.833  11.009  0.2976 -0.5622 -0.9749
 4472TIP3   OH234906   5.163   1.326  12.537  0.5801 -0.1429  0.6939
 4472TIP3    H134907   5.242   1.278  12.561 -0.5102 -2.4097 -0.0086
 4472TIP3    H234908   5.097   1.258  12.519 -0.6919  1.5546 -1.6867
 4473TIP3   OH234909   0.501   6.733   2.505  0.5920  0.0024 -0.0266
 4473TIP3    H134910   0.449   6.706   2.429 -1.1081  2.4351  0.1463
 4473TIP3    H234911   0.568   6.665   2.514 -2.3299 -3.2352 -0.4586
 4474TIP3   OH234912   5.149   3.388  16.485  0.6339  0.4064 -0.0537
 4474TIP3    H134913   5.080   3.326  16.460 -0.8384  2.0967 -0.4735
 4474TIP3    H234914   5.208   3.338  16.541  0.2009 -1.6709 -1.3291
 4475TIP3   OH234915   0.189   3.129  16.819  0.0941 -0.0766  0.1253
 4475TIP3    H134916   0.239   3.048  16.816 -0.5695 -0.6865  2.6848
 4475TIP3    H234917   0.107   3.105  16.863 -0.3709  1.8356  0.4089
 4476TIP3   OH234918   5.067   0.679  11.508 -0.5182 -0.0839  0.1074
 4476TIP3    H134919   5.115   0.679  11.591 -1.1057 -0.6282  0.4606
 4476TIP3    H234920   5.112   0.614  11.454 -1.9057 -1.9489  1.0930
 4477TIP3   OH234921   2.387   4.459  14.366  0.4220  0.1263 -0.0622
 4477TIP3    H134922   2.347   4.421  14.444  2.0177 -1.3210  0.1180
 4477TIP3    H234923   2.333   4.535  14.346 -0.2542  0.3210  2.2240
 4478TIP3   OH234924   6.583   4.657   2.884 -0.3775 -0.3567 -0.4866
 4478TIP3    H134925   6.620   4.724   2.943 -3.1428 -0.0206  1.0579
 4478TIP3    H234926   6.568   4.703   2.802  1.8658 -0.3443 -0.9550
 4479TIP3   OH234927   4.950   2.652  13.254  0.2513 -0.7396  0.1741
 4479TIP3    H134928   4.885   2.647  13.323  1.1454 -0.5396  1.0645
 4479TIP3    H234929   5.003   2.573  13.265 -0.1840 -1.2012 -0.9094
 4480TIP3   OH234930   2.507   1.450  17.066  0.5961  0.3715 -0.2315
 4480TIP3    H134931   2.453   1.431  16.990 -0.1756  0.6202  0.2328
 4480TIP3    H234932   2.454   1.422  17.141  1.2591  0.2997  0.2251
 4481TIP3   OH234933   2.964   1.019  11.033  0.4667  0.3827 -0.2866
 4481TIP3    H134934   3.014   0.999  10.954  1.1164  1.2837 -0.1160
 4481TIP3    H234935   3.001   1.101  11.065 -2.0008  1.8077 -0.8881
 4482TIP3   OH234936   6.159   5.853  15.459  0.4263 -0.1010  0.2596
 4482TIP3    H134937   6.168   5.905  15.380  2.0767  1.3952  1.3630
 4482TIP3    H234938   6.185   5.765  15.433  0.8800  0.3503 -0.8746
 4483TIP3   OH234939   1.006   5.747  16.739 -0.1897  0.2310 -0.5313
 4483TIP3    H134940   0.996   5.823  16.797 -0.7731  0.4402 -0.9007
 4483TIP3    H234941   1.098   5.722  16.749 -0.3700  0.0173  0.7855
 4484TIP3   OH234942   5.933   1.381   2.986  0.0718  0.6827 -0.1397
 4484TIP3    H134943   5.925   1.425   3.071  1.6284  0.6051  0.0817
 4484TIP3    H234944   5.918   1.289   3.005  1.0123  0.5819  0.1893
 4485TIP3   OH234945   2.171   3.269  12.885 -0.5587  0.4222  0.1656
 4485TIP3    H134946   2.174   3.186  12.837 -2.5397  1.2372 -1.5120
 4485TIP3    H234947   2.253   3.271  12.934 -1.1583 -3.3701  1.7439
 4486TIP3   OH234948   0.223   5.720   5.505  0.6187  0.2534 -0.0055
 4486TIP3    H134949   0.168   5.650   5.471 -0.5850  0.9071  0.5328
 4486TIP3    H234950   0.265   5.758   5.428  1.6591 -1.3269 -0.2625
 4487TIP3   OH234951   2.873   5.230  13.095 -0.3268  0.1098  0.5284
 4487TIP3    H134952   2.946   5.228  13.034 -1.4636  1.1041 -0.9418
 4487TIP3    H234953   2.815   5.160  13.066 -0.1027 -0.5007  1.5192
 4488TIP3   OH234954   1.107   5.845   4.273 -0.1368 -0.1016 -0.1730
 4488TIP3    H134955   1.143   5.848   4.361 -0.2998 -0.2811 -0.0988
 4488TIP3    H234956   1.105   5.751   4.251 -0.6719 -0.1033 -0.1255
 4489TIP3   OH234957   0.349   4.577   6.697 -0.5595 -0.3620  0.4892
 4489TIP3    H134958   0.297   4.657   6.707 -0.5658 -0.3555  0.4027
 4489TIP3    H234959   0.328   4.545   6.610  0.5266  0.3233 -0.0486
 4490TIP3   OH234960   5.412   0.820   0.560  0.3093  0.0662 -0.1806
 4490TIP3    H134961   5.440   0.757   0.495 -1.9230 -1.1870 -0.0135
 4490TIP3    H234962   5.381   0.895   0.510  1.6808  0.5137 -0.4109
 4491TIP3   OH234963   1.955   5.069   1.067 -0.4546  0.1003 -0.2155
 4491TIP3    H134964   1.947   5.164   1.073 -0.7398  0.1668 -1.3991
 4491TIP3    H234965   1.964   5.052   0.973  0.6931 -0.9557  0.0552
 4492TIP3   OH234966   3.330   2.876   2.949  0.3663  0.4149 -0.3480
 4492TIP3    H134967   3.411   2.924   2.932  0.6749  0.0645  0.0896
 4492TIP3    H234968   3.265   2.917   2.892  1.1284 -0.1185 -1.6361
 4493TIP3   OH234969   4.889   5.673   6.084 -0.1413 -0.5340 -0.3450
 4493TIP3    H134970   4.964   5.656   6.141 -0.2535  0.7127  0.2010
 4493TIP3    H234971   4.923   5.732   6.017 -1.1811  2.2828  1.4234
 4494TIP3   OH234972   0.571   1.403  15.054  0.0941  0.1225  0.1032
 4494TIP3    H134973   0.493   1.458  15.056  0.9810  1.4618 -0.2743
 4494TIP3    H234974   0.613   1.425  14.971  1.3327  0.1189  0.7004
 4495TIP3   OH234975   3.706   6.016   2.749  0.6634  0.0665  0.1170
 4495TIP3    H134976   3.684   6.080   2.681 -0.6799 -0.0809  0.4003
 4495TIP3    H234977   3.623   5.993   2.789  1.1745 -1.5328  0.3326
 4496TIP3   OH234978   1.123   4.625  14.066  0.4669  0.2456  0.0031
 4496TIP3    H134979   1.055   4.679  14.025  0.1853 -0.6191 -0.7129
 4496TIP3    H234980   1.074   4.555  14.111  0.8196  0.6195  0.9965
 4497TIP3   OH234981   4.187   4.144  12.927 -0.3197 -0.6388  0.6441
 4497TIP3    H134982   4.095   4.142  12.954  0.0264  0.1570  1.9483
 4497TIP3    H234983   4.218   4.055  12.942 -0.1933 -0.2768  2.7701
 4498TIP3   OH234984   1.659   0.182   4.871  0.1474 -0.2671 -0.1022
 4498TIP3    H134985   1.676   0.242   4.798 -0.1209 -0.2808 -0.1752
 4498TIP3    H234986   1.564   0.175   4.875  0.1988 -2.1993 -1.3121
 4499TIP3   OH234987   5.298   1.087   5.952 -0.1487 -0.1063  0.1640
 4499TIP3    H134988   5.260   1.003   5.976 -1.1507 -0.0908 -1.2478
 4499TIP3    H234989   5.270   1.147   6.021  1.8150 -1.1733  2.0082
 4500TIP3   OH234990   1.161   2.680  12.957 -0.1383  0.2374  0.2316
 4500TIP3    H134991   1.246   2.721  12.943 -0.1073  0.5464  1.2160
 4500TIP3    H234992   1.098   2.751  12.946 -0.1766  0.2775  0.6930
 4501TIP3   OH234993   3.835   6.520   0.887 -0.0576  0.2357  0.0594
 4501TIP3    H134994   3.911   6.573   0.864 -0.0738 -0.1776 -0.9879
 4501TIP3    H234995   3.775   6.532   0.814  0.6379 -2.5783 -1.0796
 4502TIP3   OH234996   0.022   4.182   5.174 -0.0847 -0.1110 -0.3338
 4502TIP3    H134997   0.092   4.131   5.213  2.9619  2.0884 -2.4199
 4502TIP3    H234998  -0.009   4.239   5.244  0.7928 -0.5621  0.4283
 4503TIP3   OH234999   0.391   3.031  12.519  0.0963 -0.4486 -0.1035
 4503TIP3    H135000   0.401   2.984  12.436  0.0648  0.1637 -0.4624
 4503TIP3    H235001   0.322   2.984  12.565 -0.6444 -0.1543 -0.8956
 4504TIP3   OH235002   0.979   2.085  14.002 -0.8757  0.8346 -0.1423
 4504TIP3    H135003   0.922   2.150  13.961  0.5904  1.1725 -1.7643
 4504TIP3    H235004   0.977   2.011  13.942 -0.3077  0.4973  0.2505
 4505TIP3   OH235005   3.558   0.327  15.494  0.1501 -0.2418 -0.3584
 4505TIP3    H135006   3.536   0.235  15.505 -0.2579  0.0972  2.4012
 4505TIP3    H235007   3.596   0.333  15.407 -0.5522 -2.8576 -0.9102
 4506TIP3   OH235008   3.343   4.740  13.702 -0.2374  0.2595 -0.7302
 4506TIP3    H135009   3.277   4.805  13.730  1.3160  1.9115 -0.7267
 4506TIP3    H235010   3.404   4.736  13.775  0.6557  0.1280 -1.4759
 4507TIP3   OH235011   1.690   2.389   1.215  0.1763 -0.5662 -0.3742
 4507TIP3    H135012   1.722   2.457   1.155  2.3679 -0.7552  0.4902
 4507TIP3    H235013   1.684   2.432   1.300  0.5605 -1.1605 -0.0332
 4508TIP3   OH235014   6.677   3.792   5.988  0.5339  0.1968 -0.5200
 4508TIP3    H135015   6.630   3.875   5.975  1.1450  0.7942  0.9078
 4508TIP3    H235016   6.722   3.802   6.072 -2.2080 -2.9207  1.5512
 4509TIP3   OH235017   2.957   1.262   5.491 -0.2127  0.0606 -0.1919
 4509TIP3    H135018   3.030   1.262   5.430 -0.0608 -0.2349 -0.0091
 4509TIP3    H235019   2.895   1.326   5.455  0.3688  0.7006 -0.0662
 4510TIP3   OH235020   4.985   4.197  14.556 -0.1142  0.4592  0.3066
 4510TIP3    H135021   4.998   4.102  14.568 -1.3243  0.2448  0.0293
 4510TIP3    H235022   5.047   4.221  14.487  0.7222  0.0231  0.8839
 4511TIP3   OH235023   6.530   6.362  13.843  0.0625 -0.3536  0.4971
 4511TIP3    H135024   6.466   6.426  13.812  0.2483 -0.2956  0.2338
 4511TIP3    H235025   6.570   6.403  13.920  0.1808 -0.1540  0.3294
 4512TIP3   OH235026   3.818   5.700   0.302 -0.0044  0.2664  0.1039
 4512TIP3    H135027   3.747   5.701   0.365 -0.6211  1.9483 -0.5869
 4512TIP3    H235028   3.869   5.778   0.321  0.8844 -0.1995 -0.2846
 4513TIP3   OH235029   6.737   0.572   5.620  0.0346 -0.1050 -0.5004
 4513TIP3    H135030   6.697   0.532   5.542 -2.0018 -0.3155  0.5919
 4513TIP3    H235031   6.711   0.664   5.615  0.6168  0.0640 -0.4830
 4514TIP3   OH235032   3.279   6.575   6.109  0.1006 -0.1956 -0.4030
 4514TIP3    H135033   3.204   6.627   6.080  0.0376 -0.0104  0.0831
 4514TIP3    H235034   3.241   6.493   6.141  0.0693  0.0361  0.1672
 4515TIP3   OH235035   6.396   1.849   1.269 -0.1072  0.0268  0.5490
 4515TIP3    H135036   6.468   1.815   1.216  0.4719  1.4643  0.3866
 4515TIP3    H235037   6.322   1.792   1.247  1.1547 -2.0815  1.4177
 4516TIP3   OH235038   0.462   5.549   6.912  0.0993  0.5177  0.3518
 4516TIP3    H135039   0.520   5.586   6.845  2.0500 -0.9373  1.1440
 4516TIP3    H235040   0.380   5.532   6.866  1.6892 -1.3972 -2.0489
 4517TIP3   OH235041   2.629   2.702  12.327  0.3680  0.6726 -0.3067
 4517TIP3    H135042   2.713   2.681  12.368  0.5744 -0.7207 -1.3822
 4517TIP3    H235043   2.649   2.777  12.271 -0.0779  3.1120  2.5263
 4518TIP3   OH235044   0.373   0.468  11.799 -0.6264 -0.4130  0.2573
 4518TIP3    H135045   0.422   0.429  11.727 -0.8927 -1.6595  0.7100
 4518TIP3    H235046   0.436   0.525  11.843  0.4194 -1.8680  0.7408
 4519TIP3   OH235047   1.271   2.147  17.026  0.1315 -0.4190 -0.1696
 4519TIP3    H135048   1.329   2.147  16.950 -0.1909 -3.7550 -0.5746
 4519TIP3    H235049   1.183   2.137  16.989  0.0421 -2.9042  0.5632
 4520TIP3   OH235050   6.351   4.591  15.000  0.3867  0.5221 -0.1674
 4520TIP3    H135051   6.439   4.609  15.035  0.2320  1.3256 -0.1741
 4520TIP3    H235052   6.363   4.584  14.906  0.6247 -0.5387 -0.0705
 4521TIP3   OH235053   6.036   6.756  16.951 -0.9110 -0.4136 -0.2431
 4521TIP3    H135054   6.084   6.839  16.946  1.0340 -1.4911 -0.4714
 4521TIP3    H235055   5.976   6.759  16.877  0.8432 -0.1914 -1.7271
 4522TIP3   OH235056   5.679   4.729   1.285 -0.4383  0.2640  0.4191
 4522TIP3    H135057   5.723   4.644   1.273  1.2184  0.8576  1.8661
 4522TIP3    H235058   5.586   4.710   1.274  0.0318 -1.3449 -1.2943
 4523TIP3   OH235059   3.242   5.819   4.789 -0.4848 -0.0528 -0.1888
 4523TIP3    H135060   3.297   5.895   4.774  0.0059 -0.2344  0.6533
 4523TIP3    H235061   3.303   5.747   4.804 -0.9459 -0.5189 -0.4945
 4524TIP3   OH235062   0.452   3.917   4.851 -0.2039 -0.5908  0.5500
 4524TIP3    H135063   0.404   3.835   4.861 -0.9228 -0.2992 -0.3457
 4524TIP3    H235064   0.539   3.891   4.822 -0.2535 -1.0561  0.8083
 4525TIP3   OH235065   1.877   4.986  17.063 -0.5633 -0.1468  0.9529
 4525TIP3    H135066   1.807   4.921  17.070 -2.2477  1.4601 -0.2617
 4525TIP3    H235067   1.908   4.978  16.973  0.6615 -0.6492  1.4017
 4526TIP3   OH235068   0.940   4.659  15.696  0.1346  0.0967  0.4636
 4526TIP3    H135069   1.027   4.625  15.673  0.8474  2.1481 -0.0998
 4526TIP3    H235070   0.888   4.649  15.617  0.7707  1.5282 -0.1794
 4527TIP3   OH235071   4.839   5.095   4.990 -0.3509  0.3434 -0.4532
 4527TIP3    H135072   4.893   5.019   5.013  0.8181  0.9782 -1.0473
 4527TIP3    H235073   4.749   5.063   4.998  0.0960 -0.7541  0.4821
 4528TIP3   OH235074   0.295   1.974  14.189 -0.0224 -0.1623 -0.8805
 4528TIP3    H135075   0.315   2.042  14.254 -0.5543  0.6367 -1.5290
 4528TIP3    H235076   0.378   1.928  14.176  0.7753  1.4102 -1.6146
 4529TIP3   OH235077   4.367   6.295   4.302 -0.7441  0.0221  0.4757
 4529TIP3    H135078   4.325   6.254   4.226  1.5881 -1.2116 -0.2556
 4529TIP3    H235079   4.314   6.372   4.321 -2.8899 -1.0641 -0.7615
 4530TIP3   OH235080   4.806   6.219  15.968 -0.0700 -0.1854 -0.3554
 4530TIP3    H135081   4.876   6.184  16.023 -0.3466 -0.0068  0.1211
 4530TIP3    H235082   4.729   6.168  15.991 -0.5014  0.7804  0.4259
 4531TIP3   OH235083   4.712   1.600  14.834  0.6083  0.3850  0.0759
 4531TIP3    H135084   4.694   1.677  14.886 -0.2488 -1.1940  2.2706
 4531TIP3    H235085   4.683   1.623  14.746 -0.9104  2.0813  0.9636
 4532TIP3   OH235086   6.725   0.993  14.814  0.4368  0.9395 -0.1647
 4532TIP3    H135087   6.711   0.955  14.727  1.4071  0.1089  0.0106
 4532TIP3    H235088   6.751   1.083  14.797  0.8504  0.7155 -0.7649
 4533TIP3   OH235089   4.307   0.677  13.721 -0.0037  0.2447 -0.1110
 4533TIP3    H135090   4.275   0.648  13.636  0.5942 -0.3124 -0.1538
 4533TIP3    H235091   4.402   0.663  13.717  0.1547  1.1045  0.3025
 4534TIP3   OH235092   2.306   1.135  15.681 -0.2880  0.6606  0.2471
 4534TIP3    H135093   2.380   1.112  15.626  0.9915  1.2591  1.6398
 4534TIP3    H235094   2.278   1.053  15.721  0.5990  0.6369  0.8431
 4535TIP3   OH235095   4.263   3.429  12.968  0.1014 -0.5422 -0.0543
 4535TIP3    H135096   4.337   3.378  13.001  0.5676  0.8845  1.2042
 4535TIP3    H235097   4.303   3.499  12.915 -0.4714 -0.8843 -0.9690
 4536TIP3   OH235098   2.286   6.773   4.650  0.1261  0.0147  0.1208
 4536TIP3    H135099   2.331   6.851   4.618  1.3725  0.0253  1.7352
 4536TIP3    H235100   2.198   6.779   4.615  1.2868  0.0924 -3.0623
 4537TIP3   OH235101   2.730   2.894  16.748 -0.3724  0.5436 -0.0437
 4537TIP3    H135102   2.808   2.845  16.773 -1.0195 -0.5299 -0.0776
 4537TIP3    H235103   2.704   2.941  16.827 -2.2816 -2.6470  1.4214
 4538TIP3   OH235104   2.724   6.456   6.406 -0.2711  0.4772 -0.2253
 4538TIP3    H135105   2.808   6.443   6.362 -1.6974 -0.2216 -2.9718
 4538TIP3    H235106   2.702   6.548   6.391 -0.4180  0.4286 -0.3104
 4539TIP3   OH235107   2.004   2.547  13.784 -0.0079  0.2039 -0.1259
 4539TIP3    H135108   1.996   2.517  13.874  0.0105 -1.3737 -0.6182
 4539TIP3    H235109   2.098   2.537  13.764  0.2012  1.6265  0.0084
 4540TIP3   OH235110   3.873   4.584   3.060  0.1807 -0.0389  0.0097
 4540TIP3    H135111   3.812   4.510   3.065  0.4353 -0.2103  0.6270
 4540TIP3    H235112   3.956   4.544   3.035 -0.0344  0.2439 -1.2468
 4541TIP3   OH235113   3.208   1.454   3.882  0.1820 -0.7505  0.1576
 4541TIP3    H135114   3.125   1.410   3.903  0.4633 -0.3921  2.2395
 4541TIP3    H235115   3.182   1.530   3.830 -0.8285 -0.6049  0.8432
 4542TIP3   OH235116   3.937   2.738  17.216 -0.1877  0.3564 -0.4279
 4542TIP3    H135117   3.976   2.660  17.256  1.7737  0.7948 -1.3799
 4542TIP3    H235118   3.987   2.811  17.253 -0.5464  0.9930 -1.1828
 4543TIP3   OH235119   5.619   3.121  15.895  0.0950  0.2235  0.4934
 4543TIP3    H135120   5.620   3.119  15.991 -0.1893  0.6773  0.5055
 4543TIP3    H235121   5.707   3.148  15.870  0.0468  0.5206  0.6400
 4544TIP3   OH235122   3.738   0.439   0.377  0.1393 -0.7221  0.5844
 4544TIP3    H135123   3.679   0.411   0.307  0.6435  0.4559 -0.3404
 4544TIP3    H235124   3.810   0.483   0.332  0.6789 -0.2871  1.8234
 4545TIP3   OH235125   5.651   4.416   3.942 -0.2173  0.0276 -0.3306
 4545TIP3    H135126   5.599   4.459   3.874  0.4236  2.3132  0.5344
 4545TIP3    H235127   5.708   4.485   3.976  0.3548 -1.3439  1.6782
 4546TIP3   OH235128   1.213   3.070   1.890 -0.3917 -1.2694  0.4740
 4546TIP3    H135129   1.193   3.114   1.973 -1.2481 -0.3710 -0.1709
 4546TIP3    H235130   1.303   3.040   1.899  0.9858  2.3371  0.2920
 4547TIP3   OH235131   3.041   0.664   0.421 -0.6267  0.3908  0.0470
 4547TIP3    H135132   2.986   0.739   0.398 -0.0643  0.9593  0.4921
 4547TIP3    H235133   3.038   0.607   0.345 -0.8551  0.9997 -0.4085
 4548TIP3   OH235134   4.052   3.027   0.875  0.0955 -0.1454  0.8506
 4548TIP3    H135135   4.114   2.972   0.924  0.9701 -0.8640 -0.9785
 4548TIP3    H235136   3.980   2.967   0.854 -1.0290  0.5496  2.4917
 4549TIP3   OH235137   0.846   0.526  13.781  0.2000  0.5801 -0.2589
 4549TIP3    H135138   0.937   0.537  13.753  0.6079  0.7351  1.0462
 4549TIP3    H235139   0.801   0.605  13.750  1.0915  1.7264  1.2667
 4550TIP3   OH235140   3.811   5.280  13.007 -0.1766  0.3653 -0.1224
 4550TIP3    H135141   3.865   5.214  12.963  1.3504  2.5933 -1.8870
 4550TIP3    H235142   3.732   5.286  12.954 -0.1406  0.2209 -0.1921
 4551TIP3   OH235143   4.440   1.928   5.809  0.2520  0.5958 -0.0436
 4551TIP3    H135144   4.474   1.842   5.835  2.1260  1.5199  0.7901
 4551TIP3    H235145   4.438   1.925   5.713  0.7864 -0.2092 -0.0398
 4552TIP3   OH235146   6.720   1.250   2.438 -0.0349 -0.3248  0.3564
 4552TIP3    H135147   6.799   1.265   2.489  0.6858 -2.2617 -0.0966
 4552TIP3    H235148   6.748   1.191   2.367 -1.9804 -1.5588  0.5418
 4553TIP3   OH235149   6.435   3.589  11.739 -0.3888 -0.1132  0.0803
 4553TIP3    H135150   6.497   3.662  11.734 -1.6240  1.0012  0.2585
 4553TIP3    H235151   6.486   3.512  11.716  0.6789  0.9804 -1.4009
 4554TIP3   OH235152   0.582   1.805   2.943 -0.0719  0.3079 -0.5011
 4554TIP3    H135153   0.487   1.815   2.939 -0.2614 -0.7678  0.5762
 4554TIP3    H235154   0.603   1.742   2.874 -0.3289 -0.4755  0.1195
 4555TIP3   OH235155   2.667   3.743  12.749 -0.7246 -0.1260 -0.4089
 4555TIP3    H135156   2.576   3.770  12.759 -0.2918  1.7589 -1.0646
 4555TIP3    H235157   2.704   3.808  12.689  1.7937  0.9184  2.0961
 4556TIP3   OH235158   2.710   1.466  16.529 -0.4964  0.3120  0.7588
 4556TIP3    H135159   2.621   1.433  16.531  0.2411 -1.9952 -0.8940
 4556TIP3    H235160   2.734   1.477  16.621 -1.5811 -1.6739  1.3294
 4557TIP3   OH235161   4.020   1.234  11.334 -0.0358 -0.0663  0.1254
 4557TIP3    H135162   4.102   1.271  11.365 -0.9664  1.7509  0.5374
 4557TIP3    H235163   4.046   1.156  11.285  2.0657  1.3244 -1.1075
 4558TIP3   OH235164   5.692   3.902   1.411  0.4931  0.4450  0.1230
 4558TIP3    H135165   5.733   3.846   1.345  0.2116 -1.6480  1.6289
 4558TIP3    H235166   5.701   3.991   1.376 -0.5164 -0.6176 -3.1669
 4559TIP3   OH235167   2.243   1.201  14.932 -0.2370  0.1438  0.2336
 4559TIP3    H135168   2.329   1.170  14.904 -0.5826 -0.4907 -0.1422
 4559TIP3    H235169   2.258   1.293  14.957  0.6442 -0.0891  0.6336
 4560TIP3   OH235170   6.396   5.387   5.084 -0.2057  0.1428 -0.0819
 4560TIP3    H135171   6.440   5.342   5.011  0.3177  1.4072 -0.5717
 4560TIP3    H235172   6.353   5.317   5.133  0.6995 -0.9018 -0.7406
 4561TIP3   OH235173   6.703   5.543   3.826 -0.3854 -0.4576  0.5399
 4561TIP3    H135174   6.789   5.507   3.806  0.0592  0.9325 -0.1805
 4561TIP3    H235175   6.660   5.552   3.741  0.3284  2.5601  0.3785
 4562TIP3   OH235176   0.998   6.034   1.322 -0.6079 -0.2060 -0.0338
 4562TIP3    H135177   1.074   6.054   1.268  0.5152 -5.2189 -0.8457
 4562TIP3    H235178   0.923   6.049   1.265  0.3274 -1.7552 -1.7718
 4563TIP3   OH235179   0.020   5.307  15.962  0.6122  0.4611 -0.5761
 4563TIP3    H135180   0.031   5.214  15.981  1.0290  0.6029 -0.1062
 4563TIP3    H235181   0.063   5.319  15.877 -1.1841 -0.1580 -1.6065
 4564TIP3   OH235182   5.198   4.325  16.480  0.4492 -0.2693  0.1726
 4564TIP3    H135183   5.251   4.379  16.422 -1.2294  1.0203 -0.2299
 4564TIP3    H235184   5.126   4.294  16.426  0.2804 -1.2367  0.9173
 4565TIP3   OH235185   3.188   0.324   1.828 -0.2365  0.3465  0.0912
 4565TIP3    H135186   3.283   0.318   1.818 -0.1688 -3.7755  1.1896
 4565TIP3    H235187   3.153   0.310   1.740  0.0694  2.6898 -0.4639
 4566TIP3   OH235188   1.643   2.504   5.718 -0.6034 -0.2058 -0.4033
 4566TIP3    H135189   1.617   2.550   5.638 -0.1481  0.8273  0.0364
 4566TIP3    H235190   1.710   2.559   5.757 -0.5076 -0.9236  0.4748
 4567TIP3   OH235191   2.546   2.554   1.040 -0.1682  0.0938  0.7409
 4567TIP3    H135192   2.626   2.601   1.018  0.1787 -1.2313 -1.1309
 4567TIP3    H235193   2.563   2.517   1.126  1.0486  0.2749  0.6042
 4568TIP3   OH235194   2.587   6.697   4.569 -0.4583 -0.1064  0.6291
 4568TIP3    H135195   2.548   6.784   4.567 -1.0265 -0.3264  1.5370
 4568TIP3    H235196   2.512   6.638   4.579 -0.0229 -0.6517  0.7159
 4569TIP3   OH235197   0.558   0.650  12.452 -0.3418 -0.0191  0.4088
 4569TIP3    H135198   0.642   0.605  12.450 -0.0074  0.5998 -0.5013
 4569TIP3    H235199   0.561   0.708  12.375 -1.4567  0.2585  0.5643
 4570TIP3   OH235200   2.102   2.723   1.943  0.6089 -0.4879 -0.2709
 4570TIP3    H135201   2.129   2.784   1.874  1.3351 -0.9151 -0.3762
 4570TIP3    H235202   2.181   2.712   1.996  0.3297 -0.9197  0.0545
 4571TIP3   OH235203   0.349   4.870   4.080 -0.0314 -0.0008 -0.0462
 4571TIP3    H135204   0.311   4.802   4.135  2.0384 -0.4299  0.9611
 4571TIP3    H235205   0.281   4.936   4.072 -1.7302 -1.6848 -0.1779
 4572TIP3   OH235206   1.296   0.601   4.882 -0.4560 -0.1195 -0.1781
 4572TIP3    H135207   1.201   0.588   4.885 -0.3048 -1.2309  0.3516
 4572TIP3    H235208   1.315   0.662   4.953 -0.5641 -1.5475  1.1520
 4573TIP3   OH235209   4.967   3.108   0.594 -0.8089 -0.0463  0.0194
 4573TIP3    H135210   4.895   3.171   0.599 -1.2642 -0.5924  0.3405
 4573TIP3    H235211   4.928   3.028   0.560  0.1969  0.4664 -2.5737
 4574TIP3   OH235212   2.609   1.360  13.715  0.1489 -0.3593 -0.4796
 4574TIP3    H135213   2.651   1.308  13.647 -1.4527 -0.6083 -1.3239
 4574TIP3    H235214   2.517   1.361  13.691 -0.6624 -1.3305  2.2501
 4575TIP3   OH235215   1.008   3.803   0.745 -0.5826  0.2958 -0.0639
 4575TIP3    H135216   1.057   3.798   0.663 -0.5084 -2.3534  0.0379
 4575TIP3    H235217   1.074   3.793   0.813 -0.5790  2.9866  0.4247
 4576TIP3   OH235218   4.663   6.536  11.257  0.0331 -0.0327  0.2450
 4576TIP3    H135219   4.642   6.618  11.303 -0.7369  0.2109 -0.5238
 4576TIP3    H235220   4.579   6.491  11.248  0.1110  0.0542 -1.1440
 4577TIP3   OH235221   1.251   4.574   0.631 -0.1897 -0.3122  0.2758
 4577TIP3    H135222   1.158   4.575   0.653 -0.0561  0.9761  0.8875
 4577TIP3    H235223   1.254   4.589   0.536 -0.5989 -0.1953  0.2815
 4578TIP3   OH235224   3.187   6.595  12.166  0.2408 -0.6027  0.1823
 4578TIP3    H135225   3.225   6.677  12.135  0.0755 -1.0685 -1.3339
 4578TIP3    H235226   3.117   6.575  12.104  0.1966 -1.8377  0.5871
 4579TIP3   OH235227   5.171   1.200   5.552 -0.2123 -0.4894 -0.7509
 4579TIP3    H135228   5.255   1.218   5.595 -1.0640  1.7443  0.1998
 4579TIP3    H235229   5.175   1.108   5.528  2.1515 -0.6730  0.0522
 4580TIP3   OH235230   3.758   4.059   2.298  0.9131  0.0930 -0.3734
 4580TIP3    H135231   3.837   4.111   2.278  1.2242 -0.4811 -0.6436
 4580TIP3    H235232   3.736   4.016   2.215  0.7514 -0.3350 -0.1096
 4581TIP3   OH235233   2.337   5.969   6.579 -0.3425  0.2782  0.0940
 4581TIP3    H135234   2.272   6.039   6.580 -0.2611  0.3661  1.2025
 4581TIP3    H235235   2.418   6.012   6.553 -0.2767  0.6308  0.8492
 4582TIP3   OH235236   5.479   0.087   3.286 -0.1577 -0.0029 -0.0975
 4582TIP3    H135237   5.422   0.033   3.231 -1.2177 -0.2814  1.2114
 4582TIP3    H235238   5.450   0.177   3.270 -1.4852 -0.1827  1.0373
 4583TIP3   OH235239   2.631   5.007  12.151  0.1336 -0.5249 -0.1086
 4583TIP3    H135240   2.632   5.071  12.222  1.0630 -0.5516 -0.0870
 4583TIP3    H235241   2.557   5.033  12.096 -1.0545 -0.9208  1.2212
 4584TIP3   OH235242   2.953   1.254  15.414  0.5485 -0.3251 -0.4092
 4584TIP3    H135243   2.973   1.341  15.381  0.4081 -0.3861 -0.6597
 4584TIP3    H235244   2.872   1.229  15.369  0.8975 -0.8151 -0.7695
 4585TIP3   OH235245   5.997   5.812   1.306 -0.0719 -0.1364  0.0779
 4585TIP3    H135246   6.040   5.741   1.260 -2.2461 -0.8147 -1.0897
 4585TIP3    H235247   5.915   5.774   1.337 -0.3525  1.3341  1.2451
 4586TIP3   OH235248   4.989   3.791  16.591  0.4479 -0.8811 -0.1752
 4586TIP3    H135249   4.972   3.713  16.644  1.0869  0.6437  2.4140
 4586TIP3    H235250   4.908   3.803  16.540  0.0284 -2.7361 -0.0088
 4587TIP3   OH235251   4.244   6.649   3.750  0.1648 -0.1728  0.0972
 4587TIP3    H135252   4.301   6.716   3.711 -0.6288  0.7983  0.5386
 4587TIP3    H235253   4.213   6.598   3.676  1.4930 -0.6573 -0.1669
 4588TIP3   OH235254   5.405   3.136   4.614 -0.1129 -0.2271 -0.4747
 4588TIP3    H135255   5.429   3.048   4.585 -1.6339 -0.0395 -2.5732
 4588TIP3    H235256   5.427   3.192   4.539  0.8751  1.2216  0.8394
 4589TIP3   OH235257   3.529   6.395  17.038  0.0391 -0.1891 -0.4588
 4589TIP3    H135258   3.482   6.343  17.102 -0.6408 -1.7058 -2.0972
 4589TIP3    H235259   3.622   6.379  17.057 -0.0195  1.8018  1.9726
 4590TIP3   OH235260   3.437   1.824  13.429 -0.1472 -0.1068  0.1361
 4590TIP3    H135261   3.502   1.770  13.475  0.8312  0.1715 -0.8795
 4590TIP3    H235262   3.353   1.784  13.451  0.3316 -0.3533  1.6559
 4591TIP3   OH235263   4.477   6.209  14.089  0.9947  0.1755  0.0921
 4591TIP3    H135264   4.394   6.220  14.045  1.3980 -0.5567 -0.8827
 4591TIP3    H235265   4.454   6.205  14.182 -0.1146 -0.5376 -0.1921
 4592TIP3   OH235266   5.853   2.250   1.418  0.1033 -0.1092  0.2694
 4592TIP3    H135267   5.927   2.310   1.413  0.3708 -0.3944  0.6533
 4592TIP3    H235268   5.785   2.299   1.464  0.2768 -0.0537  0.4698
 4593TIP3   OH235269   2.804   2.982   1.076  0.0067 -0.0672 -0.0226
 4593TIP3    H135270   2.809   2.939   1.161 -2.7638  0.6774  0.5924
 4593TIP3    H235271   2.894   2.978   1.043  0.6581 -2.7564  1.7068
 4594TIP3   OH235272   2.301   4.368  11.734  0.1304 -0.4118  0.2441
 4594TIP3    H135273   2.311   4.462  11.720 -2.3650 -0.0014  0.7982
 4594TIP3    H235274   2.376   4.344  11.789 -0.5120  1.7816  2.2290
 4595TIP3   OH235275   6.303   0.096  11.576  0.7534  0.0941  0.7081
 4595TIP3    H135276   6.244   0.102  11.501  0.2916  0.2526  1.0806
 4595TIP3    H235277   6.375   0.155  11.554  0.8330 -0.1884  0.1982
 4596TIP3   OH235278   6.667   1.755   4.201 -0.1061 -0.3014  0.5844
 4596TIP3    H135279   6.577   1.776   4.225  0.1630  0.5516  0.8854
 4596TIP3    H235280   6.718   1.830   4.231  0.6128 -0.4535 -0.2183
 4597TIP3   OH235281   0.543   1.744  15.176  0.2678 -0.3319 -0.5821
 4597TIP3    H135282   0.547   1.839  15.187  0.8817 -0.6245  3.1088
 4597TIP3    H235283   0.633   1.718  15.155  0.3271 -0.1836 -0.5144
 4598TIP3   OH235284   3.860   5.997   2.100 -0.6158 -0.6399 -0.1798
 4598TIP3    H135285   3.874   5.955   2.185 -0.3257 -0.2681 -0.0410
 4598TIP3    H235286   3.835   6.087   2.121  0.4084 -0.2721 -0.4975
 4599TIP3   OH235287   0.731   3.172  13.543 -0.2205  0.1563 -0.2698
 4599TIP3    H135288   0.777   3.250  13.512 -0.7145  0.4068 -0.3765
 4599TIP3    H235289   0.660   3.206  13.597  0.1969 -0.2523  0.5625
 4600TIP3   OH235290   1.927   0.304   3.300 -0.0310  0.3529  0.4583
 4600TIP3    H135291   1.982   0.381   3.313 -0.7207  0.9722 -0.1885
 4600TIP3    H235292   1.864   0.330   3.233  0.0909 -0.9641 -0.2138
 4601TIP3   OH235293   5.171   0.916  15.730  0.2607  0.1104  0.1240
 4601TIP3    H135294   5.192   0.829  15.697  1.9623 -0.0975  1.6039
 4601TIP3    H235295   5.247   0.969  15.706 -1.3336  1.6111 -1.9978
 4602TIP3   OH235296   0.230   4.663  12.841  0.6486 -0.2381  0.8151
 4602TIP3    H135297   0.189   4.578  12.858 -0.6427  0.1378 -0.2705
 4602TIP3    H235298   0.321   4.641  12.819  0.7342 -1.1936  2.0080
 4603TIP3   OH235299   2.760   2.694   2.897  0.2504  0.1076 -0.2275
 4603TIP3    H135300   2.820   2.670   2.827 -0.3633 -1.8242 -0.1581
 4603TIP3    H235301   2.675   2.705   2.853  0.0264 -0.3157  0.0917
 4604TIP3   OH235302   5.372   4.700  14.837 -0.7171  0.0246 -0.2958
 4604TIP3    H135303   5.408   4.683  14.750  0.3447  0.1485  0.0966
 4604TIP3    H235304   5.345   4.614  14.869  0.4978 -0.3071 -0.0854
 4605TIP3   OH235305   6.317   1.718   5.631 -0.0374  0.6270  0.2476
 4605TIP3    H135306   6.258   1.728   5.556  0.7872  0.4925 -0.4244
 4605TIP3    H235307   6.303   1.798   5.682  1.0390  1.8182 -1.2244
 4606TIP3   OH235308   0.789   5.951  11.738 -0.2233 -0.1551 -0.1678
 4606TIP3    H135309   0.824   5.980  11.822 -0.8383 -1.0637  0.4318
 4606TIP3    H235310   0.844   5.993  11.673  1.4500 -0.8802  0.7158
 4607TIP3   OH235311   4.182   1.297   5.356 -0.3459 -0.7306  0.1210
 4607TIP3    H135312   4.121   1.371   5.356  3.1351  2.4113  0.8788
 4607TIP3    H235313   4.175   1.261   5.268 -1.8367  0.7748 -0.4337
 4608TIP3   OH235314   5.603   2.962  14.948 -0.0385 -0.2160 -0.0915
 4608TIP3    H135315   5.544   3.030  14.913  1.1812  0.7944 -0.2828
 4608TIP3    H235316   5.547   2.886  14.961 -1.0743  0.1978 -1.7820
 4609TIP3   OH235317   6.763   4.945   3.281  0.2004 -0.4272 -0.0268
 4609TIP3    H135318   6.814   4.989   3.349  2.4543  0.4987 -2.1151
 4609TIP3    H235319   6.777   4.852   3.296 -0.5151 -0.3003  1.5529
 4610TIP3   OH235320   5.895   1.426   5.560 -0.0731 -0.4959  0.7522
 4610TIP3    H135321   5.834   1.395   5.493  0.6142 -3.2010  1.2301
 4610TIP3    H235322   5.981   1.418   5.519  0.2726 -1.2143  1.5728
 4611TIP3   OH235323   1.814   5.857   0.268 -0.2526 -0.6421  0.2896
 4611TIP3    H135324   1.850   5.925   0.211 -1.4168 -1.0456 -0.9913
 4611TIP3    H235325   1.756   5.806   0.211 -2.0298 -0.6330  1.9634
 4612TIP3   OH235326   6.707   2.633   2.128  0.0545  0.2391  0.3807
 4612TIP3    H135327   6.634   2.572   2.137  0.2091  0.1266  0.8601
 4612TIP3    H235328   6.784   2.584   2.155  0.0303  0.9680  1.8337
 4613TIP3   OH235329   4.680   6.626   3.098 -0.4415  0.7558  0.2485
 4613TIP3    H135330   4.645   6.709   3.064  0.0278  1.3941  1.2869
 4613TIP3    H235331   4.758   6.609   3.045 -1.3890  0.1536 -1.0027
 4614TIP3   OH235332   1.263   3.522  11.503  0.0364 -0.3995 -0.1045
 4614TIP3    H135333   1.237   3.430  11.493 -0.0729 -0.5433  1.2561
 4614TIP3    H235334   1.259   3.538  11.598  2.2686  0.3419 -0.0664
 4615TIP3   OH235335   5.697   0.802   3.182 -0.0833  0.6491 -0.1679
 4615TIP3    H135336   5.610   0.780   3.148  0.3872 -0.7985 -0.5051
 4615TIP3    H235337   5.731   0.867   3.120 -1.6519  2.7271  1.0451
 4616TIP3   OH235338   5.189   0.583   1.007  0.3702  0.4442 -1.0447
 4616TIP3    H135339   5.257   0.604   0.944  0.6772  0.2066 -0.7995
 4616TIP3    H235340   5.178   0.488   1.000  2.6274 -0.1197  1.4086
 4617TIP3   OH235341   5.449   6.796  11.975  0.1129  0.0326 -0.0855
 4617TIP3    H135342   5.524   6.851  11.954  0.5163 -0.9243 -1.3329
 4617TIP3    H235343   5.483   6.707  11.970 -0.6807 -0.3673  1.2099
 4618TIP3   OH235344   0.929   6.370  14.311 -0.1731 -0.2460  0.0633
 4618TIP3    H135345   0.838   6.361  14.285 -0.6182 -0.2962  1.6020
 4618TIP3    H235346   0.927   6.393  14.404  1.3742 -0.0892  0.0965
 4619TIP3   OH235347   2.319   1.362   4.586  0.5554 -0.6392  0.0410
 4619TIP3    H135348   2.283   1.389   4.671  1.1577  0.6272 -0.0673
 4619TIP3    H235349   2.247   1.319   4.541 -0.2245  0.0424  0.6076
 4620TIP3   OH235350   3.777   3.828  12.389 -0.3775  0.0967  0.5146
 4620TIP3    H135351   3.753   3.830  12.482  1.8400 -3.0613  1.3373
 4620TIP3    H235352   3.858   3.878  12.384 -0.8143  0.7853  0.1017
 4621TIP3   OH235353   5.792   5.875   5.003 -0.1045 -0.3878  0.2922
 4621TIP3    H135354   5.745   5.840   5.079 -0.6908 -1.4342 -0.5218
 4621TIP3    H235355   5.766   5.967   4.999  1.3247  0.1854  2.3802
 4622TIP3   OH235356   6.520   2.699  12.345 -0.1087 -0.2021  0.4025
 4622TIP3    H135357   6.574   2.751  12.404 -0.2494  0.7229 -0.2426
 4622TIP3    H235358   6.581   2.664  12.280 -0.3430  1.8484 -1.0512
 4623TIP3   OH235359   6.674   6.416  16.839  0.0590 -0.0937  0.1117
 4623TIP3    H135360   6.636   6.481  16.898  0.8220 -0.3595  0.9099
 4623TIP3    H235361   6.635   6.436  16.754  0.2108  1.3504  0.3619
 4624TIP3   OH235362   5.035   5.196   0.445 -0.3657  0.3044 -0.6648
 4624TIP3    H135363   5.010   5.127   0.506 -0.2348 -1.1219 -2.1492
 4624TIP3    H235364   4.954   5.245   0.429 -0.7087 -0.1874 -0.4397
 4625TIP3   OH235365   0.307   3.374  16.449  0.2916  0.2909 -0.2507
 4625TIP3    H135366   0.296   3.385  16.355  0.2645 -2.1157 -0.5924
 4625TIP3    H235367   0.228   3.330  16.478  0.7067  0.1528  0.7226
 4626TIP3   OH235368   5.932   5.180  11.862  0.0204  0.0705  0.0445
 4626TIP3    H135369   5.936   5.271  11.832  0.1014  0.0005 -0.1534
 4626TIP3    H235370   5.963   5.184  11.953 -2.6547  0.6673  1.0022
 4627TIP3   OH235371   2.760   1.420   4.296  0.1284  0.2715 -0.0763
 4627TIP3    H135372   2.665   1.422   4.281 -0.0749 -0.1822  1.0610
 4627TIP3    H235373   2.777   1.331   4.328  0.6784  0.8654  1.3489
 4628TIP3   OH235374   2.614   1.861   3.779  0.5237 -0.3323  0.2718
 4628TIP3    H135375   2.527   1.865   3.739  0.8820  0.2752 -0.4957
 4628TIP3    H235376   2.604   1.906   3.863  0.6100  2.0255 -0.8811
 4629TIP3   OH235377   6.322   1.632  12.231  0.4158 -0.1335  0.1215
 4629TIP3    H135378   6.362   1.602  12.312  1.5532  1.1429  0.0673
 4629TIP3    H235379   6.247   1.685  12.261  0.3997 -0.2633  0.3159
 4630TIP3   OH235380   5.546   5.332   4.954 -0.0708 -0.6854 -0.3411
 4630TIP3    H135381   5.605   5.285   5.013  0.8034  0.6630 -0.1145
 4630TIP3    H235382   5.597   5.405   4.921 -1.8846  1.1967  0.7162
 4631TIP3   OH235383   1.105   1.725  11.234  0.0255  0.1125  0.3467
 4631TIP3    H135384   1.131   1.694  11.321  1.9630 -1.4584 -0.7107
 4631TIP3    H235385   1.115   1.820  11.239  1.1114 -0.0325  1.5482
 4632TIP3   OH235386   0.315   5.241  16.542  0.3508 -0.8117  1.0608
 4632TIP3    H135387   0.264   5.196  16.474 -1.5815  3.3125 -0.5646
 4632TIP3    H235388   0.391   5.275  16.496  1.5411 -1.8591  2.1622
 4633TIP3   OH235389   3.909   1.614  12.283  0.0984  0.2175  0.2157
 4633TIP3    H135390   3.836   1.669  12.256  0.7078  0.8965 -0.1070
 4633TIP3    H235391   3.869   1.532  12.311 -0.7924  0.6471  0.2305
 4634TIP3   OH235392   4.326   4.956   0.683  0.2602 -0.9573 -0.2643
 4634TIP3    H135393   4.288   4.881   0.638 -0.3593 -0.0485 -1.3044
 4634TIP3    H235394   4.417   4.930   0.700 -0.2003 -2.2996  0.2805
 4635TIP3   OH235395   0.879   5.193  16.168  0.3741 -0.7341  0.1847
 4635TIP3    H135396   0.887   5.121  16.230 -1.4999  0.1321  1.5530
 4635TIP3    H235397   0.840   5.264  16.219  1.0409  0.8671 -1.4048
 4636TIP3   OH235398   0.797   0.118   1.410 -0.6323  0.2403 -0.0006
 4636TIP3    H135399   0.857   0.117   1.484  0.0276 -1.4253 -0.5134
 4636TIP3    H235400   0.826   0.192   1.356  1.6397 -1.0860 -0.7321
 4637TIP3   OH235401   0.985   0.245  13.740 -0.7712 -0.6150  0.4955
 4637TIP3    H135402   0.897   0.283  13.748 -0.1025  0.8652  1.0018
 4637TIP3    H235403   0.990   0.183  13.813 -1.1662 -0.2166  0.8720
 4638TIP3   OH235404   1.412   4.600   5.697 -0.5974 -0.1278  0.1684
 4638TIP3    H135405   1.448   4.677   5.741  0.0147  1.3679 -2.7294
 4638TIP3    H235406   1.321   4.623   5.678 -0.0969  0.4284 -1.7346
 4639TIP3   OH235407   4.792   2.370   0.426  0.5064  0.2338 -0.3148
 4639TIP3    H135408   4.813   2.443   0.367  1.0748  1.5423  1.4200
 4639TIP3    H235409   4.802   2.292   0.371  1.8300  1.3167 -1.7406
 4640TIP3   OH235410   0.478   5.425  16.097  0.4558  0.2027 -0.4666
 4640TIP3    H135411   0.489   5.331  16.082  0.4395 -0.3068  2.2071
 4640TIP3    H235412   0.387   5.434  16.125  0.4062  1.0588 -0.8706
 4641TIP3   OH235413   6.744   4.398  13.442 -0.0029  0.5307 -0.2317
 4641TIP3    H135414   6.822   4.345  13.459 -0.2695  0.0194 -0.5742
 4641TIP3    H235415   6.715   4.426  13.528  0.3629  0.4429 -0.0750
 4642TIP3   OH235416   4.080   1.942   0.306  0.2432 -0.2402  0.5194
 4642TIP3    H135417   4.147   1.936   0.374 -0.6742 -1.7771  1.3396
 4642TIP3    H235418   4.051   2.033   0.309  1.4693  0.1571  0.9311
 4643TIP3   OH235419   0.301   6.724   5.277  0.2072 -0.5043  0.3445
 4643TIP3    H135420   0.329   6.801   5.326  0.1035 -0.3918  0.2271
 4643TIP3    H235421   0.206   6.729   5.276  0.1607 -1.0678  1.0364
 4644TIP3   OH235422   5.792   0.243  15.722 -0.3960  0.0285 -0.7938
 4644TIP3    H135423   5.736   0.198  15.786 -1.1923  2.5821  0.4343
 4644TIP3    H235424   5.880   0.209  15.738 -0.5288  0.7147  1.8885
 4645TIP3   OH235425   3.421   3.831  13.906 -0.0540  0.0993 -0.1525
 4645TIP3    H135426   3.374   3.883  13.840 -0.8767  0.5682  0.7721
 4645TIP3    H235427   3.441   3.894  13.976  2.4133  0.0178 -0.7118
 4646TIP3   OH235428   6.117   4.720   3.098 -0.5562  0.3818 -0.8463
 4646TIP3    H135429   6.195   4.735   3.045  1.2493 -2.4659  0.7621
 4646TIP3    H235430   6.138   4.756   3.184 -0.1799 -1.9406  0.1126
 4647TIP3   OH235431   2.058   3.210   3.051  0.2770  0.3369 -0.1512
 4647TIP3    H135432   2.100   3.130   3.020 -0.0861  0.2527 -0.4403
 4647TIP3    H235433   2.029   3.190   3.140  0.3974  0.2242 -0.1382
 4648TIP3   OH235434   0.187   5.789  12.618  0.3535  0.4980 -0.1894
 4648TIP3    H135435   0.246   5.850  12.576 -0.0675 -0.4242 -2.2610
 4648TIP3    H235436   0.100   5.816  12.588 -0.1061  0.5675  1.1382
 4649TIP3   OH235437   0.818   6.757  15.332  0.2796 -0.1709 -1.2803
 4649TIP3    H135438   0.797   6.830  15.390 -0.6411  0.8760 -2.8684
 4649TIP3    H235439   0.914   6.756  15.329  0.3009  1.0416 -1.3211
 4650TIP3   OH235440   4.610   5.139   4.746 -0.2665 -0.8948 -0.4156
 4650TIP3    H135441   4.630   5.068   4.686  0.2688 -0.7870 -0.3655
 4650TIP3    H235442   4.601   5.216   4.690  2.0726 -0.4053 -0.2319
 4651TIP3   OH235443   6.087   3.347   1.591 -0.5034  0.0806 -0.1770
 4651TIP3    H135444   6.117   3.266   1.633  2.9122 -0.0513 -2.4405
 4651TIP3    H235445   6.012   3.320   1.538 -1.1408 -0.9635  1.1859
 4652TIP3   OH235446   5.398   2.853  13.006  0.2680 -0.2670 -0.0196
 4652TIP3    H135447   5.329   2.788  13.022  1.1788 -1.1675  0.3906
 4652TIP3    H235448   5.403   2.859  12.910 -0.3168 -0.2726 -0.0521
 4653TIP3   OH235449   2.384   3.437   6.190 -0.1048  0.5246 -0.1191
 4653TIP3    H135450   2.448   3.462   6.257 -0.8428  0.4920  0.6171
 4653TIP3    H235451   2.428   3.368   6.140 -0.1742 -0.7453  1.4766
 4654TIP3   OH235452   3.975   0.841   2.944  0.4927  0.6622  0.4467
 4654TIP3    H135453   3.932   0.925   2.929  2.3148  1.5794  0.0730
 4654TIP3    H235454   4.053   0.863   2.995  0.0106 -1.0758  2.0267
 4655TIP3   OH235455   6.735   1.783   0.403  0.2068  0.4988 -0.0565
 4655TIP3    H135456   6.702   1.827   0.482 -0.9367 -0.5285  0.0673
 4655TIP3    H235457   6.791   1.713   0.436 -0.0947  0.2078 -0.1597
 4656TIP3   OH235458   3.007   2.269   1.888  0.3166  0.2141  0.4010
 4656TIP3    H135459   3.101   2.256   1.874  0.7170  1.8272  1.3233
 4656TIP3    H235460   2.987   2.217   1.965  0.4194 -0.2030  0.1517
 4657TIP3   OH235461   5.419   5.338   4.273  0.7316 -0.5075  0.1210
 4657TIP3    H135462   5.448   5.357   4.362  2.8578  0.3085 -0.6822
 4657TIP3    H235463   5.326   5.363   4.271  0.4633 -1.1831  2.2483
 4658TIP3   OH235464   4.456   2.787  16.264  0.0716  0.7491 -0.1041
 4658TIP3    H135465   4.416   2.848  16.326 -0.2297 -1.7752  2.3844
 4658TIP3    H235466   4.383   2.752  16.214 -0.8725 -2.3316  3.0437
 4659TIP3   OH235467   5.639   4.563  15.484 -0.1484 -0.1487  0.4649
 4659TIP3    H135468   5.655   4.557  15.390  1.7502 -0.2154  0.7491
 4659TIP3    H235469   5.628   4.473  15.513 -0.5532 -0.1405  0.3433
 4660TIP3   OH235470   0.751   1.206   3.326  0.1354 -0.3702 -0.6792
 4660TIP3    H135471   0.795   1.291   3.324  1.1583 -0.8976 -1.2164
 4660TIP3    H235472   0.662   1.226   3.357  0.3710  0.8834 -0.7564
 4661TIP3   OH235473   0.977   1.017  16.380 -0.2365 -0.1153  0.0322
 4661TIP3    H135474   0.944   1.006  16.291 -0.1967  0.1143 -0.0109
 4661TIP3    H235475   0.961   0.933  16.422 -1.1090  0.0621  0.0878
 4662TIP3   OH235476   4.235   4.472   2.442  0.0442 -0.8951  0.0306
 4662TIP3    H135477   4.219   4.545   2.382 -0.6842 -0.6219  0.5478
 4662TIP3    H235478   4.229   4.394   2.388 -0.6186 -0.6503 -0.2507
 4663TIP3   OH235479   5.402   4.098   5.751 -0.4325 -0.1737 -0.2154
 4663TIP3    H135480   5.322   4.113   5.701 -0.2464  1.1212 -0.1716
 4663TIP3    H235481   5.377   4.035   5.819 -1.1334 -0.5784 -0.8410
 4664TIP3   OH235482   3.221   3.301   0.620 -0.1944  0.0430  0.2999
 4664TIP3    H135483   3.273   3.380   0.637 -1.3601  1.2057 -1.2159
 4664TIP3    H235484   3.270   3.255   0.552 -0.2999  0.2699  0.0690
 4665TIP3   OH235485   6.151   4.297   4.647 -0.1248  0.0818 -0.3345
 4665TIP3    H135486   6.192   4.342   4.721  0.7776 -1.8154  0.3852
 4665TIP3    H235487   6.066   4.339   4.637 -0.0661  0.7038  1.4667
 4666TIP3   OH235488   3.538   4.498   0.059  0.2053 -0.2051 -0.4126
 4666TIP3    H135489   3.456   4.465   0.096  0.1615 -1.4615 -1.6053
 4666TIP3    H235490   3.514   4.582   0.020 -0.8105 -1.1355 -1.8541
 4667TIP3   OH235491   4.027   2.196   0.383 -0.2108 -0.1907  0.2982
 4667TIP3    H135492   4.019   2.182   0.478 -2.3258  0.8084  0.3361
 4667TIP3    H235493   4.030   2.292   0.374  2.1806 -0.2918 -0.5673
 4668TIP3   OH235494   4.049   3.110   2.923  0.3207 -0.2124 -0.0237
 4668TIP3    H135495   4.130   3.060   2.917  1.0358  0.8971  0.0061
 4668TIP3    H235496   4.054   3.153   3.008 -0.1381  0.1431 -0.1696
 4669TIP3   OH235497   5.853   0.273  13.997  0.3252  0.4489  0.3520
 4669TIP3    H135498   5.842   0.306  13.907 -1.9823  0.3434  0.5421
 4669TIP3    H235499   5.815   0.341  14.052  0.8220  0.0594  1.1945
 4670TIP3   OH235500   5.915   1.986   1.948  0.5946  0.1646 -0.3475
 4670TIP3    H135501   5.934   2.030   1.865 -1.9344  0.0807 -1.0712
 4670TIP3    H235502   5.963   1.904   1.942  1.6733  0.8121 -1.0403
 4671TIP3   OH235503   4.441   5.031  14.653 -0.3077  0.0003 -0.1603
 4671TIP3    H135504   4.447   4.984  14.569 -1.6654  1.7039 -1.2773
 4671TIP3    H235505   4.358   5.003  14.690 -0.5870  0.6638 -0.2874
 4672TIP3   OH235506   2.802   1.291  12.582  0.3970 -0.0129  0.3168
 4672TIP3    H135507   2.780   1.360  12.645 -1.7712 -0.1785 -0.1874
 4672TIP3    H235508   2.867   1.237  12.627  2.7140  2.6711  0.4913
 4673TIP3   OH235509   1.231   5.408   1.617  0.5011  0.8746 -0.1616
 4673TIP3    H135510   1.275   5.365   1.691  0.5333  1.3422  0.0903
 4673TIP3    H235511   1.146   5.366   1.612  0.1633  1.4372  0.6891
 4674TIP3   OH235512   1.574   3.864  14.679 -0.0986  0.4510  0.4903
 4674TIP3    H135513   1.494   3.826  14.714  0.2885 -1.6894 -0.7765
 4674TIP3    H235514   1.645   3.814  14.721  0.4589  0.2377 -0.6770
 4675TIP3   OH235515   4.882   3.981  16.261  0.6739  1.0777 -0.1332
 4675TIP3    H135516   4.932   4.054  16.296  0.3830  1.4137 -0.4220
 4675TIP3    H235517   4.825   3.955  16.333  0.7134  1.1899 -0.0614
 4676TIP3   OH235518   4.705   4.030  11.444 -0.7281  0.5531 -0.3762
 4676TIP3    H135519   4.776   3.969  11.462 -1.4940 -0.4362 -0.6381
 4676TIP3    H235520   4.692   4.026  11.350  0.0392  2.0863 -0.5872
 4677TIP3   OH235521   2.702   5.294   3.995 -0.5485  0.5446  0.0163
 4677TIP3    H135522   2.788   5.295   3.952 -1.1877 -0.6725 -1.4016
 4677TIP3    H235523   2.682   5.386   4.009 -0.4263  1.0836 -2.7065
 4678TIP3   OH235524   3.108   4.065  16.160 -0.4151  0.2182 -0.4868
 4678TIP3    H135525   3.089   4.158  16.146  1.0115  0.8464  1.3613
 4678TIP3    H235526   3.073   4.046  16.247  0.3574 -0.6634 -0.3553
 4679TIP3   OH235527   6.036   6.516   5.252 -0.5601 -0.2353 -0.3487
 4679TIP3    H135528   6.081   6.521   5.337 -0.4147 -0.5233 -0.4046
 4679TIP3    H235529   5.963   6.456   5.268  0.2330 -1.3492 -0.7469
 4680TIP3   OH235530   3.616   6.615   5.669  0.3190  0.0345  0.4808
 4680TIP3    H135531   3.576   6.553   5.730 -0.0071 -2.0606 -1.7402
 4680TIP3    H235532   3.710   6.603   5.680  0.2667 -1.5522 -0.5121
 4681TIP3   OH235533   0.013   2.640   2.502 -0.8668  0.1226 -0.0788
 4681TIP3    H135534   0.012   2.628   2.597  1.2571 -1.2216 -0.1588
 4681TIP3    H235535  -0.072   2.679   2.482 -1.7737 -0.4740  2.2402
 4682TIP3   OH235536   4.101   2.556   3.472 -0.1250 -0.1037 -0.0868
 4682TIP3    H135537   4.054   2.526   3.395  0.9897  1.0777 -1.2871
 4682TIP3    H235538   4.036   2.556   3.542 -1.6194  0.4568 -1.4240
 4683TIP3   OH235539   3.344   6.510   0.485 -0.1092  0.1946  0.2585
 4683TIP3    H135540   3.427   6.552   0.507 -1.2241  2.5872  0.2166
 4683TIP3    H235541   3.368   6.421   0.460  2.2372  0.2653  1.9056
 4684TIP3   OH235542   6.104   1.933  15.934  0.3920  0.5192 -0.0875
 4684TIP3    H135543   6.112   1.922  15.840  0.1286  2.3486 -0.3684
 4684TIP3    H235544   6.121   1.846  15.971 -1.6290 -0.7251 -1.9105
 4685TIP3   OH235545   2.999   3.608  13.243 -0.6853  0.4546  0.5034
 4685TIP3    H135546   2.967   3.647  13.325 -1.7486  1.8080 -0.4936
 4685TIP3    H235547   2.933   3.633  13.179 -0.9794 -2.3639 -0.4011
 4686TIP3   OH235548   0.123   3.422   0.654 -0.4845 -0.2556 -0.7865
 4686TIP3    H135549   0.049   3.482   0.644 -1.1116 -0.8952 -0.1048
 4686TIP3    H235550   0.090   3.337   0.625 -0.4123 -0.7991  0.6251
 4687TIP3   OH235551   3.035   3.494  11.655  0.1037 -0.5646 -0.4046
 4687TIP3    H135552   3.063   3.585  11.646 -0.3439 -0.4755 -0.9093
 4687TIP3    H235553   3.032   3.460  11.565  1.4934 -1.4563 -0.1484
 4688TIP3   OH235554   6.595   0.634   5.115 -0.4550 -0.3739 -0.4023
 4688TIP3    H135555   6.663   0.640   5.049  1.0739  0.0959  1.1285
 4688TIP3    H235556   6.533   0.571   5.080 -0.3337  0.7366 -2.7765
 4689TIP3   OH235557   1.403   4.471   2.585  0.3796 -0.0623  0.2321
 4689TIP3    H135558   1.392   4.399   2.522 -0.7383 -0.0916  0.4517
 4689TIP3    H235559   1.348   4.541   2.551  0.6853  0.3408  0.5605
 4690TIP3   OH235560   6.340   1.172   1.799 -0.1971 -0.2769  0.3185
 4690TIP3    H135561   6.397   1.245   1.776  1.5055 -0.7838  2.5982
 4690TIP3    H235562   6.381   1.096   1.758 -0.2560 -0.3795  0.4483
 4691TIP3   OH235563   4.000   3.542  16.489  0.3391 -0.2590 -0.6493
 4691TIP3    H135564   4.030   3.461  16.447  0.6575 -0.9388  0.8133
 4691TIP3    H235565   3.905   3.536  16.487  0.2878 -2.1122  1.9272
 4692TIP3   OH235566   6.349   4.483  15.635  0.4255 -0.6170  0.1836
 4692TIP3    H135567   6.412   4.416  15.609 -0.1927 -0.6158 -1.4489
 4692TIP3    H235568   6.269   4.434  15.653  0.4082 -0.4605  0.5279
 4693TIP3   OH235569   5.305   4.113   0.555  0.1887 -0.1463  0.2815
 4693TIP3    H135570   5.362   4.043   0.588 -0.6771  0.1147  2.4384
 4693TIP3    H235571   5.230   4.113   0.614 -0.0561  2.3148  0.0469
 4694TIP3   OH235572   5.867   5.756  11.949  0.3538 -0.4795 -0.8057
 4694TIP3    H135573   5.922   5.696  11.997  0.4517  0.7470  0.6811
 4694TIP3    H235574   5.917   5.777  11.870  0.8749 -1.3109 -0.7018
 4695TIP3   OH235575   1.273   2.743   3.211  0.0637 -0.0663  0.0286
 4695TIP3    H135576   1.303   2.672   3.155  0.4499  0.6977 -0.7697
 4695TIP3    H235577   1.336   2.745   3.283 -0.5220 -1.1521  0.5967
 4696TIP3   OH235578   2.544   0.219   1.512 -0.0831 -0.1395 -0.4283
 4696TIP3    H135579   2.532   0.128   1.483 -1.5881 -0.1137  0.0506
 4696TIP3    H235580   2.462   0.262   1.491  0.5613  1.0911 -0.5039
 4697TIP3   OH235581   0.947   1.046  16.840  0.0301 -0.3335  0.5730
 4697TIP3    H135582   0.864   1.003  16.819  0.1254 -0.1574 -0.1995
 4697TIP3    H235583   0.931   1.091  16.923 -1.1899  1.1010 -0.3953
 4698TIP3   OH235584   0.447   0.051  14.110  0.1303  0.1935 -0.3915
 4698TIP3    H135585   0.398   0.083  14.034  0.1613  1.7024  0.1998
 4698TIP3    H235586   0.538   0.047  14.079  0.2119  1.2530 -0.3099
 4699TIP3   OH235587   1.034   4.862   0.742 -0.2332  0.0328  0.2668
 4699TIP3    H135588   1.024   4.767   0.748 -0.8410  0.0345 -0.6439
 4699TIP3    H235589   1.072   4.886   0.827 -1.3281 -0.8519  1.0592
 4700TIP3   OH235590   3.141   2.254   4.633  0.0860 -0.0086  0.0433
 4700TIP3    H135591   3.075   2.193   4.599 -0.6726  0.5368  0.5182
 4700TIP3    H235592   3.214   2.245   4.572 -0.9060  0.3134 -1.2456
 4701TIP3   OH235593   2.240   1.467   1.334 -0.0191  0.1247 -0.1818
 4701TIP3    H135594   2.196   1.400   1.387 -2.0157  1.6793  0.2575
 4701TIP3    H235595   2.317   1.491   1.385 -1.2839  0.7647  1.5549
 4702TIP3   OH235596   2.879   2.270  10.884  0.6259 -0.8218 -0.0704
 4702TIP3    H135597   2.816   2.291  10.814 -0.1159 -0.0173  0.8117
 4702TIP3    H235598   2.858   2.180  10.908  0.4959 -0.9063 -0.4887
 4703TIP3   OH235599   3.627   1.194   5.576  0.3233 -0.1140  0.7697
 4703TIP3    H135600   3.687   1.169   5.646  1.8701 -0.9319 -0.7716
 4703TIP3    H235601   3.587   1.112   5.547 -0.0806  0.1738  0.4951
 4704TIP3   OH235602   0.121   3.878  12.304 -0.2804 -0.1465  0.3193
 4704TIP3    H135603   0.137   3.921  12.220 -1.4662  0.6179  0.4646
 4704TIP3    H235604   0.045   3.822  12.289  0.5996 -1.4226  0.4185
 4705TIP3   OH235605   2.500   0.778  16.964 -0.1106 -0.0061 -0.0554
 4705TIP3    H135606   2.506   0.734  16.878  1.1240  0.2073 -0.0962
 4705TIP3    H235607   2.591   0.797  16.987 -0.5328  1.2289  0.6469
 4706TIP3   OH235608   3.983   4.872   0.667  0.1604  1.0621  0.6622
 4706TIP3    H135609   4.019   4.807   0.607 -2.2270 -2.1411  2.4360
 4706TIP3    H235610   3.934   4.932   0.610 -0.0527 -0.4358 -0.8135
 4707TIP3   OH235611   4.025   6.789   3.850  0.5296  0.0214  0.4002
 4707TIP3    H135612   4.024   6.838   3.932  0.8310  1.1936 -0.2632
 4707TIP3    H235613   4.113   6.752   3.845  0.3114 -0.5828  0.8888
 4708TIP3   OH235614   3.753   5.428  11.337  0.1232  0.2122  0.9660
 4708TIP3    H135615   3.762   5.440  11.242 -1.6459  1.6828  0.9253
 4708TIP3    H235616   3.769   5.335  11.351  0.3168 -0.0600 -0.7891
 4709TIP3   OH235617   4.349   4.576   4.606 -0.1896  0.4051 -0.5007
 4709TIP3    H135618   4.274   4.518   4.607  0.3511 -0.3141 -0.7173
 4709TIP3    H235619   4.342   4.625   4.524 -0.8251  0.9025 -0.1621
 4710TIP3   OH235620   5.718   6.581   5.459  0.3018  0.1225  0.4860
 4710TIP3    H135621   5.758   6.547   5.539  1.3655 -0.5996 -0.3321
 4710TIP3    H235622   5.712   6.505   5.401  0.2090  0.7906 -0.3944
 4711TIP3   OH235623   2.642   2.595  13.799 -0.3160  0.3277 -0.3219
 4711TIP3    H135624   2.639   2.682  13.838 -0.0854 -0.1961  0.9200
 4711TIP3    H235625   2.611   2.607  13.710 -0.7349  1.6009 -0.0192
 4712TIP3   OH235626   6.087   1.474   4.530  1.0099  0.5027  0.0948
 4712TIP3    H135627   6.123   1.526   4.601 -1.5062  0.3538  1.6182
 4712TIP3    H235628   6.058   1.538   4.465  1.5695  0.7583  0.0993
 4713TIP3   OH235629   5.823   5.921   0.724  0.3534 -0.0475  0.3383
 4713TIP3    H135630   5.816   6.016   0.720  1.1546  0.0043  0.0811
 4713TIP3    H235631   5.839   5.902   0.816 -0.1943  0.0313  0.4553
 4714TIP3   OH235632   3.951   3.836  15.207  0.5387 -0.5251 -0.5539
 4714TIP3    H135633   4.040   3.840  15.172  0.2593  2.7554 -1.1984
 4714TIP3    H235634   3.898   3.802  15.135  1.2582 -3.0732  0.0261
 4715TIP3   OH235635   0.396   6.564  11.142  0.3569 -0.0659  0.8182
 4715TIP3    H135636   0.325   6.509  11.108  1.2854 -0.2467 -0.8973
 4715TIP3    H235637   0.363   6.595  11.227 -2.4508  1.1255 -0.5894
 4716TIP3   OH235638   5.565   0.048   1.388  0.4238 -0.4266 -0.8780
 4716TIP3    H135639   5.631   0.094   1.335 -1.7793  1.2041 -2.4136
 4716TIP3    H235640   5.515  -0.003   1.324 -1.0366 -0.0292 -0.0797
 4717TIP3   OH235641   5.842   1.807  12.478 -0.0164 -0.0411 -0.1959
 4717TIP3    H135642   5.790   1.753  12.419 -0.2917 -0.0177  0.0243
 4717TIP3    H235643   5.778   1.861  12.524  0.2516  0.4166 -0.3568
 4718TIP3   OH235644   5.034   2.670  12.209 -0.0250 -0.2438  0.1452
 4718TIP3    H135645   5.017   2.655  12.116 -1.3177 -0.7119  0.4304
 4718TIP3    H235646   4.975   2.610  12.254 -0.1585  0.6835  1.2739
 4719TIP3   OH235647   1.338   3.397   4.555 -0.0659 -0.1210  0.8945
 4719TIP3    H135648   1.348   3.312   4.512 -0.3717  0.7621 -1.0227
 4719TIP3    H235649   1.306   3.455   4.486  0.7173  1.7106  2.0028
 4720TIP3   OH235650   5.193   1.390  11.961 -0.4557 -0.0220  0.4010
 4720TIP3    H135651   5.249   1.339  12.019 -0.1711  1.0751  1.1187
 4720TIP3    H235652   5.253   1.429  11.898 -0.0733  2.6350  2.2530
 4721TIP3   OH235653   1.366   2.660  13.618  0.2465  0.2840  0.5573
 4721TIP3    H135654   1.437   2.714  13.584  0.0092 -0.2312 -0.8078
 4721TIP3    H235655   1.309   2.721  13.664  1.8658  0.6258  2.2392
 4722TIP3   OH235656   0.493   4.893  12.003  0.0065  0.9453 -0.3025
 4722TIP3    H135657   0.438   4.970  11.990 -0.0860  0.8317 -0.5879
 4722TIP3    H235658   0.580   4.919  11.971 -0.0235  0.9308 -0.3943
 4723TIP3   OH235659   3.307   0.514   2.450 -0.9733 -0.0269 -0.3755
 4723TIP3    H135660   3.313   0.425   2.414 -1.7237  0.4014 -1.6528
 4723TIP3    H235661   3.260   0.504   2.533  1.3651 -1.1364  0.9137
 4724TIP3   OH235662   4.568   1.830  16.470 -0.2718 -0.3206  0.1209
 4724TIP3    H135663   4.647   1.883  16.458 -1.2264  1.3839  1.0879
 4724TIP3    H235664   4.544   1.802  16.382  0.0937  1.1375 -0.4701
 4725TIP3   OH235665   3.921   5.433   0.744  0.0596 -0.4521 -0.0315
 4725TIP3    H135666   3.944   5.348   0.705 -0.6486 -0.9146  0.5419
 4725TIP3    H235667   3.960   5.497   0.684 -1.4202 -1.1259 -1.8457
 4726TIP3   OH235668   2.545   6.269   6.271 -0.0453 -0.0746 -0.1392
 4726TIP3    H135669   2.607   6.230   6.210 -0.0585  0.8081 -0.7261
 4726TIP3    H235670   2.587   6.350   6.300  0.3163 -0.8469  1.6421
 4727TIP3   OH235671   4.622   6.477  14.027  0.5369  0.0070 -0.5895
 4727TIP3    H135672   4.702   6.455  14.075 -0.0656 -0.1185  0.3978
 4727TIP3    H235673   4.589   6.392  13.997 -0.5369 -0.2553  1.1856
 4728TIP3   OH235674   3.395   6.109   5.348 -0.1961 -0.4483 -0.8251
 4728TIP3    H135675   3.395   6.056   5.268 -0.7860 -1.0627 -0.4286
 4728TIP3    H235676   3.485   6.140   5.355  0.1043 -1.1981 -1.2046
 4729TIP3   OH235677   3.946   0.767  11.191  0.0034 -0.3799 -0.3031
 4729TIP3    H135678   3.925   0.700  11.126  1.4019 -1.6993  0.5326
 4729TIP3    H235679   4.024   0.733  11.236 -0.1055  1.1383  1.1274
 4730TIP3   OH235680   2.183   0.199  13.813  0.1049  0.0656 -0.2374
 4730TIP3    H135681   2.181   0.103  13.807 -0.2399  0.1378 -1.6098
 4730TIP3    H235682   2.265   0.223  13.769 -0.7051  0.4745 -1.5752
 4731TIP3   OH235683   1.663   4.038   6.178  0.7755  0.1743 -0.6608
 4731TIP3    H135684   1.593   4.070   6.235 -0.1419 -2.1799 -0.3463
 4731TIP3    H235685   1.617   4.002   6.102  1.7127 -0.4542 -0.9412
 4732TIP3   OH235686   2.029   0.760   0.924  0.2149 -0.3849 -0.0879
 4732TIP3    H135687   2.017   0.839   0.975 -2.1787 -0.0120 -1.1025
 4732TIP3    H235688   1.990   0.780   0.839  1.4431 -1.9693 -1.0983
 4733TIP3   OH235689   3.655   1.114   2.001 -0.1467  0.8117 -0.0710
 4733TIP3    H135690   3.649   1.032   2.049  0.3670  1.1566  0.5909
 4733TIP3    H235691   3.589   1.106   1.932 -1.5440  0.6620  1.2308
 4734TIP3   OH235692   3.267   6.142   5.856 -0.7900  0.2572  0.7543
 4734TIP3    H135693   3.289   6.209   5.792 -0.4490  0.4416  1.0562
 4734TIP3    H235694   3.299   6.177   5.939 -0.7415 -0.2095  0.9383
 4735TIP3   OH235695   5.263   6.299   1.792  0.1336  0.2441  0.1692
 4735TIP3    H135696   5.267   6.305   1.697  0.9849  2.7935  0.2932
 4735TIP3    H235697   5.313   6.220   1.813 -2.5095 -2.0869 -1.5408
 4736TIP3   OH235698   6.023   0.052   2.496 -0.1166  0.0871  0.1786
 4736TIP3    H135699   5.935   0.014   2.485 -0.6827  1.6753 -1.1377
 4736TIP3    H235700   6.016   0.140   2.458  1.4342  1.1194  2.1091
 4737TIP3   OH235701   5.430   3.457  12.184 -0.1856 -0.2139 -0.3205
 4737TIP3    H135702   5.441   3.546  12.217  4.2211 -1.5634  2.6321
 4737TIP3    H235703   5.377   3.413  12.250  0.3276 -0.5338 -0.1163
 4738TIP3   OH235704   1.859   2.253   4.505 -0.7175 -0.4924  0.0752
 4738TIP3    H135705   1.930   2.232   4.444 -0.4250  1.5064 -0.3554
 4738TIP3    H235706   1.830   2.169   4.539  2.3114 -1.3459  0.7867
 4739TIP3   OH235707   5.439   6.319  14.055  0.0238  0.0356  0.1373
 4739TIP3    H135708   5.450   6.248  14.118 -1.1899 -0.2989  0.0064
 4739TIP3    H235709   5.510   6.307  13.992  2.7901  1.7848  2.6406
 4740TIP3   OH235710   2.546   4.938  16.696  0.4321  0.2364  0.6075
 4740TIP3    H135711   2.584   4.858  16.730  0.5691 -0.9180 -2.0198
 4740TIP3    H235712   2.462   4.911  16.660  0.1010  1.4497  0.4252
 4741TIP3   OH235713   3.614   4.952   0.201  0.2108 -0.0440 -0.2869
 4741TIP3    H135714   3.536   4.897   0.207 -0.6518  0.9918 -1.4259
 4741TIP3    H235715   3.669   4.909   0.136  0.4633 -0.6265  0.3084
 4742TIP3   OH235716   0.532   2.644  11.535 -0.3850  0.2206 -0.1251
 4742TIP3    H135717   0.458   2.641  11.596 -1.1603 -1.8697 -1.0273
 4742TIP3    H235718   0.590   2.711  11.569 -0.7259 -0.8920  2.9461
 4743TIP3   OH235719   1.296   2.173  12.290 -0.6167 -0.2390 -0.0102
 4743TIP3    H135720   1.204   2.146  12.291 -1.1178  1.3648  0.5053
 4743TIP3    H235721   1.316   2.188  12.198 -0.9562 -0.3784 -0.1059
 4744TIP3   OH235722   6.054   6.802   3.929 -0.0112  0.2215 -0.2095
 4744TIP3    H135723   6.047   6.708   3.945 -2.1154 -0.3159 -3.3509
 4744TIP3    H235724   5.965   6.829   3.905  1.1980  2.1375 -3.1522
 4745TIP3   OH235725   4.055   5.112  11.506  0.5912  0.1373 -0.6167
 4745TIP3    H135726   4.098   5.184  11.459 -0.6518  0.4977 -1.2421
 4745TIP3    H235727   3.965   5.112  11.474 -0.6260  0.9716  2.3756
 4746TIP3   OH235728   4.135   3.340   0.956  0.2112  0.1217 -0.1908
 4746TIP3    H135729   4.158   3.277   0.887  1.3809  0.4344 -0.1054
 4746TIP3    H235730   4.039   3.344   0.953  0.2319  0.9576 -2.5729
 4747TIP3   OH235731   1.212   0.802  12.861  0.0888  0.1775 -0.0393
 4747TIP3    H135732   1.221   0.851  12.943  1.0536  0.8663 -0.5452
 4747TIP3    H235733   1.130   0.832  12.823 -1.8212 -2.0975  1.9324
 4748TIP3   OH235734   2.623   4.547   1.536  0.5679 -0.1669 -0.1869
 4748TIP3    H135735   2.616   4.464   1.488  1.7558  0.6910 -1.9627
 4748TIP3    H235736   2.532   4.575   1.548  0.1642 -1.4538  0.0061
 4749TIP3   OH235737   1.328   1.286   4.657  0.2719  0.2368 -0.1047
 4749TIP3    H135738   1.236   1.309   4.644  0.1066  0.7695  1.7060
 4749TIP3    H235739   1.372   1.318   4.579 -1.1225 -0.4460 -1.2308
 4750TIP3   OH235740   5.791   0.750  14.680 -0.4858  0.0172  0.3592
 4750TIP3    H135741   5.777   0.728  14.588  1.6544  0.9645 -0.2474
 4750TIP3    H235742   5.717   0.710  14.726 -1.6280 -0.4220 -1.7664
 4751TIP3   OH235743   0.605   1.549   0.768  0.1214 -0.2565 -0.4243
 4751TIP3    H135744   0.609   1.482   0.700 -1.8288  1.8109 -2.7861
 4751TIP3    H235745   0.637   1.629   0.726 -0.1834  0.9014  1.4108
 4752TIP3   OH235746   5.113   4.013   2.766  0.3554 -0.2528  0.1345
 4752TIP3    H135747   5.090   4.089   2.712  2.6583  0.2818 -0.2113
 4752TIP3    H235748   5.060   4.023   2.845 -1.2246  0.3311 -0.9448
 4753TIP3   OH235749   3.998   4.206   2.238 -0.0829 -0.6490 -0.5087
 4753TIP3    H135750   3.969   4.297   2.239 -4.2582 -1.7896 -0.9101
 4753TIP3    H235751   4.075   4.205   2.295  0.1767  3.0783 -0.5546
 4754TIP3   OH235752   2.297   4.409  17.185 -0.2368  0.2279  0.7614
 4754TIP3    H135753   2.390   4.415  17.163 -0.5685 -1.4044 -1.3685
 4754TIP3    H235754   2.255   4.475  17.129 -0.4716  0.4131  1.1476
 4755TIP3   OH235755   3.472   5.918   0.859  0.5164 -0.2698  0.0634
 4755TIP3    H135756   3.513   5.940   0.943  1.7526  0.2635 -0.6563
 4755TIP3    H235757   3.491   5.993   0.803 -0.7474 -0.3925 -0.5592
 4756TIP3   OH235758   3.003   2.021   4.569 -0.1506  0.0276 -0.2291
 4756TIP3    H135759   2.915   2.005   4.604 -0.4671  0.4496 -0.8231
 4756TIP3    H235760   3.019   1.946   4.511  0.2110 -0.4629  0.4926
 4757TIP3   OH235761   1.409   3.934   0.847 -0.2984  0.2542 -0.2506
 4757TIP3    H135762   1.361   3.929   0.929  0.7005 -1.7790  0.2853
 4757TIP3    H235763   1.484   3.991   0.867  0.5720 -1.1377  0.6531
 4758TIP3   OH235764   5.610   4.401   2.019  0.2630 -0.1645 -0.3158
 4758TIP3    H135765   5.705   4.410   2.018  0.1821  0.9912  0.5461
 4758TIP3    H235766   5.595   4.307   2.007  1.3733 -0.0429 -3.5191
 4759TIP3   OH235767   2.398   0.793   4.506 -0.4300 -0.0780 -0.4432
 4759TIP3    H135768   2.483   0.835   4.524  0.1066 -1.0113 -0.7514
 4759TIP3    H235769   2.382   0.811   4.414 -1.1072  1.0203 -0.1322
 4760TIP3   OH235770   5.748   0.054   3.239 -0.2114  0.5532  0.4694
 4760TIP3    H135771   5.754  -0.041   3.255  1.2877  0.6046  0.3885
 4760TIP3    H235772   5.655   0.072   3.237 -0.5260 -0.9030  0.6621
 4761TIP3   OH235773   5.775   5.495  16.618 -0.6148 -0.4937  0.1416
 4761TIP3    H135774   5.720   5.524  16.691 -0.4699 -2.4884  1.1211
 4761TIP3    H235775   5.864   5.522  16.642 -0.6994 -0.3269  0.2649
 4762TIP3   OH235776   0.602   6.064  13.677 -0.4957 -0.3784  1.0200
 4762TIP3    H135777   0.677   6.121  13.660 -0.3993 -1.2111 -1.9833
 4762TIP3    H235778   0.552   6.066  13.596 -1.9677 -2.4043  1.7988
 4763TIP3   OH235779   0.577   2.192   3.967  0.2193  0.3948  0.5615
 4763TIP3    H135780   0.548   2.106   3.938 -2.2326  0.4842  2.4292
 4763TIP3    H235781   0.620   2.230   3.890 -1.8934 -1.0601 -1.4759
 4764TIP3   OH235782   4.701   0.576   2.637 -0.1096  0.6527 -0.2044
 4764TIP3    H135783   4.662   0.655   2.674 -0.6592  0.6747 -0.8125
 4764TIP3    H235784   4.676   0.578   2.545  0.9215  0.4035 -0.5011
 4765TIP3   OH235785   5.300   1.473   5.443  0.5049  0.9656 -0.4746
 4765TIP3    H135786   5.336   1.401   5.494 -0.9698  1.1234  0.8674
 4765TIP3    H235787   5.217   1.439   5.408  0.9146  1.2565 -1.7983
 4766TIP3   OH235788   4.474   1.260  16.566 -0.3892 -0.3882  0.1392
 4766TIP3    H135789   4.555   1.310  16.555 -1.0395  0.7339  0.2490
 4766TIP3    H235790   4.451   1.232  16.478 -1.9021  2.6208 -0.5381
 4767TIP3   OH235791   5.666   2.118   0.253  0.0514  0.3130 -0.1776
 4767TIP3    H135792   5.648   2.162   0.169  1.5255  1.5555  0.1201
 4767TIP3    H235793   5.731   2.052   0.232 -1.1606 -0.8703 -0.3676
 4768TIP3   OH235794   2.440   0.617   5.823 -0.6330 -0.0085  0.1055
 4768TIP3    H135795   2.470   0.531   5.850  0.7131  0.5242  0.4001
 4768TIP3    H235796   2.347   0.619   5.847 -0.1611 -0.5749  2.2319
 4769TIP3   OH235797   1.334   6.744   4.286  0.8898 -0.3315 -0.3244
 4769TIP3    H135798   1.262   6.681   4.287  2.1299 -1.8576 -1.4137
 4769TIP3    H235799   1.411   6.693   4.311  1.6961  1.1315  0.3100
 4770TIP3   OH235800   1.223   2.592   1.748 -0.1014 -0.1412  0.7120
 4770TIP3    H135801   1.167   2.539   1.692 -0.3813  0.5876  0.3032
 4770TIP3    H235802   1.170   2.668   1.771  0.5735  0.3541  0.6520
 4771TIP3   OH235803   4.906   4.890  15.718 -0.7277 -0.2368  0.0623
 4771TIP3    H135804   4.953   4.810  15.694 -0.1716  0.1751 -0.2329
 4771TIP3    H235805   4.932   4.908  15.808  0.0795  0.2597 -0.2578
 4772TIP3   OH235806   3.643   0.161   3.066 -0.6941 -0.1740  0.5384
 4772TIP3    H135807   3.697   0.082   3.074 -0.2452  0.1817  1.1098
 4772TIP3    H235808   3.559   0.129   3.035 -0.0789 -0.7056 -0.6400
 4773TIP3   OH235809   4.318   3.926   3.326 -0.3274  0.0400 -1.0276
 4773TIP3    H135810   4.260   3.929   3.250 -0.2534  2.9465 -1.0776
 4773TIP3    H235811   4.377   4.001   3.314  1.3987 -0.9735  0.6042
 4774TIP3   OH235812   4.950   5.673   2.973  0.5520 -0.3870  0.1172
 4774TIP3    H135813   5.029   5.618   2.975 -0.4151 -1.8820 -0.7730
 4774TIP3    H235814   4.917   5.672   3.062 -0.2733 -2.5937 -0.1373
 4775TIP3   OH235815   4.406   5.483   3.691  0.0102 -0.0839 -0.5473
 4775TIP3    H135816   4.375   5.419   3.756  0.8564  0.7730  0.7557
 4775TIP3    H235817   4.338   5.551   3.691  0.4672  0.3880  0.1825
 4776TIP3   OH235818   4.189   0.189  14.866 -0.1982  0.1644 -0.0332
 4776TIP3    H135819   4.188   0.118  14.802  0.6403 -1.4838  1.6756
 4776TIP3    H235820   4.102   0.187  14.906  0.3782 -1.1245  1.2281
 4777TIP3   OH235821   2.486   6.507   3.688 -1.1462  0.2649  0.4266
 4777TIP3    H135822   2.543   6.579   3.660 -0.7932  0.4598  1.5899
 4777TIP3    H235823   2.414   6.507   3.625  1.3856 -1.6660 -2.7501
 4778TIP3   OH235824   4.575   5.243  15.097  0.4067  0.1191 -0.0561
 4778TIP3    H135825   4.506   5.304  15.122  0.3444 -0.1193  0.3732
 4778TIP3    H235826   4.598   5.198  15.179 -0.9871 -1.9043 -0.7030
 4779TIP3   OH235827   6.061   0.408  11.085 -0.7477 -0.1812  0.4708
 4779TIP3    H135828   6.031   0.412  11.176  1.5826 -3.7529  1.6085
 4779TIP3    H235829   6.029   0.324  11.053  0.4945 -0.0708 -1.1909
 4780TIP3   OH235830   5.185   0.458   5.026  0.0328  0.2860  0.1858
 4780TIP3    H135831   5.257   0.466   4.964 -0.5011  2.6335 -0.2331
 4780TIP3    H235832   5.111   0.502   4.983 -2.3656 -3.7941 -0.3214
 4781TIP3   OH235833   5.462   0.780  11.270 -0.1782  0.2286 -0.4414
 4781TIP3    H135834   5.440   0.730  11.349 -0.4110  0.2250 -0.5075
 4781TIP3    H235835   5.552   0.810  11.285 -0.2630  0.3290 -0.1224
 4782TIP3   OH235836   2.327   2.772  13.661 -0.0396 -0.0015  0.0926
 4782TIP3    H135837   2.319   2.852  13.609  1.1879 -0.8524 -1.4974
 4782TIP3    H235838   2.420   2.753  13.660 -0.2671 -1.2121  0.8490
 4783TIP3   OH235839   4.444   0.132  11.261 -0.0676  0.0267  0.8461
 4783TIP3    H135840   4.453   0.132  11.166  1.4828 -0.3495  0.9611
 4783TIP3    H235841   4.385   0.205  11.280  0.3039  0.6611 -0.3515
 4784TIP3   OH235842   5.800   1.272  15.272  0.2690 -0.0156  0.2177
 4784TIP3    H135843   5.778   1.331  15.200 -2.2987  0.8632  1.5531
 4784TIP3    H235844   5.822   1.330  15.345  3.0670 -0.8819  0.1785
 4785TIP3   OH235845   4.584   6.153  15.690  0.1711  0.2681 -0.1932
 4785TIP3    H135846   4.634   6.114  15.762 -1.0949 -2.1611 -0.5451
 4785TIP3    H235847   4.619   6.112  15.611 -1.8097 -0.9695 -0.5017
 4786TIP3   OH235848   2.819   1.086   3.716  0.0142  0.1208  0.2674
 4786TIP3    H135849   2.844   1.107   3.626 -1.8079 -0.2913 -0.3883
 4786TIP3    H235850   2.857   1.001   3.733 -1.5286 -0.8940 -1.0125
 4787TIP3   OH235851   3.294   0.716  14.568 -0.1949  0.0067  0.1632
 4787TIP3    H135852   3.383   0.684  14.552 -1.1606 -1.4758 -3.1158
 4787TIP3    H235853   3.271   0.682  14.654  1.9292 -0.7240  0.5072
 4788TIP3   OH235854   4.898   5.015   0.948 -0.3058 -0.1477  0.8481
 4788TIP3    H135855   4.827   4.962   0.986  0.2072 -0.4242  1.4459
 4788TIP3    H235856   4.882   5.103   0.983  0.3741 -0.4746  2.0446
 4789TIP3   OH235857   0.778   3.989  13.165  0.2520  0.2548 -0.1937
 4789TIP3    H135858   0.720   3.923  13.202  0.3028 -0.5456 -1.4853
 4789TIP3    H235859   0.862   3.945  13.154  0.3567  0.5982 -0.8271
 4790TIP3   OH235860   5.543   3.915  15.918  0.1743 -0.3208 -0.2285
 4790TIP3    H135861   5.467   3.891  15.970 -0.9845 -0.2762 -1.8011
 4790TIP3    H235862   5.573   3.998  15.954 -2.2959  1.1330 -1.2779
 4791TIP3   OH235863   5.894   4.836  14.893 -0.5317  0.2911 -0.3905
 4791TIP3    H135864   5.803   4.861  14.912 -0.3231  1.1983 -0.5586
 4791TIP3    H235865   5.936   4.830  14.979  0.6081  5.1139 -0.3417
 4792TIP3   OH235866   6.339   2.744   3.969 -0.1261  0.1996  0.1575
 4792TIP3    H135867   6.320   2.655   3.997 -0.5719  0.2400 -0.0032
 4792TIP3    H235868   6.407   2.735   3.903  0.4889  0.0534  0.8011
 4793TIP3   OH235869   1.086   6.747  15.264 -0.2364  0.4796 -0.1988
 4793TIP3    H135870   1.143   6.792  15.326 -0.8755  2.4914 -1.0123
 4793TIP3    H235871   1.100   6.792  15.181 -1.0497 -0.7352 -1.0353
 4794TIP3   OH235872   4.898   3.467  11.209  0.1058  0.0359  0.1211
 4794TIP3    H135873   4.878   3.548  11.254 -0.3274 -0.1607  0.2854
 4794TIP3    H235874   4.826   3.456  11.147 -0.0193 -0.4035  0.3442
 4795TIP3   OH235875   1.992   6.587  14.289  0.1471  0.0711  0.1459
 4795TIP3    H135876   2.010   6.554  14.377 -0.4760 -0.3252  0.1279
 4795TIP3    H235877   1.965   6.678  14.303  0.7031  0.2161  0.3023
 4796TIP3   OH235878   6.337   3.190   4.127 -0.5531  0.0563 -0.2985
 4796TIP3    H135879   6.349   3.165   4.219  0.6531 -0.5588 -0.6069
 4796TIP3    H235880   6.301   3.112   4.085  0.0552 -0.0731 -0.5897
 4797TIP3   OH235881   2.263   4.342   3.980  0.6213  0.3458  0.2041
 4797TIP3    H135882   2.183   4.322   3.931  0.3858 -0.4365  0.8715
 4797TIP3    H235883   2.330   4.287   3.941  0.2342 -0.9586  1.2911
 4798TIP3   OH235884   3.415   2.854   2.199 -0.3234  0.5866  0.3514
 4798TIP3    H135885   3.333   2.810   2.175  1.0900 -1.6386 -0.6287
 4798TIP3    H235886   3.418   2.931   2.142 -0.9643 -0.1798 -0.7511
 4799TIP3   OH235887   0.375   1.993   5.091  0.5288 -0.0761  0.1410
 4799TIP3    H135888   0.385   1.906   5.131 -1.2155 -1.3423 -1.9273
 4799TIP3    H235889   0.439   1.994   5.020  0.1418  0.0897 -0.2092
 4800TIP3   OH235890   4.017   5.452  16.702  0.1443 -0.6515 -0.4467
 4800TIP3    H135891   4.014   5.443  16.797 -2.0883  0.4976 -0.3318
 4800TIP3    H235892   4.071   5.529  16.686  0.4888 -0.8256 -0.1184
 4801TIP3   OH235893   1.095   4.108  13.029 -0.6223  0.2084 -0.3635
 4801TIP3    H135894   1.150   4.102  13.108 -0.8385  0.2776 -0.2076
 4801TIP3    H235895   1.024   4.046  13.044 -1.1555  0.8712 -0.1053
 4802TIP3   OH235896   4.508   3.985  12.491  0.3272 -0.2385  0.5098
 4802TIP3    H135897   4.423   4.029  12.500  1.2950  1.9128 -0.2851
 4802TIP3    H235898   4.495   3.900  12.533 -2.4094 -0.2542 -0.1583
 4803TIP3   OH235899   5.574   4.008   0.663 -0.2333  0.0923  0.2952
 4803TIP3    H135900   5.564   3.943   0.732 -1.4000  0.9626  0.9708
 4803TIP3    H235901   5.667   4.004   0.640  0.1047 -0.4484  1.6720
 4804TIP3   OH235902   1.221   4.694  16.742 -0.7535  0.5653 -0.2664
 4804TIP3    H135903   1.142   4.685  16.689 -1.4612  2.0196  0.4857
 4804TIP3    H235904   1.211   4.628  16.811  1.2928 -3.0498 -3.0880
 4805TIP3   OH235905   2.444   6.006  16.281  0.3950  0.8342  0.3115
 4805TIP3    H135906   2.410   5.959  16.205  0.8329  0.1115  0.5506
 4805TIP3    H235907   2.375   6.068  16.304 -0.3298  0.0956  0.1731
 4806TIP3   OH235908   5.469   2.903   4.503 -0.0187  0.3045  0.3328
 4806TIP3    H135909   5.478   2.814   4.470  0.8167  0.7291 -0.6462
 4806TIP3    H235910   5.556   2.942   4.493 -0.2885  1.1215  1.0625
 4807TIP3   OH235911   4.410   2.221   5.348  0.5367 -0.1923  0.0386
 4807TIP3    H135912   4.500   2.249   5.335  0.8105  2.0742  4.6867
 4807TIP3    H235913   4.357   2.295   5.318  0.4214 -0.1419  0.3656
 4808TIP3   OH235914   3.619   2.607   5.552 -0.2882 -0.1661  0.0598
 4808TIP3    H135915   3.581   2.669   5.490 -1.1777 -0.0221  0.7231
 4808TIP3    H235916   3.665   2.661   5.616  0.4811 -0.3031 -0.3723
 4809TIP3   OH235917   2.704   4.210  16.921  0.3800  0.1248  0.4922
 4809TIP3    H135918   2.612   4.185  16.921  0.3533  0.2052 -0.4343
 4809TIP3    H235919   2.745   4.149  16.982 -0.3749  0.4590  1.3513
 4810TIP3   OH235920   0.214   5.265  15.578  0.3095  0.0042  0.3876
 4810TIP3    H135921   0.206   5.316  15.658 -1.8048  0.5672 -0.1138
 4810TIP3    H235922   0.147   5.196  15.587  0.3186 -0.1699 -0.6996
 4811TIP3   OH235923   1.868   3.803   2.076  0.4272  0.4860  0.1689
 4811TIP3    H135924   1.848   3.896   2.088  0.3349  0.3903  0.7700
 4811TIP3    H235925   1.883   3.770   2.164  2.8169  0.4522 -0.1881
 4812TIP3   OH235926   4.361   1.312  15.584  0.2679  0.8002 -0.0197
 4812TIP3    H135927   4.353   1.383  15.647  1.7127  2.6214 -1.7499
 4812TIP3    H235928   4.444   1.271  15.605 -0.6368 -0.5586  1.0756
 4813TIP3   OH235929   0.178   4.913  10.672  0.9065 -0.1315 -0.0464
 4813TIP3    H135930   0.170   5.007  10.687  2.3057  0.1344 -0.7571
 4813TIP3    H235931   0.104   4.890  10.617  0.6063  0.5785  0.0537
 4814TIP3   OH235932   2.567   2.463  11.412 -0.2120  0.6074  0.2548
 4814TIP3    H135933   2.502   2.415  11.464 -1.7922  1.6096 -0.7266
 4814TIP3    H235934   2.580   2.545  11.460  0.3900  0.3930  0.4707
 4815TIP3   OH235935   5.904   3.058   3.584  0.1152 -0.2290 -0.2669
 4815TIP3    H135936   5.856   3.013   3.514 -0.8964 -2.7125  1.8282
 4815TIP3    H235937   5.976   2.999   3.605 -0.6696 -0.5090  1.9200
 4816TIP3   OH235938   0.609   6.681   1.825 -0.4553  0.7799 -0.2521
 4816TIP3    H135939   0.661   6.752   1.864  2.6494 -1.4117 -0.0253
 4816TIP3    H235940   0.656   6.659   1.745 -1.8207 -0.4920 -0.7377
 4817TIP3   OH235941   1.733   2.824  12.108 -0.1615  0.0072 -0.3330
 4817TIP3    H135942   1.737   2.765  12.033 -1.6711  0.5032 -0.8649
 4817TIP3    H235943   1.639   2.842  12.119 -0.0274 -0.3292  1.9199
 4818TIP3   OH235944   5.902   6.678  14.312  0.3501  0.0757 -0.4331
 4818TIP3    H135945   5.962   6.663  14.385  1.1143  0.5645 -0.9384
 4818TIP3    H235946   5.909   6.600  14.258  1.7046  0.7401 -1.2727
 4819TIP3   OH235947   0.575   3.857  13.319  0.6183  0.0842 -0.1653
 4819TIP3    H135948   0.569   3.778  13.266  0.8461  0.5502 -0.8989
 4819TIP3    H235949   0.494   3.904  13.301  1.2570  0.8628 -1.1348
 4820TIP3   OH235950   3.341   1.750   3.587 -0.3789 -0.5292  0.8843
 4820TIP3    H135951   3.293   1.746   3.504 -0.4958 -1.1934  0.9743
 4820TIP3    H235952   3.339   1.842   3.612  1.3279  0.0177 -0.8147
 4821TIP3   OH235953   6.070   6.783   2.813 -0.1290  0.2711 -0.5197
 4821TIP3    H135954   6.033   6.842   2.878  0.4041  1.6453 -1.4116
 4821TIP3    H235955   6.028   6.809   2.731 -1.0591 -1.6602 -0.7063
 4822TIP3   OH235956   6.308   4.012   2.277  0.3919  0.8328  0.4585
 4822TIP3    H135957   6.276   4.040   2.363 -0.7438 -2.0667  1.0825
 4822TIP3    H235958   6.263   4.069   2.215  0.9574  2.7506  1.7206
 4823TIP3   OH235959   5.809   5.234  14.778 -0.8133 -0.1553  0.0103
 4823TIP3    H135960   5.870   5.233  14.704  0.7942  0.3529  1.2672
 4823TIP3    H235961   5.757   5.155  14.767  0.8487 -1.2287 -0.4983
 4824TIP3   OH235962   0.115   1.834  10.397  0.1479  0.4014 -0.2269
 4824TIP3    H135963   0.187   1.782  10.363  0.8382  1.7295 -0.8699
 4824TIP3    H235964   0.058   1.771  10.441  2.5530 -0.4792  1.8596
 4825TIP3   OH235965   6.599   5.163   6.664 -0.0353 -0.2420 -0.4853
 4825TIP3    H135966   6.506   5.171   6.647 -0.4992  0.6492  2.0637
 4825TIP3    H235967   6.608   5.077   6.705  0.2604 -0.2712 -0.6076
 4826TIP3   OH235968   0.100   1.700  12.372 -0.1977  0.4378 -0.2355
 4826TIP3    H135969   0.138   1.754  12.441  0.4639 -0.2475 -0.0468
 4826TIP3    H235970   0.176   1.668  12.323 -0.5509 -0.6302 -0.0981
 4827TIP3   OH235971   3.114   5.428  15.785  0.0173 -0.8591 -0.0541
 4827TIP3    H135972   3.148   5.394  15.702 -0.1314  1.2020 -1.0500
 4827TIP3    H235973   3.091   5.351  15.836  1.7865 -2.2328 -1.2140
 4828TIP3   OH235974   3.969   1.144  11.658  0.0202 -0.0974 -0.5627
 4828TIP3    H135975   4.059   1.114  11.648 -0.1981 -1.3766  0.8860
 4828TIP3    H235976   3.977   1.237  11.680  0.9541 -0.0766 -0.9756
 4829TIP3   OH235977   2.289   5.566   5.116  0.3714  0.4196  0.1009
 4829TIP3    H135978   2.379   5.592   5.138  0.3640 -1.6859  3.1367
 4829TIP3    H235979   2.234   5.614   5.178 -0.8758  2.5862 -2.4484
 4830TIP3   OH235980   0.943   1.162   3.092 -0.1281 -0.3897  0.0630
 4830TIP3    H135981   0.995   1.092   3.053  0.0244  0.4185 -1.2532
 4830TIP3    H235982   0.857   1.124   3.107  0.2276 -1.1264  0.2766
 4831TIP3   OH235983   6.282   5.364   6.184 -0.2249 -0.2815  0.0375
 4831TIP3    H135984   6.335   5.426   6.235 -0.3740 -1.3104  1.5200
 4831TIP3    H235985   6.192   5.381   6.211 -0.5460  0.5336 -1.4504
 4832TIP3   OH235986   1.015   4.389  16.657 -0.5684  0.0584  0.0510
 4832TIP3    H135987   1.032   4.295  16.667 -0.7267 -0.2891 -2.3062
 4832TIP3    H235988   1.049   4.428  16.737  0.5428 -1.8751  0.5960
 4833TIP3   OH235989   5.336   4.252  14.385  0.0065 -0.1432  0.0109
 4833TIP3    H135990   5.241   4.260  14.372  0.3839  2.4912 -1.7790
 4833TIP3    H235991   5.350   4.281  14.475 -0.7238  1.6806 -0.4161
 4834TIP3   OH235992   2.572   4.145   2.222 -0.2800 -0.5270  0.4274
 4834TIP3    H135993   2.617   4.202   2.285 -0.8079  1.5147 -0.9471
 4834TIP3    H235994   2.500   4.106   2.273  0.4061 -0.3937  1.5446
 4835TIP3   OH235995   5.516   4.551   4.954  0.2467  0.1936  0.0760
 4835TIP3    H135996   5.435   4.577   4.997 -0.2406  1.8293 -1.6572
 4835TIP3    H235997   5.499   4.464   4.919 -1.2380  0.9551 -1.2390
 4836TIP3   OH235998   3.499   4.634   3.377  0.8666 -0.6382 -0.0858
 4836TIP3    H135999   3.469   4.580   3.304  1.1217 -0.9902  0.0681
 4836TIP3    H236000   3.464   4.721   3.358  0.0967 -0.9515 -0.1115
 4837TIP3   OH236001   2.313   2.659  14.892 -0.2646  0.2029  0.9589
 4837TIP3    H136002   2.326   2.753  14.902 -0.0017  0.1418  1.2203
 4837TIP3    H236003   2.399   2.621  14.910  0.1757  0.0395 -1.1503
 4838TIP3   OH236004   0.157   1.958   4.141 -0.5814  0.1587 -0.1434
 4838TIP3    H136005   0.191   1.959   4.231 -2.5103 -1.2313  0.6636
 4838TIP3    H236006   0.114   2.043   4.131  0.0490  0.5108  0.0630
 4839TIP3   OH236007   0.357   3.417  11.986  0.1920 -0.4586  0.0134
 4839TIP3    H136008   0.312   3.383  11.909 -0.9708  2.6905 -0.8707
 4839TIP3    H236009   0.443   3.444  11.953 -0.4236  1.1904 -0.3553
 4840TIP3   OH236010   0.274   1.662  11.197  0.3044  0.1310 -0.2361
 4840TIP3    H136011   0.292   1.673  11.104  1.3198 -0.6498 -0.1410
 4840TIP3    H236012   0.238   1.573  11.204  2.0101 -0.5606  0.3340
 4841TIP3   OH236013   3.557   5.413   6.703 -0.2112 -0.1771  0.9921
 4841TIP3    H136014   3.495   5.349   6.668 -0.2882 -0.6910  2.0391
 4841TIP3    H236015   3.539   5.416   6.797  1.2453 -0.2219  1.2952
 4842TIP3   OH236016   2.620   6.435   4.862  0.0280  0.1733  0.4070
 4842TIP3    H136017   2.547   6.465   4.807 -0.2582  0.1221  0.7482
 4842TIP3    H236018   2.621   6.340   4.849  0.3553  0.2286  0.0196
 4843TIP3   OH236019   4.807   5.354   4.852  0.1281  0.2333 -0.0654
 4843TIP3    H136020   4.824   5.305   4.932  0.3822  1.7899  0.8792
 4843TIP3    H236021   4.723   5.320   4.820 -0.2095 -0.0855  1.1244
 4844TIP3   OH236022   1.782   5.699   3.298 -0.1173  0.0536  0.3647
 4844TIP3    H136023   1.852   5.636   3.316  1.1750  1.0498 -0.9827
 4844TIP3    H236024   1.761   5.686   3.206 -0.8368  0.6492  0.4334
 4845TIP3   OH236025   2.138   2.841  14.308 -0.0677  0.8055  0.0655
 4845TIP3    H136026   2.067   2.817  14.367 -1.3733  3.0299 -0.4554
 4845TIP3    H236027   2.212   2.862  14.365 -1.5182  3.6206  1.0910
 4846TIP3   OH236028   5.606   3.420   5.546  0.0152 -0.2745  0.3026
 4846TIP3    H136029   5.651   3.491   5.500  1.7070 -2.4967 -1.6899
 4846TIP3    H236030   5.664   3.400   5.620 -0.3761  0.2872  0.7664
 4847TIP3   OH236031   0.864   5.371  13.843  0.1770  0.4212  0.3775
 4847TIP3    H136032   0.848   5.456  13.801  2.2281  0.1230 -1.2072
 4847TIP3    H236033   0.901   5.394  13.928 -0.8093  1.0861  0.6448
 4848TIP3   OH236034   5.515   4.589   3.074 -0.5930 -0.1914 -0.0971
 4848TIP3    H136035   5.557   4.674   3.063  1.1348 -1.0837 -0.7818
 4848TIP3    H236036   5.487   4.565   2.985  0.0593 -0.8819 -0.1194
 4849TIP3   OH236037   5.672   2.855  15.799 -0.2748  0.4749 -0.4334
 4849TIP3    H136038   5.629   2.940  15.789  0.8449  0.9359 -1.6464
 4849TIP3    H236039   5.735   2.868  15.870 -0.1223  0.6671 -0.6011
 4850TIP3   OH236040   1.505   6.621   2.520  0.2322  0.0623  0.4576
 4850TIP3    H136041   1.415   6.634   2.550  0.2719  1.1745  0.1428
 4850TIP3    H236042   1.558   6.671   2.582  0.3546  2.0394 -1.1548
 4851TIP3   OH236043   3.106   1.157  15.627 -0.1493  0.0626  0.2127
 4851TIP3    H136044   3.108   1.239  15.676 -0.6356  1.0426 -1.3588
 4851TIP3    H236045   3.078   1.182  15.539  1.0470 -1.5841 -0.6951
 4852TIP3   OH236046   6.164   5.551   4.053 -0.2784 -0.3964 -0.3593
 4852TIP3    H136047   6.186   5.617   4.119  1.5274 -0.2622 -1.0417
 4852TIP3    H236048   6.137   5.475   4.104 -1.5237  0.5519  0.4569
 4853TIP3   OH236049   3.242   6.212  13.698 -0.0473  0.3652  0.0398
 4853TIP3    H136050   3.224   6.231  13.606 -0.7925  0.2589  0.1499
 4853TIP3    H236051   3.218   6.292  13.744 -1.1538 -0.0878  0.2878
 4854TIP3   OH236052   2.287   4.140   1.678  0.2522 -0.4922 -0.3855
 4854TIP3    H136053   2.316   4.129   1.588  0.5296 -3.2068 -0.0730
 4854TIP3    H236054   2.347   4.204   1.716  0.1310  0.6804 -2.0932
 4855TIP3   OH236055   1.168   2.017   1.571  0.1867  0.2014  0.2159
 4855TIP3    H136056   1.084   2.058   1.593  0.8138  1.7775 -0.1802
 4855TIP3    H236057   1.158   1.926   1.598 -1.6916  0.3208  0.0501
 4856TIP3   OH236058   1.575   6.485  14.270  0.3439  0.2516  0.1227
 4856TIP3    H136059   1.532   6.570  14.278 -0.7689 -0.4145  1.6548
 4856TIP3    H236060   1.625   6.475  14.350 -0.1478 -0.8485  0.3152
 4857TIP3   OH236061   0.478   0.487   2.643  0.2755  0.5737  0.3782
 4857TIP3    H136062   0.410   0.526   2.697  0.8518  2.5919 -0.2932
 4857TIP3    H236063   0.559   0.504   2.691  0.4475 -1.0414  0.7382
 4858TIP3   OH236064   0.354   4.299  12.092 -0.5800 -0.2418  0.0019
 4858TIP3    H136065   0.445   4.280  12.070  0.4895  2.1091  1.8789
 4858TIP3    H236066   0.335   4.245  12.168 -0.3870  0.0041  0.2280
 4859TIP3   OH236067   5.956   1.456  14.890  0.0273 -0.3017  0.6005
 4859TIP3    H136068   5.986   1.545  14.871  1.7098 -0.7574  1.0147
 4859TIP3    H236069   5.870   1.468  14.930  0.6203  1.1918  1.4951
 4860TIP3   OH236070   1.865   0.250  14.937 -0.0138  0.2344  0.6139
 4860TIP3    H136071   1.856   0.181  14.870 -1.5623  0.0476  0.9717
 4860TIP3    H236072   1.946   0.296  14.913  0.2379 -0.7380 -0.5328
 4861TIP3   OH236073   1.192   4.934   5.896 -0.1163 -0.0658 -0.4847
 4861TIP3    H136074   1.199   5.029   5.910  1.2638  0.1084 -2.0051
 4861TIP3    H236075   1.281   4.907   5.874 -0.6956 -1.5309 -1.1393
 4862TIP3   OH236076   5.442   4.488   3.735  0.0978  0.0461  0.2555
 4862TIP3    H136077   5.365   4.461   3.784 -1.0838  1.6780 -0.5639
 4862TIP3    H236078   5.407   4.539   3.662  1.9557  0.7865 -0.1920
 4863TIP3   OH236079   5.130   3.449   4.567 -0.2474  0.2485  0.6174
 4863TIP3    H136080   5.048   3.441   4.617 -1.6003  1.3883 -1.2869
 4863TIP3    H236081   5.177   3.521   4.609 -2.1688  2.3878 -0.6871
 4864TIP3   OH236082   2.591   2.046   3.999 -0.5208 -0.6976 -0.0725
 4864TIP3    H136083   2.584   2.121   3.939  0.2988  0.9695  1.8073
 4864TIP3    H236084   2.506   2.043   4.043 -1.1498 -1.9695 -1.2906
 4865TIP3   OH236085   5.908   2.743   3.891  0.4005  0.2766  0.1706
 4865TIP3    H136086   5.912   2.787   3.976 -0.4639  1.5426 -0.4314
 4865TIP3    H236087   5.816   2.744   3.867  0.5091 -0.9236 -0.3672
 4866TIP3   OH236088   0.259   1.287  13.887 -0.5146 -0.1434  0.0748
 4866TIP3    H136089   0.244   1.233  13.810 -1.3059  0.8077 -0.4563
 4866TIP3    H236090   0.190   1.262  13.948  0.3297 -1.1646  0.6640
 4867TIP3   OH236091   2.487   3.643   5.942 -0.1799  0.2297  0.8289
 4867TIP3    H136092   2.432   3.678   5.872 -1.5602 -0.4105  1.5643
 4867TIP3    H236093   2.468   3.550   5.943  1.4112 -0.1261  0.6976
 4868TIP3   OH236094   1.607   5.452   4.716 -0.3687 -0.0063 -0.7369
 4868TIP3    H136095   1.563   5.416   4.639 -1.3115  0.6998 -0.5491
 4868TIP3    H236096   1.623   5.544   4.693 -0.4749  0.1558 -0.1666
 4869TIP3   OH236097   2.224   4.654   3.298  0.6097 -0.4016  0.6663
 4869TIP3    H136098   2.194   4.573   3.256  1.7728 -0.3626 -0.2757
 4869TIP3    H236099   2.149   4.714   3.290  0.6770 -0.5077 -1.0647
 4870TIP3   OH236100   5.477   2.073  11.859 -0.0030  0.4450  0.1678
 4870TIP3    H136101   5.395   2.088  11.813 -1.1980 -1.3781  1.5675
 4870TIP3    H236102   5.460   1.996  11.914  1.5668  1.9773  3.0343
 4871TIP3   OH236103   6.734   3.742  12.133  0.0332 -0.2913 -0.8760
 4871TIP3    H136104   6.727   3.664  12.188  0.1796 -0.5466 -1.2112
 4871TIP3    H236105   6.658   3.737  12.075 -0.2413  0.0932 -0.5506
 4872TIP3   OH236106   2.688   3.937   0.137 -0.7300 -0.4232  0.0838
 4872TIP3    H136107   2.633   3.966   0.210  0.1533 -1.3622  1.1792
 4872TIP3    H236108   2.626   3.919   0.066 -1.8207 -1.0365  1.1360
 4873TIP3   OH236109   3.944   5.266  13.586  0.1663  0.0244  0.4972
 4873TIP3    H136110   3.974   5.176  13.572 -0.8750 -0.5819  1.9442
 4873TIP3    H236111   4.019   5.310  13.628  0.6064 -0.1918 -0.0403
 4874TIP3   OH236112   6.612   5.150  15.392 -0.3843  0.4212 -0.4666
 4874TIP3    H136113   6.641   5.222  15.336  1.4116  0.1444  0.0317
 4874TIP3    H236114   6.651   5.072  15.352  0.2891  0.1289  0.7223
 4875TIP3   OH236115   6.647   3.082  14.811 -0.5501  0.2127  0.5777
 4875TIP3    H136116   6.581   3.071  14.742 -1.5748 -1.1164  1.7079
 4875TIP3    H236117   6.731   3.084  14.764 -1.1934 -1.0844 -0.6979
 4876TIP3   OH236118   1.374   6.118   3.138  0.3897  0.0175 -0.1911
 4876TIP3    H136119   1.300   6.059   3.126 -0.3915  1.3413 -2.6179
 4876TIP3    H236120   1.440   6.065   3.181 -1.5192 -1.5541  0.9862
 4877TIP3   OH236121   0.174   3.156  16.103 -0.4146 -0.6794  0.0222
 4877TIP3    H136122   0.120   3.214  16.050 -0.2204 -0.9373 -0.4679
 4877TIP3    H236123   0.246   3.211  16.134 -0.4471 -0.5656 -0.1054
 4878TIP3   OH236124   4.487   3.973  16.953  0.1965  0.7263  0.3931
 4878TIP3    H136125   4.548   3.907  16.987 -0.1486 -0.8124 -1.7316
 4878TIP3    H236126   4.543   4.046  16.928  0.8101  0.5293  1.1460
 4879TIP3   OH236127   1.966   5.471  15.265  0.1135 -0.2102  1.0037
 4879TIP3    H136128   1.903   5.495  15.334 -2.6356  0.4419 -1.5132
 4879TIP3    H236129   2.012   5.553  15.246 -0.3954  0.0606  0.8994
 4880TIP3   OH236130   2.233   0.503   1.764 -0.1899  0.4143 -0.2462
 4880TIP3    H136131   2.295   0.430   1.771  1.1333  1.6395  2.9523
 4880TIP3    H236132   2.150   0.463   1.738  1.2188 -1.6831 -1.8501
 4881TIP3   OH236133   3.263   2.939  16.785  0.3143 -0.1598 -0.3168
 4881TIP3    H136134   3.340   2.903  16.742  0.5314  1.2617 -1.1680
 4881TIP3    H236135   3.203   2.960  16.713 -0.4876 -0.3915  0.2715
 4882TIP3   OH236136   2.809   1.579   4.544  0.3523 -0.2209  0.2266
 4882TIP3    H136137   2.725   1.571   4.588  0.7346 -3.9582  0.6441
 4882TIP3    H236138   2.802   1.519   4.470  2.7516 -0.9381  0.5077
 4883TIP3   OH236139   4.291   0.319   4.092  0.5520  0.4240 -0.5684
 4883TIP3    H136140   4.368   0.298   4.144 -0.4147  0.2240  0.8425
 4883TIP3    H236141   4.279   0.414   4.103 -0.2151  0.2336  0.4353
 4884TIP3   OH236142   6.812   6.734   3.594  0.0311 -0.5993  0.1763
 4884TIP3    H136143   6.778   6.730   3.683 -0.8703 -0.3100 -0.1403
 4884TIP3    H236144   6.779   6.655   3.552 -2.7986  1.0445 -0.9661
 4885TIP3   OH236145   4.143   0.905  13.640  0.9523 -0.5815  1.3008
 4885TIP3    H136146   4.049   0.889  13.650  0.7798 -2.2858 -1.9201
 4885TIP3    H236147   4.185   0.831  13.684  0.7997 -0.2175  2.0809
 4886TIP3   OH236148   4.003   3.007   1.206  0.6576 -0.3536  0.1821
 4886TIP3    H136149   4.019   2.969   1.292  0.5798  1.1042  0.8678
 4886TIP3    H236150   4.089   3.037   1.177  0.7096 -0.9620 -0.3382
 4887TIP3   OH236151   4.392   0.266   5.587 -0.2575 -0.1880  0.0270
 4887TIP3    H136152   4.376   0.179   5.550  0.1565 -1.0600  1.7746
 4887TIP3    H236153   4.487   0.275   5.587 -0.3208  0.6868 -0.9951
 4888TIP3   OH236154   1.773   2.007   0.460 -0.0434  0.1014 -0.5456
 4888TIP3    H136155   1.809   1.931   0.505 -1.0025 -0.1821 -0.2184
 4888TIP3    H236156   1.822   2.081   0.494 -0.5854 -0.1352  0.8163
 4889TIP3   OH236157   5.315   0.807   3.007  0.0087  0.3422  0.2919
 4889TIP3    H136158   5.343   0.882   2.953 -1.6386  0.5393 -0.3350
 4889TIP3    H236159   5.285   0.846   3.089 -0.5172  0.3479  0.1007
 4890TIP3   OH236160   4.386   5.377  15.641  0.4974 -0.0209 -0.1763
 4890TIP3    H136161   4.428   5.441  15.584 -1.2564  0.9863 -0.4181
 4890TIP3    H236162   4.296   5.372  15.609  0.1858 -1.4963  0.8060
 4891TIP3   OH236163   0.586   6.328  16.611  0.4157  0.7083 -0.0849
 4891TIP3    H136164   0.591   6.233  16.619  1.5156  0.7111 -0.6250
 4891TIP3    H236165   0.524   6.354  16.679  0.8551 -0.3080  0.7331
 4892TIP3   OH236166   2.483   0.811  14.625  0.0327  0.2774  0.0910
 4892TIP3    H136167   2.560   0.866  14.609  0.0530  1.0645  2.5696
 4892TIP3    H236168   2.501   0.730  14.577  1.6098  1.0860 -0.7480
 4893TIP3   OH236169   0.578   0.709   5.412  0.7497  0.4917  0.1065
 4893TIP3    H136170   0.636   0.715   5.487  0.3346  0.2645  0.4518
 4893TIP3    H236171   0.569   0.799   5.380  0.9075  0.5902  0.3396
 4894TIP3   OH236172   1.113   4.778  12.114  0.1194 -0.5860  0.4706
 4894TIP3    H136173   1.097   4.760  12.207 -1.1310  0.3420  0.4513
 4894TIP3    H236174   1.042   4.836  12.088  2.1985  1.7759 -0.2855
 4895TIP3   OH236175   6.570   5.744  12.955 -0.1480  0.0535 -0.5802
 4895TIP3    H136176   6.654   5.704  12.975  0.5042  1.4833 -0.3253
 4895TIP3    H236177   6.524   5.745  13.039 -0.7712 -1.4433 -0.8716
 4896TIP3   OH236178   1.540   6.186   2.360 -0.3165  0.1372  0.6538
 4896TIP3    H136179   1.538   6.092   2.343  3.0761 -0.3241  1.9177
 4896TIP3    H236180   1.579   6.224   2.281 -3.2071  0.8452 -0.5665
 4897TIP3   OH236181   1.688   6.766   4.269 -0.0992  0.1906  0.3409
 4897TIP3    H136182   1.620   6.768   4.202  0.8856 -0.0528 -0.7113
 4897TIP3    H236183   1.645   6.796   4.349 -1.5820 -0.5334 -0.1485
 4898TIP3   OH236184   1.393   2.548   1.479  0.6393 -0.0380 -0.5034
 4898TIP3    H136185   1.334   2.475   1.460  0.6219  0.0986 -0.9843
 4898TIP3    H236186   1.446   2.557   1.400  0.1672  0.9181 -0.7273
 4899TIP3   OH236187   3.188   3.145   4.493  0.8056  0.2987  0.0350
 4899TIP3    H136188   3.205   3.054   4.469  1.2164  0.4906 -0.4178
 4899TIP3    H236189   3.186   3.192   4.410  0.8906  0.7501  0.2872
 4900TIP3   OH236190   6.725   6.707  16.802 -0.1832 -0.1397  0.3143
 4900TIP3    H136191   6.740   6.799  16.827 -0.3867  0.6995 -2.3707
 4900TIP3    H236192   6.647   6.682  16.852  0.7518  0.5980  2.2694
 4901TIP3   OH236193   6.239   4.960   4.289 -0.2221 -0.3872 -0.0716
 4901TIP3    H136194   6.145   4.976   4.299 -0.4367  1.0196 -3.2354
 4901TIP3    H236195   6.244   4.887   4.228  0.7777 -1.0004  0.7211
 4902TIP3   OH236196   4.155   6.418  14.697 -0.3070 -0.4912  0.3846
 4902TIP3    H136197   4.138   6.334  14.654  0.7282 -0.8723  0.6839
 4902TIP3    H236198   4.170   6.395  14.789 -4.2161  0.4661  1.4620
 4903TIP3   OH236199   4.646   0.659   6.252  0.8276  0.1744  0.0821
 4903TIP3    H136200   4.661   0.747   6.287  0.1899  0.1458  0.4446
 4903TIP3    H236201   4.708   0.603   6.299  0.9600  0.3634  0.1331
 4904TIP3   OH236202   5.198   4.666  15.446 -0.3296  0.2966 -0.4141
 4904TIP3    H136203   5.200   4.583  15.399 -0.5880  0.4624 -0.7156
 4904TIP3    H236204   5.153   4.646  15.528  3.3321 -0.9149  1.5546
 4905TIP3   OH236205   3.919   6.558   3.294  0.1633  0.5048  0.2376
 4905TIP3    H136206   3.841   6.611   3.276  1.2895  2.5396  0.9896
 4905TIP3    H236207   3.948   6.586   3.381  2.9587  1.4896 -0.8834
 4906TIP3   OH236208   6.019   1.761   4.892 -0.1515  0.0268 -0.0436
 4906TIP3    H136209   5.958   1.710   4.838  1.6015 -1.8766 -0.3714
 4906TIP3    H236210   6.105   1.721   4.874  1.7757  4.3536 -1.8826
 4907TIP3   OH236211   6.635   4.898   3.872  0.1677  1.0176 -0.0027
 4907TIP3    H136212   6.587   4.911   3.954 -1.0181  0.8517 -0.6485
 4907TIP3    H236213   6.604   4.967   3.814 -3.0934 -1.8690 -2.0736
 4908TIP3   OH236214   5.643   4.117  11.812 -0.0749 -0.3220  0.2994
 4908TIP3    H136215   5.703   4.185  11.842  0.5272  0.6771 -2.8363
 4908TIP3    H236216   5.699   4.048  11.776 -0.7541 -1.4761  1.3549
 4909TIP3   OH236217   0.446   2.831   2.016  0.5721 -0.0387 -0.2961
 4909TIP3    H136218   0.463   2.896   2.084  1.8766 -0.3593 -0.2901
 4909TIP3    H236219   0.531   2.790   2.000  0.3208  0.0769 -2.1779
 4910TIP3   OH236220   6.782   6.398  13.728 -0.1915  0.0807 -0.1960
 4910TIP3    H136221   6.690   6.398  13.756  0.5345 -0.4375  2.4708
 4910TIP3    H236222   6.781   6.354  13.643 -2.3343 -0.5691  0.1062
 4911TIP3   OH236223   6.436   2.161   0.258  0.5804  0.3123 -0.0946
 4911TIP3    H136224   6.362   2.217   0.232 -0.9321 -1.0822  0.9382
 4911TIP3    H236225   6.394   2.079   0.285  2.5136 -0.3771  0.9457
 4912TIP3   OH236226   2.670   3.194  12.767  0.0245 -0.6013 -0.9212
 4912TIP3    H136227   2.607   3.253  12.727 -0.6278 -0.3135  0.4753
 4912TIP3    H236228   2.638   3.106  12.746 -0.1802 -0.4581 -1.2073
 4913TIP3   OH236229   2.658   1.871  11.477  0.2366  0.4767  0.2877
 4913TIP3    H136230   2.656   1.951  11.425 -0.0487 -1.0122 -2.1590
 4913TIP3    H236231   2.569   1.837  11.472  0.3685 -0.0448  1.2407
 4914TIP3   OH236232   4.364   1.082   2.440 -0.0808  0.2439  0.7230
 4914TIP3    H136233   4.292   1.134   2.474 -0.6483 -1.2652  1.9723
 4914TIP3    H236234   4.325   0.997   2.419  1.0526 -0.1343  0.0318
 4915TIP3   OH236235   1.831   6.750  14.905 -0.2417  0.6246  0.0502
 4915TIP3    H136236   1.743   6.782  14.925 -0.5989  0.4577 -1.1919
 4915TIP3    H236237   1.829   6.732  14.811  0.1092 -2.4660  0.5309
 4916TIP3   OH236238   2.192   3.724   2.993  0.1216  0.4149  0.0903
 4916TIP3    H136239   2.201   3.629   3.001 -2.1530  0.2088  0.9517
 4916TIP3    H236240   2.200   3.741   2.900  2.0452 -0.3875  0.0493
 4917TIP3   OH236241   6.774   2.540  12.460  0.0334  0.0525  0.2663
 4917TIP3    H136242   6.850   2.552  12.517 -0.1525 -0.3962  0.6136
 4917TIP3    H236243   6.712   2.608  12.488 -0.7406 -1.2151  1.7592
 4918TIP3   OH236244   5.150   2.030  16.598  0.7794  0.1983  0.2894
 4918TIP3    H136245   5.193   2.110  16.630  2.1922 -0.3232 -0.2051
 4918TIP3    H236246   5.150   2.040  16.503 -0.6502  0.3849  0.2937
 4919TIP3   OH236247   1.929   5.933  16.807 -0.0495  0.4698 -0.4478
 4919TIP3    H136248   1.908   5.893  16.723 -1.8155  0.6007 -0.1102
 4919TIP3    H236249   1.850   5.981  16.831  0.5094  0.6367  1.1770
 4920TIP3   OH236250   0.834   4.190   6.057  0.2587  0.6404 -0.1551
 4920TIP3    H136251   0.826   4.102   6.019  2.1498  0.5038 -0.3414
 4920TIP3    H236252   0.852   4.174   6.149  1.6385  0.7697 -0.3822
 4921TIP3   OH236253   3.664   6.028   0.037  0.3714  0.2963 -0.1537
 4921TIP3    H136254   3.720   6.106   0.035  0.3997  0.2731 -0.2446
 4921TIP3    H236255   3.649   6.006  -0.055 -0.4604  0.7833 -0.1441
 4922TIP3   OH236256   4.782   4.444   2.697 -0.1464  0.1999  0.2751
 4922TIP3    H136257   4.760   4.404   2.781 -2.1000 -0.4146 -0.4779
 4922TIP3    H236258   4.780   4.538   2.714 -1.7911  0.1262  0.6762
 4923TIP3   OH236259   5.515   2.983   5.844  0.0494  0.6194 -0.1011
 4923TIP3    H136260   5.587   2.920   5.843  0.3859  1.0008 -0.7826
 4923TIP3    H236261   5.493   2.992   5.937  0.5945  0.1755  0.0816
 4924TIP3   OH236262   3.242   4.055   5.468  0.0184  0.1217  0.0043
 4924TIP3    H136263   3.332   4.027   5.482  0.2249  1.2526  1.1170
 4924TIP3    H236264   3.196   4.031   5.548 -0.3990  0.5676 -0.0934
 4925TIP3   OH236265   2.461   1.829  12.328 -0.5402  0.3685  0.3044
 4925TIP3    H136266   2.374   1.846  12.292 -0.3278  0.4139 -0.1914
 4925TIP3    H236267   2.516   1.896  12.288 -0.3362  0.5318  0.8551
 4926TIP3   OH236268   3.543   4.185   3.059 -0.2137 -0.1589 -0.1432
 4926TIP3    H136269   3.614   4.127   3.034 -1.4318 -1.1747 -1.4236
 4926TIP3    H236270   3.479   4.128   3.102 -0.7340  0.5434  0.0451
 4927TIP3   OH236271   4.575   1.170  15.700 -0.7441  0.4796 -0.7686
 4927TIP3    H136272   4.608   1.093  15.655 -0.1043  0.1709  0.1938
 4927TIP3    H236273   4.654   1.217  15.728 -1.1295  0.8693 -0.3138
 4928TIP3   OH236274   5.199   4.356   3.313 -0.0097 -0.1076 -0.5817
 4928TIP3    H136275   5.105   4.375   3.308 -0.3941 -1.3129  1.2987
 4928TIP3    H236276   5.215   4.301   3.236 -1.3485 -1.7183  0.2234
 4929TIP3   OH236277   2.729   4.351  11.804  0.4945 -0.3972  0.3185
 4929TIP3    H136278   2.765   4.276  11.757  0.3853 -0.1840 -0.1075
 4929TIP3    H236279   2.651   4.317  11.847 -0.9151 -0.0107 -1.7748
 4930TIP3   OH236280   0.005   2.274   1.360 -0.7677 -0.2492 -0.9829
 4930TIP3    H136281   0.047   2.207   1.414 -2.1251 -0.2700  0.1009
 4930TIP3    H236282   0.067   2.290   1.289  1.5563  0.4639  1.0628
 4931TIP3   OH236283   1.772   5.197  11.396 -0.2820  0.1052  0.4127
 4931TIP3    H136284   1.688   5.235  11.422 -0.2240  1.5861 -1.3820
 4931TIP3    H236285   1.828   5.272  11.377  1.2469 -0.8704  0.9088
 4932TIP3   OH236286   6.436   1.883   2.756  0.8815  0.5644  0.3349
 4932TIP3    H136287   6.512   1.826   2.769  0.0876 -0.9210 -1.2287
 4932TIP3    H236288   6.475   1.969   2.738  2.2972 -0.4455 -1.8532
 4933TIP3   OH236289   2.129   2.696  11.858  0.2068  0.3013  0.2963
 4933TIP3    H136290   2.162   2.636  11.925  2.2500  1.5778  0.5447
 4933TIP3    H236291   2.122   2.781  11.903 -1.7620  0.4856 -0.2633
 4934TIP3   OH236292   2.360   2.492   2.475  0.1111 -0.2858 -0.2512
 4934TIP3    H136293   2.287   2.527   2.424 -1.8611 -2.0951  1.1921
 4934TIP3    H236294   2.414   2.569   2.495  0.4111  0.6885 -3.9742
 4935TIP3   OH236295   6.608   0.088   4.108  0.2362  0.0231  0.4343
 4935TIP3    H136296   6.621   0.101   4.201 -0.5312  0.1656  0.5314
 4935TIP3    H236297   6.609   0.176   4.070 -0.7530  0.0831  0.5045
 4936TIP3   OH236298   3.400   2.532   2.537 -0.4974  0.2891 -0.9657
 4936TIP3    H136299   3.348   2.456   2.512  0.6762 -0.5805 -0.8177
 4936TIP3    H236300   3.489   2.511   2.509  0.8085 -0.4231  3.0261
 4937TIP3   OH236301   4.779   5.123   4.090  0.3798  0.3674  0.1592
 4937TIP3    H136302   4.703   5.164   4.048  1.5092  0.8843 -1.4912
 4937TIP3    H236303   4.742   5.057   4.149 -1.3192  0.3645 -0.8582
 4938TIP3   OH236304   0.943   3.869   3.634  0.7339 -0.2171 -0.6584
 4938TIP3    H136305   0.903   3.786   3.608 -0.8531 -0.1443  1.3085
 4938TIP3    H236306   0.899   3.935   3.580 -0.5401 -0.3304  0.2031
 4939TIP3   OH236307   4.974   0.591   1.191 -0.6110 -0.2389  0.4797
 4939TIP3    H136308   5.033   0.617   1.119 -0.0304 -0.5610  0.8350
 4939TIP3    H236309   4.928   0.672   1.213 -0.2867  0.0248  0.2116
 4940TIP3   OH236310   4.132   4.496  11.468 -0.0318  0.5958  0.2095
 4940TIP3    H136311   4.218   4.530  11.494  0.4104  0.6691 -1.2356
 4940TIP3    H236312   4.152   4.430  11.402 -1.0441 -0.2974  0.7746
 4941TIP3   OH236313   6.614   4.568  17.028  0.0949 -0.5848 -0.1723
 4941TIP3    H136314   6.646   4.573  16.938  1.3969 -1.1182  0.2391
 4941TIP3    H236315   6.564   4.487  17.031 -0.0562 -0.5048 -0.4373
 4942TIP3   OH236316   3.871   5.925   4.890 -0.7965 -0.1163  0.1458
 4942TIP3    H136317   3.952   5.953   4.932  0.6156  0.6281 -2.8403
 4942TIP3    H236318   3.873   5.829   4.896 -0.0924 -0.0723  0.7430
 4943TIP3   OH236319   6.509   5.845   1.487  0.1043 -0.1499 -0.0274
 4943TIP3    H136320   6.447   5.793   1.435  0.3971 -1.6943  1.0902
 4943TIP3    H236321   6.458   5.875   1.562 -0.4416  2.4734 -1.3542
 4944TIP3   OH236322   6.312   6.397   4.726 -0.3283 -0.3718  0.5663
 4944TIP3    H136323   6.241   6.454   4.697 -0.0907 -0.6949 -0.7164
 4944TIP3    H236324   6.289   6.311   4.693  1.8509 -0.0417 -2.1825
 4945TIP3   OH236325   2.298   6.007   0.690 -0.4279  0.1621 -0.3747
 4945TIP3    H136326   2.357   5.976   0.621  0.4982  0.8765  0.0838
 4945TIP3    H236327   2.310   6.101   0.691 -3.0541  0.6142 -1.5993
 4946TIP3   OH236328   4.588   4.860   0.130  0.4282 -0.0513 -0.1554
 4946TIP3    H136329   4.534   4.869   0.052  1.0117 -0.7948 -0.6522
 4946TIP3    H236330   4.554   4.927   0.190  0.9903  1.6181 -1.6112
 4947TIP3   OH236331   6.186   4.456  17.043  0.3648  0.8152  0.1799
 4947TIP3    H136332   6.244   4.531  17.031  1.8490 -0.1626  0.9709
 4947TIP3    H236333   6.176   4.448  17.138  1.0388 -0.5783  0.1484
 4948TIP3   OH236334   5.875   0.847  16.114  0.1427  0.1795 -0.6753
 4948TIP3    H136335   5.861   0.779  16.049  0.9683 -1.0947  0.4318
 4948TIP3    H236336   5.970   0.846  16.129 -0.0580  0.2761  0.7048
 4949TIP3   OH236337   1.571   6.077  11.798  0.1952  0.5357 -0.9690
 4949TIP3    H136338   1.518   6.144  11.755  0.4628  1.2905 -0.1413
 4949TIP3    H236339   1.537   6.072  11.887 -0.0331 -0.6716 -1.1022
 4950TIP3   OH236340   6.418   3.516   1.025  0.3230 -0.0355  0.1005
 4950TIP3    H136341   6.406   3.513   1.120 -0.6832  0.1983 -0.0045
 4950TIP3    H236342   6.330   3.529   0.990  0.7819  0.7214 -0.8328
 4951TIP3   OH236343   1.719   5.113  13.259 -0.3142 -0.3987 -0.0893
 4951TIP3    H136344   1.627   5.139  13.248  0.0458  0.8027 -0.3963
 4951TIP3    H236345   1.767   5.169  13.198  0.5010 -1.9672 -0.9420
 4952TIP3   OH236346   3.692   5.914  16.809 -0.1229  0.8381  0.4200
 4952TIP3    H136347   3.710   5.949  16.722 -0.2432 -1.1548 -0.4580
 4952TIP3    H236348   3.751   5.839  16.818 -0.5871  0.6005  1.7864
 4953TIP3   OH236349   5.487   4.177   5.202  0.2669 -0.1476 -0.1874
 4953TIP3    H136350   5.574   4.208   5.226  0.3964 -2.7179  3.4142
 4953TIP3    H236351   5.502   4.093   5.159 -0.4115  0.1766 -1.0902
 4954TIP3   OH236352   3.153   1.015  11.760 -0.0005  0.1250  0.4031
 4954TIP3    H136353   3.200   1.047  11.837  1.6077 -1.0676 -0.0286
 4954TIP3    H236354   3.220   1.001  11.694 -1.1492 -0.3111 -0.7246
 4955TIP3   OH236355   3.365   4.605  10.363 -0.4603 -0.5026 -0.2510
 4955TIP3    H136356   3.423   4.631  10.435 -0.6559  1.6072 -0.7990
 4955TIP3    H236357   3.283   4.583  10.406 -0.5213  0.5575  0.2102
 4956TIP3   OH236358   3.508   5.264   3.363  0.1198  0.2829 -0.2851
 4956TIP3    H136359   3.602   5.277   3.354  0.1456  0.8507  0.6138
 4956TIP3    H236360   3.498   5.170   3.379  0.4688  0.1083 -1.0792
 4957TIP3   OH236361   3.824   4.006   1.803  0.7344  0.5544  0.4625
 4957TIP3    H136362   3.795   3.962   1.724  0.5061 -1.1804  1.4763
 4957TIP3    H236363   3.836   4.097   1.776  0.1072  0.1278 -1.4090
 4958TIP3   OH236364   3.019   3.475   6.737  1.2899 -0.1531 -0.0184
 4958TIP3    H136365   2.962   3.409   6.776  1.2072 -1.0203 -1.5270
 4958TIP3    H236366   2.991   3.557   6.776 -0.8495 -0.5920 -0.5097
 4959TIP3   OH236367   2.405   5.374  16.398 -0.3465 -0.2220 -0.1456
 4959TIP3    H136368   2.376   5.413  16.316  0.4191  1.4394  0.3432
 4959TIP3    H236369   2.356   5.421  16.465  1.0870  0.4154  0.4947
 4960TIP3   OH236370   5.540   5.201  16.516  0.4905 -0.2593 -0.1617
 4960TIP3    H136371   5.545   5.290  16.551 -1.4126  0.3484 -1.2300
 4960TIP3    H236372   5.542   5.145  16.593 -1.1174  0.8924  0.7944
 4961TIP3   OH236373   2.266   5.031   1.706  0.1814  0.1985  0.3805
 4961TIP3    H136374   2.330   5.072   1.763  0.3184 -0.6833  0.8770
 4961TIP3    H236375   2.272   4.938   1.726 -1.1502  0.0819  0.3222
 4962TIP3   OH236376   0.820   4.106  11.875 -0.7290  0.5805  0.1840
 4962TIP3    H136377   0.853   4.031  11.925 -0.0627  1.4277  1.0440
 4962TIP3    H236378   0.885   4.120  11.807  0.2803  1.7170  1.3553
 4963TIP3   OH236379   1.581   6.689  10.797 -0.0883 -0.8133  0.1863
 4963TIP3    H136380   1.585   6.629  10.723 -0.4799 -0.9363  0.2646
 4963TIP3    H236381   1.558   6.773  10.758  1.0350 -0.5679  0.0019
 4964TIP3   OH236382   4.642   1.807  14.250 -0.6193 -0.1997  0.2871
 4964TIP3    H136383   4.736   1.798  14.235 -0.8438  0.3500 -1.6430
 4964TIP3    H236384   4.608   1.718  14.246 -0.2967 -0.3153  0.1050
 4965TIP3   OH236385   5.467   1.321  11.000  0.7534  0.0046 -0.4167
 4965TIP3    H136386   5.397   1.383  10.980  1.5848  0.9279 -0.4721
 4965TIP3    H236387   5.434   1.237  10.967  0.0850  0.6096 -1.3152
 4966TIP3   OH236388   2.172   6.090  12.660  0.0705  0.2854 -0.0927
 4966TIP3    H136389   2.107   6.019  12.668  0.3929 -0.0972 -0.7170
 4966TIP3    H236390   2.127   6.158  12.610  0.3618 -0.2685 -1.1334
 4967TIP3   OH236391   4.746   2.751   6.195 -0.6496 -0.0197  0.1399
 4967TIP3    H136392   4.686   2.824   6.211 -0.7623 -0.4158  1.7851
 4967TIP3    H236393   4.749   2.705   6.279 -0.5697 -1.8962 -0.8537
 4968TIP3   OH236394   5.984   6.480  14.135 -0.2771 -0.2653 -0.0071
 4968TIP3    H136395   5.978   6.407  14.197  2.0122 -1.0663 -0.6093
 4968TIP3    H236396   6.068   6.467  14.092 -0.7443  1.6109 -1.6114
 4969TIP3   OH236397   2.587   3.105  14.000  0.5894 -0.0995 -0.5385
 4969TIP3    H136398   2.676   3.139  14.005  0.9556 -0.9316 -1.1074
 4969TIP3    H236399   2.558   3.099  14.091  1.0233  0.3979 -0.3630
 4970TIP3   OH236400   3.848   0.333   0.912  0.2759 -0.0157 -0.1529
 4970TIP3    H136401   3.929   0.380   0.929 -0.5504  0.8118  1.8527
 4970TIP3    H236402   3.784   0.374   0.970 -1.1467 -1.8074 -0.3635
 4971TIP3   OH236403   0.392   5.837   4.595  0.0736 -0.2357  0.5866
 4971TIP3    H136404   0.374   5.894   4.670 -0.9628  0.7076 -0.3404
 4971TIP3    H236405   0.387   5.748   4.631 -1.7053  0.1409  1.3901
 4972TIP3   OH236406   3.462   1.604   5.082  0.2146  0.6253  0.0029
 4972TIP3    H136407   3.523   1.579   5.013  0.4753 -0.7819  0.7015
 4972TIP3    H236408   3.406   1.527   5.094  1.0033  0.3182  2.2115
 4973TIP3   OH236409   2.459   6.172  13.960 -0.0425  0.4406  0.4149
 4973TIP3    H136410   2.520   6.221  14.015  2.5790  0.1302 -1.9612
 4973TIP3    H236411   2.462   6.083  13.995 -1.2753  0.9690  1.9489
 4974TIP3   OH236412   0.261   6.474  13.426 -0.2294 -0.5770  0.3849
 4974TIP3    H136413   0.222   6.509  13.347 -0.7940 -0.6008  0.6487
 4974TIP3    H236414   0.290   6.550  13.475 -1.5564 -0.4425  1.0108
 4975TIP3   OH236415   0.341   0.773   2.281 -0.0701  0.7943 -0.4882
 4975TIP3    H136416   0.369   0.864   2.288  1.3472  0.4418 -1.1825
 4975TIP3    H236417   0.406   0.733   2.223  0.7506 -1.1924  1.6438
 4976TIP3   OH236418   1.108   6.589   4.299 -0.0934 -0.8545 -0.0333
 4976TIP3    H136419   1.077   6.646   4.369 -1.3254  0.6051 -1.6902
 4976TIP3    H236420   1.068   6.504   4.319  1.4363 -1.1317  2.2407
 4977TIP3   OH236421   0.283   5.980   1.271  0.2798  0.4247  0.3184
 4977TIP3    H136422   0.192   5.984   1.240  0.0612 -0.4721  0.7870
 4977TIP3    H236423   0.292   5.890   1.304  0.9364  0.8951  1.4876
 4978TIP3   OH236424   5.591   5.237   3.387 -0.3984 -0.3661 -0.3569
 4978TIP3    H136425   5.514   5.274   3.429 -0.3929  0.2583 -0.8870
 4978TIP3    H236426   5.561   5.212   3.299  0.1950  0.6741 -0.8764
 4979TIP3   OH236427   3.347   6.782  13.603 -0.5039  0.2449 -0.3799
 4979TIP3    H136428   3.251   6.787  13.593 -0.7988 -2.1676  0.4724
 4979TIP3    H236429   3.374   6.726  13.530  0.3108  1.0844 -0.7334
 4980TIP3   OH236430   2.912   3.407   3.598 -0.7213  0.1009 -0.4537
 4980TIP3    H136431   2.886   3.478   3.657  0.7852  0.1967  0.1418
 4980TIP3    H236432   2.934   3.334   3.657 -0.2482 -0.1660 -0.9619
 4981TIP3   OH236433   5.436   5.122  17.140  0.5660 -0.2555 -0.2737
 4981TIP3    H136434   5.415   5.049  17.082 -2.3771  1.0787 -1.1044
 4981TIP3    H236435   5.394   5.098  17.223 -0.5130  0.4772 -0.5850
 4982TIP3   OH236436   0.338   5.860  12.127 -0.6123  0.1403  0.0613
 4982TIP3    H136437   0.281   5.790  12.158  1.2020 -1.3605  0.2134
 4982TIP3    H236438   0.296   5.892  12.048 -0.8774 -2.0360 -0.7501
 4983TIP3   OH236439   4.074   2.260   3.412  0.3022  0.3262  0.4989
 4983TIP3    H136440   3.998   2.206   3.390  1.7638 -1.3914 -0.5228
 4983TIP3    H236441   4.116   2.277   3.328  0.1659  2.7239  0.8471
 4984TIP3   OH236442   0.124   6.283   3.565  0.6537 -0.5521  0.0938
 4984TIP3    H136443   0.175   6.231   3.628 -1.2721 -1.9765  0.5930
 4984TIP3    H236444   0.131   6.234   3.483 -1.5614 -2.0064  0.6799
 4985TIP3   OH236445   2.119   4.416   3.763 -0.1495  0.6455  0.3478
 4985TIP3    H136446   2.146   4.491   3.710  0.0307  0.8992  0.7906
 4985TIP3    H236447   2.043   4.380   3.716 -0.5200  1.3783  0.3626
 4986TIP3   OH236448   0.982   5.898   2.922  0.2243 -0.2180 -0.3783
 4986TIP3    H136449   0.966   5.811   2.959 -1.2977 -1.0811 -2.7916
 4986TIP3    H236450   0.923   5.956   2.971  0.1636 -0.8077  0.2573
 4987TIP3   OH236451   5.867   3.736  14.401 -0.1746 -0.5141  0.1646
 4987TIP3    H136452   5.780   3.699  14.389  0.3913 -1.9341  0.2391
 4987TIP3    H236453   5.898   3.699  14.483  1.2426 -1.6064 -0.8147
 4988TIP3   OH236454   4.739   4.790   2.352  0.7581 -0.1753  0.0276
 4988TIP3    H136455   4.724   4.881   2.325  2.1777  0.9254  2.6312
 4988TIP3    H236456   4.653   4.749   2.343 -0.0637  1.5774 -0.6790
 4989TIP3   OH236457   0.593   5.889   3.041  0.2897  0.1533  0.0061
 4989TIP3    H136458   0.630   5.949   3.106  1.4980  0.0174 -0.5278
 4989TIP3    H236459   0.618   5.802   3.074 -0.0787  0.0272 -0.0498
 4990TIP3   OH236460   3.921   4.549  13.552 -0.3516  0.6619  0.1242
 4990TIP3    H136461   3.906   4.563  13.458 -1.4364 -0.8060  0.0469
 4990TIP3    H236462   4.006   4.505  13.556 -0.7047 -0.0706 -0.2553
 4991TIP3   OH236463   0.073   4.673  11.799 -0.5547  0.5919  0.7394
 4991TIP3    H136464  -0.018   4.682  11.771  0.2915  0.5868 -2.4191
 4991TIP3    H236465   0.073   4.703  11.890 -3.6653  0.6539  0.8337
 4992TIP3   OH236466   0.812   2.682   5.685 -0.3085  0.1174 -0.1801
 4992TIP3    H136467   0.794   2.752   5.748 -0.7755  1.1399 -1.3955
 4992TIP3    H236468   0.727   2.642   5.668 -0.3387  0.4095 -0.7669
 4993TIP3   OH236469   1.097   0.040   3.256  0.1978  0.3106 -0.2493
 4993TIP3    H136470   1.083  -0.053   3.271  0.7650  0.1688 -0.5699
 4993TIP3    H236471   1.128   0.073   3.340  2.9945 -0.4089 -0.8950
 4994TIP3   OH236472   2.230   1.670   3.716  0.5636 -0.8800 -0.1006
 4994TIP3    H136473   2.303   1.609   3.724 -0.3240 -2.1460 -1.1650
 4994TIP3    H236474   2.181   1.639   3.639 -0.9357  0.0729  0.4225
 4995TIP3   OH236475   4.656   4.397   0.133  1.0889  0.1155  0.2008
 4995TIP3    H136476   4.649   4.407   0.038  2.5916 -0.0628  0.0338
 4995TIP3    H236477   4.567   4.409   0.166  0.5361  0.1409 -1.2315
 4996TIP3   OH236478   2.488   6.039  15.632 -0.5922 -0.5918 -0.0294
 4996TIP3    H136479   2.573   6.071  15.662  0.4729 -0.9044 -2.4533
 4996TIP3    H236480   2.492   5.944  15.645 -0.7063 -0.5731  0.1442
 4997TIP3   OH236481   4.615   3.335   4.385  0.6360  0.3244 -0.2113
 4997TIP3    H136482   4.572   3.418   4.365 -1.1588 -0.3718  0.6267
 4997TIP3    H236483   4.577   3.273   4.323  1.3177 -0.0885 -0.2311
 4998TIP3   OH236484   0.543   1.377  13.727  0.0599 -0.2681 -0.0836
 4998TIP3    H136485   0.517   1.287  13.710  1.0853 -0.7607  0.8109
 4998TIP3    H236486   0.467   1.429  13.703 -1.1854 -1.5123  1.0107
 4999TIP3   OH236487   1.019   6.628  12.520 -0.2090  0.2008 -0.1457
 4999TIP3    H136488   0.942   6.685  12.523  0.6101  1.3184 -0.0465
 4999TIP3    H236489   1.014   6.578  12.602 -1.1169 -0.1364 -0.3938
 5000TIP3   OH236490   4.390   2.142   4.228 -0.1610  0.3716  0.3421
 5000TIP3    H136491   4.437   2.084   4.168 -0.1131  1.0564 -0.2979
 5000TIP3    H236492   4.320   2.180   4.175 -1.4023 -0.5647  1.2617
 5001TIP3   OH236493   2.800   5.943   6.477  0.3211 -0.1732  0.3320
 5001TIP3    H136494   2.817   5.981   6.563  1.8573 -0.9363  0.4038
 5001TIP3    H236495   2.743   5.868   6.494 -0.5557  0.5076  0.4910
 5002TIP3   OH236496   1.374   0.002  13.996 -0.2411  0.2925 -0.4013
 5002TIP3    H136497   1.336   0.084  14.028  1.2787  0.1345  2.1090
 5002TIP3    H236498   1.313  -0.066  14.024  0.6345  0.2434  1.6102
 5003TIP3   OH236499   1.920   0.691   5.585  0.4282 -0.0450 -0.1047
 5003TIP3    H136500   1.865   0.688   5.507 -0.6679 -0.1886  0.6468
 5003TIP3    H236501   1.886   0.764   5.636 -0.7455 -1.6233  1.5255
 5004TIP3   OH236502   5.319   2.355   1.039 -0.1715  0.5004  0.1123
 5004TIP3    H136503   5.375   2.278   1.045 -0.1191  0.5433  0.1758
 5004TIP3    H236504   5.251   2.331   0.975 -0.9806 -0.1071  1.1762
 5005TIP3   OH236505   1.993   5.921   6.350 -0.6552  0.1333 -0.4783
 5005TIP3    H136506   1.917   5.884   6.394  0.2470  1.8292  2.8194
 5005TIP3    H236507   2.043   5.846   6.319 -1.2019 -1.2476  1.8033
 5006TIP3   OH236508   2.307   4.092   0.871  0.5398 -0.1797  0.2909
 5006TIP3    H136509   2.373   4.155   0.843  0.2790  0.5235  1.2277
 5006TIP3    H236510   2.224   4.128   0.841  0.3117  0.3229  1.4734
 5007TIP3   OH236511   2.741   0.336   1.814  0.2020 -0.1272 -0.5914
 5007TIP3    H136512   2.763   0.408   1.755 -1.3788  0.9455  0.0568
 5007TIP3    H236513   2.700   0.379   1.890  0.1678 -1.6352  0.2801
 5008TIP3   OH236514   2.423   3.627  11.065  0.5717 -0.5313 -0.4637
 5008TIP3    H136515   2.491   3.694  11.057 -1.7340  2.1540  0.6551
 5008TIP3    H236516   2.432   3.595  11.155  1.0305 -1.0206 -0.6769
 5009TIP3   OH236517   6.738   5.721  13.612 -0.6693 -0.2283 -0.8165
 5009TIP3    H136518   6.821   5.725  13.566  0.3321 -0.1937  0.9063
 5009TIP3    H236519   6.681   5.780  13.564 -0.6864 -2.4426 -3.8087
 5010TIP3   OH236520   3.425   2.664  15.688 -0.0393 -0.0820  0.2372
 5010TIP3    H136521   3.344   2.667  15.637 -0.5569  0.3780  1.0671
 5010TIP3    H236522   3.424   2.744  15.739  0.4589 -0.5424  0.9893
 5011TIP3   OH236523   2.120   3.859  13.620 -0.4475 -0.1956  0.2049
 5011TIP3    H136524   2.175   3.820  13.552  2.4966 -1.3868  3.0148
 5011TIP3    H236525   2.124   3.953  13.603  0.8278 -0.4024 -0.8024
 5012TIP3   OH236526   3.777   5.345  14.067 -0.0155  0.2812  0.4461
 5012TIP3    H136527   3.771   5.386  13.981 -0.2763 -2.3121 -0.8580
 5012TIP3    H236528   3.694   5.368  14.110  0.0068  1.3906 -0.0722
 5013TIP3   OH236529   2.345   1.226  15.960  0.0516 -0.1030  0.4636
 5013TIP3    H136530   2.358   1.317  15.986  0.2362  0.2059 -0.6728
 5013TIP3    H236531   2.391   1.217  15.877 -0.1371 -1.1827  0.4542
 5014TIP3   OH236532   6.260   4.363   5.240 -0.2287  0.5074  0.6321
 5014TIP3    H136533   6.171   4.396   5.225  0.6918  2.2378 -1.7733
 5014TIP3    H236534   6.251   4.268   5.243 -2.0693  0.6092 -0.4369
 5015TIP3   OH236535   4.334   4.026  13.290 -0.1959  0.2018  0.0352
 5015TIP3    H136536   4.285   3.991  13.365 -2.4481  0.4103 -1.2362
 5015TIP3    H236537   4.299   4.115  13.279  1.0794  0.6645 -0.4686
 5016TIP3   OH236538   6.044   0.287   4.239 -0.1387  0.3092 -0.3458
 5016TIP3    H136539   5.955   0.316   4.259 -0.3062 -0.3977 -0.0255
 5016TIP3    H236540   6.032   0.203   4.193  0.3759 -0.1879  0.4053
 5017TIP3   OH236541   5.595   2.152  15.438 -0.3138 -0.0650 -0.3147
 5017TIP3    H136542   5.637   2.066  15.434 -1.1044 -0.4725 -0.1050
 5017TIP3    H236543   5.582   2.176  15.346  0.2014 -0.0124 -0.3803
 5018TIP3   OH236544   4.472   4.362  14.531  0.3673 -0.4101 -0.7600
 5018TIP3    H136545   4.517   4.406  14.603 -1.1328  3.3691 -1.9081
 5018TIP3    H236546   4.539   4.347  14.465  1.0027 -0.3199 -0.1386
 5019TIP3   OH236547   1.797   5.158   2.508 -0.3562 -0.1198 -0.1820
 5019TIP3    H136548   1.768   5.215   2.580 -3.1991 -1.8990  0.2586
 5019TIP3    H236549   1.892   5.154   2.518 -0.0043  4.0482  0.0269
 5020TIP3   OH236550   0.838   4.575  12.364 -0.1414  0.6629  0.1719
 5020TIP3    H136551   0.776   4.620  12.307  0.0370 -2.3860 -2.7184
 5020TIP3    H236552   0.784   4.523  12.423 -0.3442  0.3499 -0.2888
 5021TIP3   OH236553   0.817   2.892  13.205 -0.1253 -0.6656 -0.5470
 5021TIP3    H136554   0.796   2.905  13.298  2.1234  0.0359 -0.0744
 5021TIP3    H236555   0.734   2.907  13.160 -0.4227  3.5958  0.9867
 5022TIP3   OH236556   0.188   6.308  11.126 -0.1665  0.0787  0.4202
 5022TIP3    H136557   0.223   6.309  11.037 -0.8918  0.8946  0.1299
 5022TIP3    H236558   0.148   6.394  11.137  0.3397  0.1795  1.7105
 5023TIP3   OH236559   4.403   3.168  13.364 -0.3268  0.0196 -0.0345
 5023TIP3    H136560   4.311   3.176  13.341 -0.0032 -0.2998 -1.5903
 5023TIP3    H236561   4.443   3.250  13.335  0.1112 -0.4230 -0.7335
 5024TIP3   OH236562   2.403   1.927   5.148  0.6836 -0.2183 -0.4934
 5024TIP3    H136563   2.392   2.013   5.107  0.1449 -0.1273 -0.1855
 5024TIP3    H236564   2.497   1.915   5.155  0.7821  0.9049  0.5595
 5025TIP3   OH236565   2.050   1.056  14.820 -0.2401 -0.3785  0.6293
 5025TIP3    H136566   2.100   1.121  14.871 -1.7059  1.1388  0.2280
 5025TIP3    H236567   1.960   1.086  14.825 -0.7956 -1.7055 -0.6520
 5026TIP3   OH236568   1.140   5.588   4.918  0.3428  0.7825  0.1806
 5026TIP3    H136569   1.155   5.500   4.952 -1.7994 -0.2098 -1.1952
 5026TIP3    H236570   1.220   5.609   4.869 -0.1567 -1.6919 -1.9174
 5027TIP3   OH236571   3.127   0.722  12.332 -0.1230 -0.1307  0.8982
 5027TIP3    H136572   3.120   0.782  12.258 -1.1602 -0.8873  0.3548
 5027TIP3    H236573   3.220   0.699  12.336 -0.1920 -0.8710 -0.8343
 5028TIP3   OH236574   0.216   3.795  15.209  0.0080 -0.1722  0.8048
 5028TIP3    H136575   0.193   3.793  15.302 -4.6255  1.3453 -0.0190
 5028TIP3    H236576   0.242   3.885  15.192  1.8988 -0.6960  0.7507
 5029TIP3   OH236577   4.451   2.298  15.704  0.2188  0.0004  0.3321
 5029TIP3    H136578   4.396   2.287  15.781  0.8495 -0.3906  0.7300
 5029TIP3    H236579   4.422   2.229  15.644  1.7609 -1.6544  1.4216
 5030TIP3   OH236580   5.058   5.776  15.710 -0.3774  0.7899 -0.2732
 5030TIP3    H136581   5.144   5.733  15.716  0.2767  1.7560 -1.9331
 5030TIP3    H236582   5.068   5.856  15.760  0.1471  1.5133 -1.4754
 5031TIP3   OH236583   0.775   3.585   1.473  0.1024  0.0958 -0.4651
 5031TIP3    H136584   0.683   3.563   1.458  0.1922 -1.5338  1.0269
 5031TIP3    H236585   0.822   3.532   1.408  0.0129  0.9000 -1.2026
 5032TIP3   OH236586   6.541   1.512   3.886 -0.3966 -0.4028 -0.1642
 5032TIP3    H136587   6.478   1.583   3.902  0.4955  0.1733  1.0231
 5032TIP3    H236588   6.528   1.452   3.960  0.8175  0.0320  0.4401
 5033TIP3   OH236589   5.651   1.957   1.600  0.1632  0.2783  0.2273
 5033TIP3    H136590   5.704   2.010   1.540  0.1644 -2.5399 -2.4814
 5033TIP3    H236591   5.711   1.892   1.635 -0.5309 -0.0307  0.8886
 5034TIP3   OH236592   2.375   4.859   6.110 -0.2078  0.0950  0.6801
 5034TIP3    H136593   2.458   4.826   6.077 -0.8867 -0.9347 -0.0819
 5034TIP3    H236594   2.386   4.954   6.112  1.7503 -0.0771  2.7876
 5035TIP3   OH236595   3.058   1.305   0.576 -0.4581 -0.4591  0.1598
 5035TIP3    H136596   3.127   1.337   0.633  0.1634 -0.5581 -0.5203
 5035TIP3    H236597   3.098   1.232   0.529 -0.9922 -0.4496 -0.3200
 5036TIP3   OH236598   4.095   1.980   1.575 -0.3210 -0.4693  0.1657
 5036TIP3    H136599   4.079   2.033   1.653  1.6524  0.5792 -0.0659
 5036TIP3    H236600   4.108   1.891   1.607 -1.6437 -0.4528  0.7863
 5037TIP3   OH236601   1.192   5.293  16.318 -0.2223 -0.4051  0.5275
 5037TIP3    H136602   1.231   5.284  16.404 -2.0185 -0.5952  1.3647
 5037TIP3    H236603   1.248   5.240  16.260  1.5511  0.4927  1.3481
 5038TIP3   OH236604   4.083   3.697  16.889 -0.3222  0.0826  0.4078
 5038TIP3    H136605   4.091   3.690  16.794 -1.6325 -0.8512  0.3371
 5038TIP3    H236606   4.126   3.619  16.924  0.1299  0.4071  0.5858
 5039TIP3   OH236607   6.713   4.677  11.497  0.1388  0.1224  0.9685
 5039TIP3    H136608   6.625   4.655  11.466 -0.2761 -0.2279  2.3109
 5039TIP3    H236609   6.729   4.617  11.569  2.0792 -0.7614 -0.1168
 5040TIP3   OH236610   2.629   6.780   5.250  0.1583 -0.0702 -0.5955
 5040TIP3    H136611   2.544   6.824   5.243  0.8094  1.2633 -0.4770
 5040TIP3    H236612   2.693   6.851   5.250  1.3628 -1.0868 -1.8478
 5041TIP3   OH236613   5.570   2.301   5.166  0.1690  0.1496  0.4396
 5041TIP3    H136614   5.589   2.343   5.249 -0.0809 -1.0201  1.1067
 5041TIP3    H236615   5.481   2.266   5.177  0.5522 -0.9623  0.0883
 5042TIP3   OH236616   6.523   5.022  11.847  0.1863 -0.5983 -0.0535
 5042TIP3    H136617   6.590   4.975  11.897  0.8805 -0.5308 -0.8854
 5042TIP3    H236618   6.476   4.954  11.800 -0.1362 -0.6199  0.2967
 5043TIP3   OH236619   0.248   0.152  17.260  0.1543  0.4203 -0.0965
 5043TIP3    H136620   0.179   0.218  17.269 -0.9266 -0.5036 -1.1325
 5043TIP3    H236621   0.284   0.142  17.348 -0.7074  1.2686  0.3758
 5044TIP3   OH236622   5.914   5.730   4.004  0.2050  0.1694  0.4588
 5044TIP3    H136623   5.941   5.717   4.095  1.5112 -0.9771 -0.0436
 5044TIP3    H236624   5.967   5.667   3.955  0.0819  1.2985 -1.1848
 5045TIP3   OH236625   3.023   5.999  11.655  0.8276  0.1847 -0.2153
 5045TIP3    H136626   3.052   5.969  11.741  0.9150 -0.0920 -0.3392
 5045TIP3    H236627   3.101   5.991  11.599  0.2897 -1.4817 -0.7895
 5046TIP3   OH236628   2.512   5.629   0.671 -0.4094  0.0135 -0.0665
 5046TIP3    H136629   2.567   5.639   0.749 -1.1611 -5.0076  1.4728
 5046TIP3    H236630   2.558   5.565   0.617 -1.9359  0.1858 -1.6568
 5047TIP3   OH236631   0.641   6.374  11.685  0.2807  0.0869  0.2103
 5047TIP3    H136632   0.604   6.315  11.751 -1.9130  1.5946  0.4458
 5047TIP3    H236633   0.582   6.367  11.610  1.1830  0.4430 -0.5615
 5048TIP3   OH236634   1.113   2.881  16.742 -0.8042 -0.4246 -0.4428
 5048TIP3    H136635   1.024   2.862  16.771 -0.7669 -0.1413 -0.1350
 5048TIP3    H236636   1.106   2.963  16.694 -0.6254 -0.1122  0.0536
 5049TIP3   OH236637   3.660   4.979   0.821  0.1934 -0.0455 -0.1971
 5049TIP3    H136638   3.631   5.069   0.833  1.1929  0.1855  0.5753
 5049TIP3    H236639   3.677   4.971   0.727 -0.1914  0.4688 -0.3155
 5050TIP3   OH236640   0.090   1.778   5.895  0.2503 -0.0776  0.6320
 5050TIP3    H136641   0.073   1.740   5.982 -2.1245  0.2243  0.3556
 5050TIP3    H236642   0.008   1.768   5.848  0.5373  2.4540 -0.5758
 5051TIP3   OH236643   6.271   4.341  16.025 -0.0713  0.7823  0.7381
 5051TIP3    H136644   6.256   4.430  15.994 -0.0630  0.4775 -0.1637
 5051TIP3    H236645   6.365   4.329  16.020  0.1292  1.3164  2.5667
 5052TIP3   OH236646   1.542   6.401   3.561 -0.1557  0.1801 -0.1793
 5052TIP3    H136647   1.498   6.391   3.477 -2.3331  0.0270  0.9338
 5052TIP3    H236648   1.586   6.317   3.575  1.0987  0.5617 -1.5996
 5053TIP3   OH236649   2.632   1.337   4.032  0.1715  0.0949  0.0999
 5053TIP3    H136650   2.537   1.327   4.043 -0.0966 -0.6138 -2.2428
 5053TIP3    H236651   2.668   1.252   4.057 -0.0097 -0.1824 -0.5487
 5054TIP3   OH236652   3.555   0.552  11.205 -0.3432  0.3791 -0.3637
 5054TIP3    H136653   3.630   0.508  11.164 -0.8582  0.6174 -1.6073
 5054TIP3    H236654   3.529   0.619  11.142 -2.9364 -1.0766 -1.0221
 5055TIP3   OH236655   3.826   2.542   5.128  0.3854  0.0599  0.5639
 5055TIP3    H136656   3.829   2.553   5.033 -0.3652  2.3796  0.7574
 5055TIP3    H236657   3.812   2.448   5.140  2.3536 -0.5960 -1.5331
 5056TIP3   OH236658   0.835   6.014   5.140 -0.4467 -0.4229 -0.1514
 5056TIP3    H136659   0.898   6.023   5.211 -1.2319  0.3963  0.4639
 5056TIP3    H236660   0.825   6.103   5.105 -1.9342 -0.3482  0.3751
 5057TIP3   OH236661   0.110   0.053   4.047 -0.8055  0.0470  0.7878
 5057TIP3    H136662   0.101  -0.042   4.047 -0.5898 -0.2388 -4.5501
 5057TIP3    H236663   0.200   0.068   4.078 -0.3571 -1.6258  0.4033
 5058TIP3   OH236664   6.718   6.761   1.056 -0.0424  0.4019  0.2043
 5058TIP3    H136665   6.680   6.837   1.012  0.7814  0.1748 -0.9749
 5058TIP3    H236666   6.767   6.797   1.130 -0.2830  0.9447  0.1007
 5059TIP3   OH236667   5.425   6.520   5.552 -0.2374  0.6119  0.8107
 5059TIP3    H136668   5.370   6.589   5.589 -0.5408  1.8018 -1.6231
 5059TIP3    H236669   5.490   6.567   5.500  1.2930 -0.8848  1.2843
 5060TIP3   OH236670   0.434   4.058  13.993 -0.5344 -0.0056 -0.2436
 5060TIP3    H136671   0.437   4.084  13.901 -0.6846 -0.2882 -0.3290
 5060TIP3    H236672   0.343   4.033  14.009 -0.7307  0.9457  0.2386
 5061TIP3   OH236673   5.820   6.328  15.143  0.7720 -0.1959 -0.6859
 5061TIP3    H136674   5.813   6.267  15.216 -0.7273 -3.2489 -3.0862
 5061TIP3    H236675   5.902   6.375  15.158  0.8406 -1.1146  2.5528
 5062TIP3   OH236676   2.448   2.233   3.730 -0.1081  0.2682  0.1455
 5062TIP3    H136677   2.399   2.206   3.808 -0.6006  0.5267 -0.0677
 5062TIP3    H236678   2.523   2.282   3.764  0.5803 -1.0126  0.5197
 5063TIP3   OH236679   3.408   0.071  15.232 -0.6898  0.4490  0.0790
 5063TIP3    H136680   3.327   0.122  15.228  0.2916  2.2226  1.2067
 5063TIP3    H236681   3.425   0.060  15.325  0.3259  0.0420 -0.1420
 5064TIP3   OH236682   3.710   4.790  16.805 -0.0913 -0.1240 -0.3926
 5064TIP3    H136683   3.763   4.819  16.731 -0.6583  0.0686 -0.7242
 5064TIP3    H236684   3.708   4.694  16.796 -2.4892  0.0211 -2.2807
 5065TIP3   OH236685   4.798   0.151  14.380 -0.1124  0.5975  0.1611
 5065TIP3    H136686   4.882   0.196  14.393 -0.0533  1.5244 -2.7010
 5065TIP3    H236687   4.821   0.073  14.329 -1.0148  1.2343 -1.2698
 5066TIP3   OH236688   6.781   6.659   2.013  0.0331 -0.1319 -0.4781
 5066TIP3    H136689   6.862   6.610   2.027 -0.2379 -0.8599 -1.3319
 5066TIP3    H236690   6.768   6.658   1.919 -1.3439 -0.6622 -0.3083
 5067TIP3   OH236691   5.112   3.749  16.217 -0.2222  0.2878  0.5602
 5067TIP3    H136692   5.055   3.824  16.228 -1.8172 -1.0149  1.7424
 5067TIP3    H236693   5.150   3.735  16.303 -1.4784 -1.3606  0.9087
 5068TIP3   OH236694   5.693   5.706   3.439  0.2400  0.2368 -0.2812
 5068TIP3    H136695   5.672   5.767   3.511  0.6062 -0.5107  0.4820
 5068TIP3    H236696   5.776   5.666   3.465  0.6668  0.3557 -1.4056
 5069TIP3   OH236697   6.590   1.905  17.284 -0.1198 -0.4531  0.5786
 5069TIP3    H136698   6.597   1.997  17.258 -0.9096 -0.6722 -0.5070
 5069TIP3    H236699   6.664   1.862  17.241 -1.1750 -0.7369 -1.0610
 5070TIP3   OH236700   2.388   5.939  11.300  0.8779 -0.4920  0.3274
 5070TIP3    H136701   2.344   6.022  11.285 -0.9090 -1.1948  1.3162
 5070TIP3    H236702   2.480   5.956  11.281  0.3739  1.3750 -0.6456
 5071TIP3   OH236703   4.041   2.246   4.727  0.5395 -0.2371  0.3960
 5071TIP3    H136704   4.003   2.323   4.686 -1.2310 -0.5282  1.4077
 5071TIP3    H236705   4.130   2.242   4.692 -0.7705 -0.4382 -3.3043
 5072TIP3   OH236706   6.092   2.954   6.238  0.5025  0.3603  0.4072
 5072TIP3    H136707   6.117   3.002   6.318  2.2833  2.5722 -1.3355
 5072TIP3    H236708   6.164   2.892   6.225  0.0503 -0.2256  0.6658
 5073TIP3   OH236709   1.227   3.616  14.815 -0.9693  0.4667 -0.4966
 5073TIP3    H136710   1.270   3.589  14.734 -0.9190 -2.2894  0.3524
 5073TIP3    H236711   1.241   3.543  14.875 -2.4965  1.6816  1.4593
 5074TIP3   OH236712   2.463   4.489   5.794 -0.3464  0.7548  0.1540
 5074TIP3    H136713   2.552   4.458   5.807 -0.4538 -0.1584 -1.1110
 5074TIP3    H236714   2.469   4.584   5.804  0.5630  0.6133  1.0824
 5075TIP3   OH236715   5.285   0.370   5.452 -0.1434  0.3926 -0.7381
 5075TIP3    H136716   5.195   0.354   5.423 -0.6805 -0.0893  1.0105
 5075TIP3    H236717   5.329   0.286   5.442 -0.0698  0.4686 -1.0359
 5076TIP3   OH236718   2.673   0.830  16.139 -0.2383  0.2277 -0.2543
 5076TIP3    H136719   2.760   0.824  16.101 -0.0929 -0.4877  0.1669
 5076TIP3    H236720   2.635   0.909  16.102  1.0263  1.1869  0.4549
 5077TIP3   OH236721   4.356   5.115  15.914 -0.0881 -0.2243  0.3862
 5077TIP3    H136722   4.267   5.135  15.942 -0.1585 -1.6702  1.3055
 5077TIP3    H236723   4.345   5.070  15.830 -0.2009 -0.2743  0.4283
 5078TIP3   OH236724   4.076   3.796   1.856  0.3841  0.0348  0.5155
 5078TIP3    H136725   4.015   3.869   1.864 -1.7323 -1.4805 -0.7398
 5078TIP3    H236726   4.067   3.768   1.765 -0.8836 -3.4114  1.5798
 5079TIP3   OH236727   0.200   5.373  11.372  0.4577 -0.3449 -0.1817
 5079TIP3    H136728   0.241   5.362  11.458  0.8814  2.5918  0.0807
 5079TIP3    H236729   0.108   5.352  11.386 -0.0115  2.5470  1.7022
 5080TIP3   OH236730   6.008   6.784  14.642  0.0442  0.3111 -0.2125
 5080TIP3    H136731   5.939   6.837  14.601  0.4514  0.3874 -0.8137
 5080TIP3    H236732   6.074   6.848  14.667  0.7455  0.0612 -1.3501
 5081TIP3   OH236733   6.524   5.948  14.141 -0.2263 -0.3690 -0.0076
 5081TIP3    H136734   6.607   5.981  14.107 -0.4306  4.1974  3.0407
 5081TIP3    H236735   6.459   6.013  14.114 -2.1465 -1.9223  0.6667
 5082TIP3   OH236736   0.431   0.054  10.970  0.0880  0.2809  0.0971
 5082TIP3    H136737   0.462   0.044  11.061 -0.3338 -0.9230  0.1310
 5082TIP3    H236738   0.494   0.004  10.918 -0.9214 -0.9453  0.0021
 5083TIP3   OH236739   2.689   3.539   5.605 -0.4525  0.1807  0.3587
 5083TIP3    H136740   2.723   3.628   5.595 -1.3360  0.8088  2.4128
 5083TIP3    H236741   2.624   3.531   5.535  0.4051  0.7190 -0.5373
 5084TIP3   OH236742   2.835   1.937  12.645 -0.1693 -0.4795  0.2510
 5084TIP3    H136743   2.915   1.917  12.595 -0.1678  0.6796 -0.2490
 5084TIP3    H236744   2.774   1.868  12.621  0.5026 -1.0800  0.2167
 5085TIP3   OH236745   6.039   2.331  14.073  0.3513 -0.2526  0.1485
 5085TIP3    H136746   6.028   2.412  14.024 -1.4694 -0.4836  0.1005
 5085TIP3    H236747   6.022   2.262  14.010 -1.2973 -0.5659  0.8736
 5086TIP3   OH236748   3.508   5.575   2.245 -0.7716 -0.3699  0.4046
 5086TIP3    H136749   3.502   5.629   2.167  0.7058 -0.4554  0.2015
 5086TIP3    H236750   3.453   5.499   2.227 -1.7563  0.3990  0.1331
 5087TIP3   OH236751   0.317   1.622  12.687  0.8662 -0.1947  0.3696
 5087TIP3    H136752   0.234   1.603  12.644 -0.0808  3.1918  0.4678
 5087TIP3    H236753   0.313   1.572  12.769 -0.6384 -0.7948 -0.0362
 5088TIP3   OH236754   2.797   2.984   2.281 -0.5162 -0.2501  0.4141
 5088TIP3    H136755   2.716   2.935   2.275 -0.4957 -0.1464 -1.0015
 5088TIP3    H236756   2.866   2.917   2.286 -0.6090 -0.3442  0.4245
 5089TIP3   OH236757   0.485   1.289   3.300  0.1897 -0.2450 -0.6498
 5089TIP3    H136758   0.461   1.364   3.354  1.4371  0.5806 -1.1798
 5089TIP3    H236759   0.425   1.220   3.326 -1.2811  1.0609 -0.4449
 5090TIP3   OH236760   0.395   2.836   1.727  0.1109  0.6237 -0.2234
 5090TIP3    H136761   0.485   2.804   1.732  0.5094  1.4575 -1.4696
 5090TIP3    H236762   0.380   2.878   1.812 -0.4520 -2.7286  1.4925
 5091TIP3   OH236763   6.226   2.927  12.499 -0.2716  0.1207  0.4092
 5091TIP3    H136764   6.238   2.848  12.447 -1.8502 -3.1435  4.4734
 5091TIP3    H236765   6.143   2.964  12.469 -1.5241 -2.1054  0.9354
 5092TIP3   OH236766   0.322   4.937   4.673  0.4815  0.1578 -0.4932
 5092TIP3    H136767   0.253   4.981   4.723 -1.0006 -0.5593 -1.8323
 5092TIP3    H236768   0.335   4.854   4.718 -0.2757 -0.1459 -0.8275
 5093TIP3   OH236769   6.401   0.285  14.466  0.2071  0.7571  0.3170
 5093TIP3    H136770   6.433   0.328  14.545 -1.5672  4.0929 -0.5965
 5093TIP3    H236771   6.306   0.298  14.468 -0.0222 -0.1206 -1.7647
 5094TIP3   OH236772   2.259   0.517   3.141  0.7461 -0.0394  0.2258
 5094TIP3    H136773   2.349   0.502   3.110  0.7283 -1.2052  0.6982
 5094TIP3    H236774   2.243   0.447   3.204 -0.7681 -0.3042 -0.4085
 5095TIP3   OH236775   3.794   6.725  15.557 -0.3135 -0.0572  0.3557
 5095TIP3    H136776   3.733   6.768  15.616  0.1272  0.2233  0.6103
 5095TIP3    H236777   3.798   6.635  15.589 -0.4495 -0.0313  0.4505
 5096TIP3   OH236778   2.738   1.119   2.081 -0.2160  0.3478 -0.4439
 5096TIP3    H136779   2.716   1.123   1.988 -0.5397  1.2248 -0.3374
 5096TIP3    H236780   2.831   1.138   2.085 -0.2455  0.5185 -0.5720
 5097TIP3   OH236781   6.233   1.714  16.066 -0.3964  0.1862 -0.1421
 5097TIP3    H136782   6.302   1.730  16.002 -0.5889  1.4536 -0.0538
 5097TIP3    H236783   6.214   1.621  16.057  1.6252 -0.3213  0.1364
 5098TIP3   OH236784   0.083   1.082   0.729  0.1938 -0.0975  0.3881
 5098TIP3    H136785   0.150   1.093   0.796  2.7124 -3.9265 -1.1599
 5098TIP3    H236786   0.119   1.124   0.651 -1.3312  1.6579  0.5588
 5099TIP3   OH236787   6.607   0.932  11.895 -0.0295  0.2035 -0.3757
 5099TIP3    H136788   6.598   0.916  11.989  4.0134  1.3755  0.3932
 5099TIP3    H236789   6.632   0.848  11.858  0.4464  0.1792 -0.0074
 5100TIP3   OH236790   4.612   2.645  15.339 -0.3735  0.6498  0.3109
 5100TIP3    H136791   4.697   2.605  15.360 -0.2383  0.0068 -1.2612
 5100TIP3    H236792   4.635   2.730  15.302 -0.4905  0.9719  0.9754
 5101TIP3   OH236793   6.755   6.519  10.410  0.5414  0.1991  0.3476
 5101TIP3    H136794   6.727   6.560  10.328  0.9799 -0.8699 -0.3584
 5101TIP3    H236795   6.698   6.557  10.477 -0.3254  0.5330 -0.5614
 5102TIP3   OH236796   6.403   4.830   1.701 -0.6191 -0.7195  0.6197
 5102TIP3    H136797   6.357   4.882   1.767 -0.7369 -1.7014  1.3398
 5102TIP3    H236798   6.483   4.801   1.745 -0.3279 -0.7547  0.0684
 5103TIP3   OH236799   0.601   2.505   4.147  0.5225  0.2653 -0.1611
 5103TIP3    H136800   0.640   2.425   4.112  1.9390  1.4718 -1.5162
 5103TIP3    H236801   0.562   2.547   4.070 -2.5997 -0.3243  0.9489
 5104TIP3   OH236802   5.982   5.043   4.812 -0.3336  0.1599 -0.2381
 5104TIP3    H136803   5.976   5.066   4.904 -0.5337  0.9443 -0.4373
 5104TIP3    H236804   5.925   5.107   4.768 -0.5688 -0.4678 -0.8550
 5105TIP3   OH236805   6.701   5.382   1.955 -0.4289  0.4963  0.2023
 5105TIP3    H136806   6.793   5.400   1.974 -0.1226  0.7612 -1.3911
 5105TIP3    H236807   6.678   5.309   2.013  0.3594  1.3410  1.6251
 5106TIP3   OH236808   5.101   5.427   2.690  0.4853 -0.0511  0.4751
 5106TIP3    H136809   5.188   5.466   2.680  0.8235 -0.1621  2.4853
 5106TIP3    H236810   5.096   5.404   2.783 -0.9840 -1.7767  0.0224
 5107TIP3   OH236811   2.479   6.669  16.805 -0.4026 -0.1737  0.1480
 5107TIP3    H136812   2.537   6.730  16.761 -0.5633 -1.0246 -1.3306
 5107TIP3    H236813   2.487   6.690  16.898  0.3942  1.3156 -0.2277
 5108TIP3   OH236814   5.240   4.763   5.712 -0.7371  0.0721 -0.0185
 5108TIP3    H136815   5.198   4.709   5.778 -0.4561 -1.2827 -0.9001
 5108TIP3    H236816   5.227   4.853   5.742 -2.8740 -0.3671  0.5329
 5109TIP3   OH236817   4.080   5.059  15.184 -0.6745 -0.0324  0.2103
 5109TIP3    H136818   4.126   5.126  15.133 -3.7768  0.8173 -1.7239
 5109TIP3    H236819   4.080   4.982  15.129 -1.4637 -0.0277  0.1845
 5110TIP3   OH236820   1.709   3.612  13.652 -0.0162  0.2405  0.3450
 5110TIP3    H136821   1.803   3.634  13.658  0.0680 -0.4766  2.3759
 5110TIP3    H236822   1.665   3.687  13.690 -0.5489  1.8085 -2.9993
 5111TIP3   OH236823   2.689   2.073  13.082 -0.2378  0.3341 -0.1878
 5111TIP3    H136824   2.672   2.161  13.116 -0.7461  0.0409  0.3326
 5111TIP3    H236825   2.612   2.022  13.107  1.2210 -0.9681  2.0574
 5112TIP3   OH236826   0.861   0.848   3.021 -0.6410  0.3668  0.2755
 5112TIP3    H136827   0.846   0.755   3.004 -1.3060  0.5497 -0.2068
 5112TIP3    H236828   0.956   0.859   3.015 -0.3707 -0.6260  2.1832
 5113TIP3   OH236829   5.938   2.037  15.584 -0.0490 -0.2580  0.0618
 5113TIP3    H136830   6.019   2.024  15.633 -1.5794 -2.6996  2.2094
 5113TIP3    H236831   5.966   2.046  15.493  2.5603 -3.0249  0.4528
 5114TIP3   OH236832   4.252   3.129   6.329  0.8910  0.3432 -0.1405
 5114TIP3    H136833   4.246   3.069   6.255 -0.4325 -0.9584  0.9507
 5114TIP3    H236834   4.165   3.168   6.336  1.1371  0.8202  0.4253
 5115TIP3   OH236835   4.743   3.435   5.927 -0.3300 -0.0430  0.3289
 5115TIP3    H136836   4.749   3.376   5.852 -0.4151 -2.9197  2.3843
 5115TIP3    H236837   4.662   3.410   5.971 -0.7005  2.1273  1.0035
 5116TIP3   OH236838   5.922   5.978  13.041  0.0405 -0.9347  0.1404
 5116TIP3    H136839   5.925   6.032  13.120 -0.1929 -1.4320  0.4943
 5116TIP3    H236840   5.969   6.029  12.975  1.0811 -0.9327  0.8657
 5117TIP3   OH236841   0.316   1.508  14.965  0.4466  0.9906  0.0028
 5117TIP3    H136842   0.287   1.450  14.894 -1.6407  2.1832 -0.1952
 5117TIP3    H236843   0.315   1.596  14.927  0.4343  1.5278  1.1888
 5118TIP3   OH236844   4.781   0.558   0.661 -0.1166 -0.4090  0.1356
 5118TIP3    H136845   4.712   0.607   0.706  2.5775  1.0987  2.9559
 5118TIP3    H236846   4.739   0.474   0.639 -3.9838  1.7959 -2.0693
 5119TIP3   OH236847   0.833   2.885   4.848  0.4511 -1.1715 -0.1249
 5119TIP3    H136848   0.868   2.803   4.884 -0.7332 -1.2672  0.8708
 5119TIP3    H236849   0.900   2.951   4.870  0.9759 -1.7033 -0.1085
 5120TIP3   OH236850   5.776   3.035   0.391 -0.0101  0.5804  0.1014
 5120TIP3    H136851   5.693   3.041   0.438  0.3313 -1.5113  1.1057
 5120TIP3    H236852   5.785   3.119   0.346 -1.9244  1.4215  1.1839
 5121TIP3   OH236853   5.821   4.810  13.318 -0.0398 -0.1483 -0.2996
 5121TIP3    H136854   5.899   4.860  13.295 -1.0697  1.7170  0.1022
 5121TIP3    H236855   5.854   4.735  13.368  1.4781  0.5925 -0.1612
 5122TIP3   OH236856   1.024   6.720   1.294  0.0561  0.3224 -0.1433
 5122TIP3    H136857   1.005   6.775   1.370 -0.0142  0.8178 -0.5069
 5122TIP3    H236858   1.077   6.776   1.237 -1.7398  0.7705 -1.4564
 5123TIP3   OH236859   2.063   3.647  15.285  0.3505  0.1579  1.0115
 5123TIP3    H136860   2.139   3.683  15.332 -0.2241  1.2094  1.1672
 5123TIP3    H236861   1.991   3.704  15.310 -0.1817  0.1216 -0.3718
 5124TIP3   OH236862   5.676   0.587   5.422 -0.0013  0.0028  1.0247
 5124TIP3    H136863   5.718   0.633   5.494 -0.2759  1.1286  0.4889
 5124TIP3    H236864   5.692   0.494   5.439  2.1095  0.3594  1.1998
 5125TIP3   OH236865   4.532   4.392  16.661  0.0164 -0.4743  0.0689
 5125TIP3    H136866   4.537   4.484  16.636  0.1432 -0.6445 -0.5722
 5125TIP3    H236867   4.460   4.357  16.607  0.4463 -0.9085 -0.2285
 5126TIP3   OH236868   4.586   4.824   3.245 -0.6129 -0.2510  0.0194
 5126TIP3    H136869   4.655   4.887   3.226  0.6993 -1.4915  0.4317
 5126TIP3    H236870   4.525   4.871   3.301 -1.3719  1.5808 -2.2065
 5127TIP3   OH236871   0.543   3.742   5.900  0.5071  0.0876  0.4804
 5127TIP3    H136872   0.632   3.764   5.929  0.4201 -0.3027  1.0684
 5127TIP3    H236873   0.491   3.744   5.980  0.1669 -0.5901  0.2842
 5128TIP3   OH236874   4.109   1.874  11.585  0.3357 -0.0861 -0.2239
 5128TIP3    H136875   4.042   1.858  11.651  0.0833 -1.2527 -0.7322
 5128TIP3    H236876   4.191   1.850  11.627  0.4229  1.0996  0.3148
 5129TIP3   OH236877   6.389   0.469   1.217 -0.5856 -0.0352 -0.0334
 5129TIP3    H136878   6.429   0.546   1.257  0.1832 -0.0218 -0.7992
 5129TIP3    H236879   6.367   0.496   1.128  0.0011 -0.7851 -0.4252
 5130TIP3   OH236880   2.476   4.660   2.063  0.4795  0.0823  0.0907
 5130TIP3    H136881   2.525   4.713   2.000  3.3462 -1.2779  1.0074
 5130TIP3    H236882   2.421   4.603   2.008  0.9881  0.6716 -1.0671
 5131TIP3   OH236883   2.158   0.468  12.855  0.4521  0.7481 -0.0499
 5131TIP3    H136884   2.186   0.454  12.764 -1.1586  1.2371 -0.6616
 5131TIP3    H236885   2.133   0.560  12.858 -0.7084  0.4272  0.5392
 5132TIP3   OH236886   3.164   3.371  12.965  0.0140  0.8846  0.0043
 5132TIP3    H136887   3.134   3.381  13.056  1.8020  3.2336  0.4241
 5132TIP3    H236888   3.087   3.389  12.912 -1.0402 -0.4272  1.0228
 5133TIP3   OH236889   0.047   3.028   2.693  0.4489 -0.0181  0.5119
 5133TIP3    H136890   0.022   3.105   2.642  2.5851 -0.2662 -1.0504
 5133TIP3    H236891   0.046   3.057   2.784 -1.5653  0.9963  0.2043
 5134TIP3   OH236892   4.851   1.094   5.595 -0.3247 -0.2456  0.1173
 5134TIP3    H136893   4.918   1.064   5.534  0.4827  1.7711 -0.0687
 5134TIP3    H236894   4.873   1.051   5.678 -0.2884 -1.5049 -0.5232
 5135TIP3   OH236895   1.310   6.730   6.070  0.5240 -0.8497 -0.4916
 5135TIP3    H136896   1.395   6.749   6.109  1.1707 -0.0790 -2.1509
 5135TIP3    H236897   1.299   6.636   6.078  1.0795 -0.8345  0.5917
 5136TIP3   OH236898   1.472   3.251  12.998  0.1812 -0.2748 -0.2515
 5136TIP3    H136899   1.383   3.248  12.962  0.7234  0.3011 -1.7034
 5136TIP3    H236900   1.464   3.208  13.083 -2.0361  1.9636  0.8268
 5137TIP3   OH236901   4.731   5.997   0.136 -0.1756 -0.2213  0.1883
 5137TIP3    H136902   4.706   6.002   0.228 -1.0064  0.3166 -0.0613
 5137TIP3    H236903   4.785   5.918   0.131 -0.7806 -0.7063  0.9880
 5138TIP3   OH236904   2.972   1.821   5.803  0.3660  0.2601  0.2321
 5138TIP3    H136905   2.937   1.870   5.877 -1.1905  0.1976 -0.4213
 5138TIP3    H236906   3.033   1.759   5.842  0.8576  1.3552  1.2679
 5139TIP3   OH236907   4.815   6.722  16.189  0.0055 -0.1526 -0.1363
 5139TIP3    H136908   4.809   6.659  16.117 -0.5908 -4.1381  3.0484
 5139TIP3    H236909   4.809   6.669  16.268  2.3186  3.7135  3.0000
 5140TIP3   OH236910   0.818   5.407   1.862 -0.7106 -0.3564  0.5519
 5140TIP3    H136911   0.794   5.484   1.810  0.6511 -0.3610 -0.1328
 5140TIP3    H236912   0.750   5.401   1.929 -1.4585  0.7780 -0.0734
 5141TIP3   OH236913   5.188   2.594  13.070  0.4138  0.3266 -0.0142
 5141TIP3    H136914   5.160   2.571  12.981  0.3190 -2.4760  0.6450
 5141TIP3    H236915   5.107   2.624  13.113  0.1718  0.3450 -0.4736
 5142TIP3   OH236916   4.300   5.756   5.746  0.2143  0.0015 -0.4554
 5142TIP3    H136917   4.293   5.662   5.759  3.4649 -0.1977  0.8550
 5142TIP3    H236918   4.289   5.768   5.652  2.1253 -2.0622 -1.0284
 5143TIP3   OH236919   3.161   4.187  15.788 -0.0350  0.0056 -0.1986
 5143TIP3    H136920   3.068   4.192  15.810  0.0305 -0.4691  0.1726
 5143TIP3    H236921   3.162   4.185  15.692 -0.3977  0.1476 -0.2079
 5144TIP3   OH236922   2.868   3.704   2.448  0.6987 -0.0127 -0.3456
 5144TIP3    H136923   2.959   3.711   2.419  0.3866  1.0249 -1.1354
 5144TIP3    H236924   2.854   3.611   2.463  2.0141 -0.1440  0.2121
 5145TIP3   OH236925   5.791   6.568  13.943  0.0549  1.1039 -0.2287
 5145TIP3    H136926   5.774   6.653  13.984  2.4977  1.7562 -0.4236
 5145TIP3    H236927   5.856   6.527  14.000 -0.5799 -0.3708 -0.5197
 5146TIP3   OH236928   0.356   0.881  12.505  0.4318  0.1535 -0.3534
 5146TIP3    H136929   0.421   0.828  12.552  0.1791  0.5891  0.5165
 5146TIP3    H236930   0.275   0.868  12.555 -0.1037 -0.2051 -1.2982
 5147TIP3   OH236931   0.268   3.951   4.285 -0.1425 -0.3696 -0.7100
 5147TIP3    H136932   0.207   3.898   4.234 -1.3145 -0.8175  1.0629
 5147TIP3    H236933   0.230   4.039   4.283 -1.7131 -0.9189  1.5447
 5148TIP3   OH236934   4.568   1.789   3.141 -0.5033 -0.3247  0.7193
 5148TIP3    H136935   4.646   1.826   3.182 -0.6035  1.0615 -0.2665
 5148TIP3    H236936   4.602   1.737   3.068 -0.4895  1.1065 -0.3468
 5149TIP3   OH236937   6.634   4.192  13.235 -0.6516  0.1740  0.3071
 5149TIP3    H136938   6.610   4.100  13.243  1.4897 -0.5013 -0.4129
 5149TIP3    H236939   6.622   4.228  13.322  0.2952 -1.2766  1.0781
 5150TIP3   OH236940   5.229   5.163  12.838 -0.3637  0.1622  0.0301
 5150TIP3    H136941   5.188   5.136  12.756 -1.8530 -0.0655  0.8155
 5150TIP3    H236942   5.306   5.213  12.811 -0.8331  0.1095 -1.5070
 5151TIP3   OH236943   1.795   2.114  17.009  0.3987  0.0476 -0.9295
 5151TIP3    H136944   1.854   2.042  16.986  0.6265 -0.8681  2.0219
 5151TIP3    H236945   1.711   2.072  17.026  0.4602  0.4488  0.5383
 5152TIP3   OH236946   5.544   0.408   4.408 -0.3042  0.3778 -0.5273
 5152TIP3    H136947   5.560   0.347   4.480 -0.0474 -0.3620 -1.1969
 5152TIP3    H236948   5.475   0.367   4.356 -1.6869  1.6945  0.1855
 5153TIP3   OH236949   6.729   3.081   2.944 -0.2422  0.1202 -0.0235
 5153TIP3    H136950   6.634   3.084   2.932 -0.5087 -0.7090  1.5626
 5153TIP3    H236951   6.753   3.167   2.977 -0.7062 -0.1250  1.0117
 5154TIP3   OH236952   0.520   1.692   1.242  0.4458 -0.2255  0.2441
 5154TIP3    H136953   0.551   1.741   1.167  0.7223 -0.7206  0.0298
 5154TIP3    H236954   0.436   1.655   1.214  0.3219 -0.0265  0.3455
 5155TIP3   OH236955   6.167   5.011  15.885  0.4107  0.4770 -0.5458
 5155TIP3    H136956   6.097   5.067  15.854 -0.0556 -0.5917 -1.4931
 5155TIP3    H236957   6.125   4.927  15.903  1.2965  0.0588 -0.3288
 5156TIP3   OH236958   4.856   1.324   4.772 -0.5573 -0.2434 -0.5516
 5156TIP3    H136959   4.794   1.288   4.836 -0.9880  1.5123  0.0832
 5156TIP3    H236960   4.931   1.352   4.825 -1.1989  1.8501 -0.6420
 5157TIP3   OH236961   5.133   0.170   1.241 -0.3655 -0.8283  0.2276
 5157TIP3    H136962   5.149   0.225   1.318 -0.8058  0.2540 -0.4314
 5157TIP3    H236963   5.039   0.178   1.225 -0.5534 -2.3067  0.4910
 5158TIP3   OH236964   4.178   1.010   1.355 -0.2354 -0.0633 -0.3004
 5158TIP3    H136965   4.137   1.088   1.391  0.0270  1.1185 -2.3752
 5158TIP3    H236966   4.131   0.993   1.274 -0.1217 -1.9475 -0.0293
 5159TIP3   OH236967   2.728   2.691   1.793 -0.2925  0.6097 -0.6456
 5159TIP3    H136968   2.814   2.721   1.822 -0.6788  1.3618 -0.2614
 5159TIP3    H236969   2.726   2.598   1.817  0.9413  0.2226 -1.9069
 5160TIP3   OH236970   2.863   3.905   5.168  0.5270 -0.8571 -0.5666
 5160TIP3    H136971   2.803   3.881   5.098  0.4755  0.1149 -0.8675
 5160TIP3    H236972   2.921   3.971   5.129  0.6063 -0.4345  0.2478
 5161TIP3   OH236973   2.575   0.935   0.011  0.2629 -0.1443 -1.0502
 5161TIP3    H136974   2.613   1.006  -0.040 -0.2993  0.9927  0.0419
 5161TIP3    H236975   2.644   0.911   0.073  0.0985  0.1682 -0.7425
 5162TIP3   OH236976   4.455   1.659   3.735 -0.2668  0.3888 -0.4492
 5162TIP3    H136977   4.367   1.670   3.773 -0.2496 -0.8387 -0.0260
 5162TIP3    H236978   4.484   1.749   3.717 -0.2280  1.0922  2.5804
 5163TIP3   OH236979   5.005   5.424   0.074 -0.1157  0.0866 -0.9486
 5163TIP3    H136980   5.061   5.354   0.109 -0.3701  0.8451  1.1635
 5163TIP3    H236981   5.065   5.494   0.051 -0.0664  0.3727  0.0047
 5164TIP3   OH236982   1.899   4.323  10.990 -0.3730  0.5351  0.5015
 5164TIP3    H136983   1.966   4.256  11.003 -0.5545  0.1237 -0.5989
 5164TIP3    H236984   1.871   4.312  10.899  0.6124  3.0401 -0.1785
 5165TIP3   OH236985   4.333   0.485   3.270 -0.6162  0.2427  0.5833
 5165TIP3    H136986   4.248   0.464   3.308 -0.8516  1.0662  0.5331
 5165TIP3    H236987   4.318   0.566   3.222 -0.1861 -0.4686 -0.7920
 5166TIP3   OH236988   0.072   1.541   2.416 -0.2395  0.2930  0.2116
 5166TIP3    H136989   0.126   1.462   2.407 -0.9318 -0.3290  1.2959
 5166TIP3    H236990   0.126   1.611   2.380  0.7290 -0.5339 -0.0035
 5167TIP3   OH236991   1.223   3.595  16.833 -0.4477 -0.5698 -0.7495
 5167TIP3    H136992   1.187   3.532  16.896  0.4135 -0.6422 -0.3161
 5167TIP3    H236993   1.178   3.677  16.853 -1.0294 -0.8619 -0.8221
 5168TIP3   OH236994   5.616   2.800  14.097  0.2299 -0.3790  0.1662
 5168TIP3    H136995   5.557   2.760  14.033  2.0931  1.4973 -2.9882
 5168TIP3    H236996   5.670   2.727  14.129 -0.6891 -1.3657 -0.4809
 5169TIP3   OH236997   6.359   3.830  13.185 -0.0618 -0.4042  0.2919
 5169TIP3    H136998   6.384   3.812  13.094 -0.5457 -1.2355  0.3217
 5169TIP3    H236999   6.328   3.746  13.219  0.5377 -0.2058  1.3665
 5170TIP3   OH237000   1.249   1.115  10.757  0.1175  0.0527 -0.2488
 5170TIP3    H137001   1.195   1.092  10.681 -0.6252  2.2214 -0.4429
 5170TIP3    H237002   1.210   1.067  10.830 -1.1558  0.4145 -0.6708
 5171TIP3   OH237003   0.804   2.209  14.720  0.0868 -0.0552 -0.3602
 5171TIP3    H137004   0.727   2.264  14.734  0.5339 -0.0281  2.8684
 5171TIP3    H237005   0.771   2.132  14.674 -2.5120 -1.1810  2.9611
 5172TIP3   OH237006   3.741   6.289  13.062 -0.5190  0.0621 -0.4741
 5172TIP3    H137007   3.691   6.358  13.018 -0.1216 -0.1569 -1.3094
 5172TIP3    H237008   3.813   6.335  13.105 -2.0817  0.5234  1.7906
 5173TIP3   OH237009   0.746   0.849  14.795 -0.0340  0.3984  0.0502
 5173TIP3    H137010   0.792   0.907  14.856  1.6168 -0.2592 -0.4827
 5173TIP3    H237011   0.736   0.901  14.716 -1.5614  1.0263  0.6324
 5174TIP3   OH237012   5.110   5.529   6.191  0.5382  0.1589  0.6253
 5174TIP3    H137013   5.090   5.454   6.135 -0.7490  0.4340  0.6840
 5174TIP3    H237014   5.190   5.504   6.238  1.0608 -0.4824 -0.5822
 5175TIP3   OH237015   6.793   3.542   1.837 -0.3914  0.3440  0.2233
 5175TIP3    H137016   6.754   3.567   1.752  0.8543 -0.9859 -0.7897
 5175TIP3    H237017   6.719   3.509   1.888 -1.1880  1.2841 -0.2872
 5176TIP3   OH237018   0.542   0.920   6.294  0.2362  0.4218  0.0748
 5176TIP3    H137019   0.477   0.987   6.273 -0.5400 -0.5910 -0.9330
 5176TIP3    H237020   0.505   0.873   6.369 -0.4957 -0.4821 -0.8157
 5177TIP3   OH237021   5.937   1.742  15.402  0.5999  0.3630  0.5455
 5177TIP3    H137022   5.881   1.698  15.466  1.2069 -0.6590  0.3994
 5177TIP3    H237023   6.017   1.690  15.401 -0.9507 -2.6354 -4.3094
 5178TIP3   OH237024   1.438   5.312   4.473 -0.0236  0.0543  0.3570
 5178TIP3    H137025   1.475   5.364   4.402  1.1684 -1.4847 -0.2135
 5178TIP3    H237026   1.509   5.252   4.499 -1.3371 -1.3409  0.8996
 5179TIP3   OH237027   0.668   0.048   5.474  0.7116  0.0484  0.3347
 5179TIP3    H137028   0.652   0.046   5.569  0.4263 -0.8553  0.2793
 5179TIP3    H237029   0.759   0.075   5.465  1.5212 -2.2458  0.9825
 5180TIP3   OH237030   5.105   1.560   4.367  0.4552  0.1668  0.1424
 5180TIP3    H137031   5.110   1.624   4.297  0.2496  0.5005  0.4316
 5180TIP3    H237032   5.127   1.476   4.325  1.0773  0.4771 -0.1588
 5181TIP3   OH237033   0.516   0.624   9.951  0.3698 -0.4529  0.2672
 5181TIP3    H137034   0.441   0.636  10.009  2.4411  0.6054  2.9781
 5181TIP3    H237035   0.559   0.545   9.985  2.0230  0.5910  0.7335
 5182TIP3   OH237036   6.289   1.398  16.721  0.2082  0.1351 -0.4053
 5182TIP3    H137037   6.271   1.424  16.630  2.7422 -0.3641 -1.1502
 5182TIP3    H237038   6.351   1.325  16.712  1.2085  0.6519  1.7170
 5183TIP3   OH237039   3.754   5.443  13.328  0.2804 -0.4019 -0.0382
 5183TIP3    H137040   3.816   5.370  13.319  0.0606 -0.5471 -0.4179
 5183TIP3    H237041   3.704   5.441  13.246  0.4986  0.3856 -0.1951
 5184TIP3   OH237042   3.250   2.237  16.077  0.0319  0.1551  0.4855
 5184TIP3    H137043   3.307   2.313  16.072 -0.1049  0.2237 -0.1759
 5184TIP3    H237044   3.237   2.211  15.986 -0.2564 -0.4090  0.6816
 5185TIP3   OH237045   3.370   4.985  14.448 -0.2861 -0.7454 -0.4338
 5185TIP3    H137046   3.362   4.985  14.353  0.7224  2.3008 -0.6082
 5185TIP3    H237047   3.438   4.919  14.466 -1.3659 -2.2595 -1.6529
 5186TIP3   OH237048   3.765   2.200   1.568  0.3275  0.1305 -0.5853
 5186TIP3    H137049   3.693   2.197   1.506  0.7248  1.6262 -1.1584
 5186TIP3    H237050   3.758   2.118   1.617 -1.2245 -0.1413 -1.2105
 5187TIP3   OH237051   4.073   5.151   1.068  0.4154  0.4001 -0.0403
 5187TIP3    H137052   4.008   5.125   1.132  1.3663 -0.2104  0.7063
 5187TIP3    H237053   4.157   5.138   1.112  1.0675  0.6333 -1.1688
 5188TIP3   OH237054   4.788   1.427  17.138 -0.2205  0.0223 -0.0210
 5188TIP3    H137055   4.863   1.415  17.196  0.0659  0.6039 -0.2571
 5188TIP3    H237056   4.785   1.521  17.123 -1.1832  0.0354  0.2182
 5189TIP3   OH237057   3.564   1.882  17.089  0.3699  0.4694  0.4353
 5189TIP3    H137058   3.575   1.792  17.057  1.6272  0.7909 -0.0826
 5189TIP3    H237059   3.530   1.930  17.013 -0.0885  0.4862  0.6472
 5190TIP3   OH237060   6.786   5.814   0.949  0.4951  0.0294  0.0854
 5190TIP3    H137061   6.728   5.825   0.874 -1.1165 -1.0060  1.1074
 5190TIP3    H237062   6.867   5.777   0.912 -0.7385 -1.7274 -1.0259
 5191TIP3   OH237063   1.930   2.867  14.698 -0.4133  0.0993 -0.1284
 5191TIP3    H137064   2.015   2.892  14.735 -0.1121 -0.3503 -0.5065
 5191TIP3    H237065   1.942   2.874  14.603 -0.6718 -0.3546 -0.1962
 5192TIP3   OH237066   5.590   5.158  15.305 -0.0353  0.2376 -0.2675
 5192TIP3    H137067   5.623   5.137  15.393  0.3403 -1.7024 -0.8272
 5192TIP3    H237068   5.513   5.103  15.295 -1.1743  1.8220 -0.4885
 5193TIP3   OH237069   4.795   5.222  11.450  0.4171 -0.0369  0.1227
 5193TIP3    H137070   4.741   5.176  11.386 -0.3952 -1.3297  1.6557
 5193TIP3    H237071   4.852   5.155  11.488  0.2796  0.4900  1.3326
 5194TIP3   OH237072   1.930   6.282  15.976 -0.1694  0.0414  0.6658
 5194TIP3    H137073   1.931   6.296  16.071  0.3161 -0.0646  0.6807
 5194TIP3    H237074   2.020   6.300  15.949 -0.5267  0.9959  0.0840
 5195TIP3   OH237075   2.312   6.435   1.158  0.4162 -0.2220 -0.3461
 5195TIP3    H137076   2.295   6.346   1.126  1.3766 -0.3751 -0.4636
 5195TIP3    H237077   2.262   6.441   1.239 -0.1292 -0.6665 -0.6432
 5196TIP3   OH237078   2.272   1.473  14.954  0.2774  0.2315  0.5150
 5196TIP3    H137079   2.197   1.523  14.921 -1.7042 -1.7521  1.7296
 5196TIP3    H237080   2.280   1.498  15.046  1.4697  0.7986  0.2769
 5197TIP3   OH237081   6.127   4.922   3.393 -0.3817 -0.1647 -0.2159
 5197TIP3    H137082   6.184   4.845   3.394  0.3775  0.2731 -2.7865
 5197TIP3    H237083   6.136   4.959   3.481  4.1728  0.4231 -0.7033
 5198TIP3   OH237084   3.584   3.426   5.993 -0.9453  0.0636 -0.7676
 5198TIP3    H137085   3.672   3.405   6.023 -1.2513  0.4577  0.4465
 5198TIP3    H237086   3.533   3.437   6.073 -2.2904 -0.9452 -1.4394
 5199TIP3   OH237087   4.031   3.426  12.199  0.5757 -0.6412  0.1070
 5199TIP3    H137088   3.960   3.490  12.190  2.3762  1.5812  0.6791
 5199TIP3    H237089   4.092   3.449  12.129  0.6486 -2.6860 -0.5554
 5200TIP3   OH237090   3.984   2.035   2.801  0.1514 -0.8785  0.2552
 5200TIP3    H137091   3.981   2.021   2.707 -1.3957  0.8918 -0.0157
 5200TIP3    H237092   4.025   2.121   2.812 -0.6546 -0.5862  1.1260
 5201TIP3   OH237093   4.189   6.380   5.899  0.2978 -0.0145  0.9002
 5201TIP3    H137094   4.236   6.462   5.885 -1.0057  0.9928  2.1131
 5201TIP3    H237095   4.207   6.329   5.821  4.1441 -0.1256  1.6479
 5202TIP3   OH237096   5.688   2.632   5.587 -0.3544 -0.0621  0.4819
 5202TIP3    H137097   5.688   2.648   5.682 -0.2537  2.4637  0.1460
 5202TIP3    H237098   5.609   2.676   5.556 -0.7977 -1.5406 -0.5455
 5203TIP3   OH237099   6.431   2.910   6.738  0.1337 -0.4417  0.4973
 5203TIP3    H137100   6.436   2.890   6.831 -0.3485  0.4626  0.7264
 5203TIP3    H237101   6.345   2.949   6.726 -0.1513 -1.3136 -0.4938
 5204TIP3   OH237102   4.309   0.206  11.786 -0.2951 -0.2902  0.0217
 5204TIP3    H137103   4.332   0.210  11.693  0.8935  0.4884  0.3242
 5204TIP3    H237104   4.361   0.275  11.826 -2.1031  0.5494  1.0184
 5205TIP3   OH237105   2.111   2.011  14.255  0.2765 -0.1342 -0.1670
 5205TIP3    H137106   2.134   2.053  14.338 -1.6361  1.3847 -0.3361
 5205TIP3    H237107   2.173   2.047  14.192  3.1905 -2.9189  0.8501
 5206TIP3   OH237108   1.358   5.154  10.879 -0.6499 -0.4079 -0.0054
 5206TIP3    H137109   1.399   5.150  10.793 -0.5378 -0.7887  0.0643
 5206TIP3    H237110   1.330   5.245  10.888  1.3252  0.1992  0.4638
 5207TIP3   OH237111   6.451   2.051   0.985  0.3777 -0.5318 -0.4120
 5207TIP3    H137112   6.469   1.957   0.977 -0.0677 -0.6039 -0.5749
 5207TIP3    H237113   6.506   2.079   1.058  1.3993 -0.6832 -1.1041
 5208TIP3   OH237114   5.154   6.395   2.792  0.1156 -0.1622  0.7970
 5208TIP3    H137115   5.101   6.408   2.714  0.8700 -1.0887  0.1073
 5208TIP3    H237116   5.099   6.427   2.864 -0.0507  1.9822 -0.2304
 5209TIP3   OH237117   0.255   4.616   1.621 -0.0916  0.1815 -0.4992
 5209TIP3    H137118   0.282   4.621   1.713  0.3777  0.9566 -0.6779
 5209TIP3    H237119   0.164   4.646   1.621 -0.5014 -0.9850 -0.1224
 5210TIP3   OH237120   2.671   4.551   5.457  0.1236  0.4136 -0.4605
 5210TIP3    H137121   2.640   4.520   5.372 -1.0637 -3.2912  1.1285
 5210TIP3    H237122   2.593   4.586   5.500 -0.0042 -0.6305  0.2042
 5211TIP3   OH237123   5.417   1.817  12.425 -0.0432  0.2273  0.2442
 5211TIP3    H137124   5.368   1.742  12.457  0.5367 -0.6479 -0.8227
 5211TIP3    H237125   5.382   1.892  12.473 -0.0762 -0.8269  1.9394
 5212TIP3   OH237126   0.708   4.825  16.524 -0.3597  0.2039  0.1305
 5212TIP3    H137127   0.621   4.860  16.504 -0.2967  1.3826  1.7198
 5212TIP3    H237128   0.768   4.880  16.475 -0.4205  0.4892  0.3747
 5213TIP3   OH237129   4.044   6.638  12.008 -0.1641 -0.0942  0.1948
 5213TIP3    H137130   3.949   6.653  12.003 -0.3318 -1.3650 -1.0697
 5213TIP3    H237131   4.083   6.724  11.996 -1.1505  0.3347 -0.0557
 5214TIP3   OH237132   6.526   4.010   3.465  0.3068  0.7260  0.6666
 5214TIP3    H137133   6.567   3.947   3.406 -3.0046 -1.8320  0.7968
 5214TIP3    H237134   6.514   3.963   3.547 -5.9780 -0.4017 -0.4140
 5215TIP3   OH237135   4.204   2.743  16.126 -0.0285 -0.3097 -0.1122
 5215TIP3    H137136   4.136   2.809  16.136 -0.2171 -0.6815  1.1538
 5215TIP3    H237137   4.258   2.775  16.053  0.1966  1.5071  0.8218
 5216TIP3   OH237138   6.116   2.032  14.596 -0.2524  0.8784  0.6233
 5216TIP3    H137139   6.175   1.956  14.597 -1.1177  0.1981  1.2889
 5216TIP3    H237140   6.174   2.106  14.613  0.4452  0.2424  1.1246
 5217TIP3   OH237141   6.410   4.403   0.116  0.0269 -0.1081  0.0624
 5217TIP3    H137142   6.442   4.493   0.105  1.8734 -0.8336 -1.0761
 5217TIP3    H237143   6.463   4.368   0.188 -0.2183 -0.4854  0.0594
 5218TIP3   OH237144   4.714   2.519   7.056 -0.0660 -0.0691  0.1111
 5218TIP3    H137145   4.620   2.534   7.064  0.1662  0.6412  2.1891
 5218TIP3    H237146   4.721   2.432   7.017 -1.5986 -0.7296  1.2061
 5219TIP3   OH237147   6.271   3.131  14.433 -0.3147 -0.7629 -0.1893
 5219TIP3    H137148   6.177   3.119  14.450 -0.0204 -2.2033  0.4871
 5219TIP3    H237149   6.274   3.157  14.341 -1.5277  1.7336  0.3783
 5220TIP3   OH237150   2.806   3.722   1.285  0.1592  0.1149 -0.7064
 5220TIP3    H137151   2.747   3.649   1.264  1.8612 -1.0933 -1.5578
 5220TIP3    H237152   2.831   3.758   1.200  0.0222  1.1388 -0.3210
 5221TIP3   OH237153   2.249   3.572   0.483  0.4166  0.0876  0.1156
 5221TIP3    H137154   2.165   3.538   0.453  0.0659  1.0091  0.0055
 5221TIP3    H237155   2.294   3.599   0.403  0.7024 -0.1537  0.1954
 5222TIP3   OH237156   5.377   5.731  16.063 -0.4109 -0.1288 -0.5991
 5222TIP3    H137157   5.428   5.728  15.982 -0.5503 -0.3085 -0.6814
 5222TIP3    H237158   5.432   5.780  16.124 -0.6855  0.7901 -1.0630
 5223TIP3   OH237159   6.234   4.127   6.036 -0.3185  0.3130  0.1449
 5223TIP3    H137160   6.181   4.053   6.065 -0.1509  0.5824  1.1747
 5223TIP3    H237161   6.215   4.197   6.099 -0.0786  0.9831 -0.5045
 5224TIP3   OH237162   5.530   0.005   2.162  0.2865 -0.0196 -0.2883
 5224TIP3    H137163   5.517   0.093   2.127  0.6474 -0.2986 -1.1600
 5224TIP3    H237164   5.455  -0.045   2.131  0.5659 -0.2502 -0.5956
 5225TIP3   OH237165   6.528   1.791   1.540  0.0943  0.3251 -0.3512
 5225TIP3    H137166   6.473   1.795   1.462 -1.0389  1.6675  0.4710
 5225TIP3    H237167   6.523   1.700   1.568  0.5084 -0.1771 -1.8102
 5226TIP3   OH237168   0.118   3.046   2.089 -0.5994  0.8866 -0.3795
 5226TIP3    H137169   0.050   2.980   2.106 -0.7676  0.4656 -2.3750
 5226TIP3    H237170   0.182   3.033   2.159 -0.9668 -0.9605 -0.3177
 5227TIP3   OH237171   4.287   0.096   2.357  0.3571  0.4102 -0.4522
 5227TIP3    H137172   4.256   0.030   2.295 -1.0444  0.9596 -0.3939
 5227TIP3    H237173   4.315   0.169   2.303 -2.1713  1.4565 -0.5270
 5228TIP3   OH237174   3.545   6.029  13.406 -0.0155  0.2173 -0.1230
 5228TIP3    H137175   3.478   5.962  13.414 -0.8808  1.2214  1.7051
 5228TIP3    H237176   3.604   6.013  13.480 -0.8751  2.0924  1.0359
 5229TIP3   OH237177   0.488   4.329   4.281 -0.2714  0.1759  0.3874
 5229TIP3    H137178   0.568   4.377   4.301  1.0397 -1.5915 -0.3469
 5229TIP3    H237179   0.473   4.345   4.188 -0.5315  0.1716  0.4282
 5230TIP3   OH237180   2.067   6.172   6.080 -0.2107  0.1829  0.0700
 5230TIP3    H137181   2.131   6.240   6.057 -0.2313 -0.1536 -1.0053
 5230TIP3    H237182   2.046   6.190   6.172 -0.0523  1.5029 -0.1263
 5231TIP3   OH237183   1.687   4.275  11.683  0.2886 -0.4384  0.5693
 5231TIP3    H137184   1.639   4.333  11.623  0.0475  1.5429  2.5350
 5231TIP3    H237185   1.619   4.226  11.728  0.1831  0.8243  1.8441
 5232TIP3   OH237186   1.133   3.337  13.382  0.1241  0.1256 -0.0300
 5232TIP3    H137187   1.066   3.360  13.446 -0.3014  2.1889 -1.1150
 5232TIP3    H237188   1.186   3.271  13.425 -0.9912  0.4103  1.8866
 5233TIP3   OH237189   5.206   4.444   2.044 -0.2470 -0.5192  0.8622
 5233TIP3    H137190   5.209   4.375   2.111  0.5996  1.4874  3.0538
 5233TIP3    H237191   5.286   4.495   2.059  0.2185 -0.2455 -2.0622
 5234TIP3   OH237192   2.904   1.216  16.955 -0.3143 -0.1236 -0.0074
 5234TIP3    H137193   2.814   1.220  16.921 -0.6162  0.4195  0.8259
 5234TIP3    H237194   2.959   1.242  16.881 -1.1044  3.5024  0.4974
 5235TIP3   OH237195   2.279   5.802   1.577 -0.4497  0.0441  0.3393
 5235TIP3    H137196   2.371   5.779   1.564 -0.2165  2.2661 -3.0004
 5235TIP3    H237197   2.278   5.851   1.660  1.0887 -1.0791  1.0810
 5236TIP3   OH237198   0.806   3.380   2.379 -0.2860  0.0244  0.7069
 5236TIP3    H137199   0.807   3.458   2.324  1.9353 -0.9065 -0.7175
 5236TIP3    H237200   0.755   3.406   2.456  0.1809  2.7984  0.1912
 5237TIP3   OH237201   3.678   4.214   3.771 -0.1452 -0.2681 -0.0005
 5237TIP3    H137202   3.714   4.301   3.787  0.1106 -0.4548  0.4432
 5237TIP3    H237203   3.694   4.198   3.677  0.0926  0.0320 -0.0110
 5238TIP3   OH237204   4.310   3.901   1.698 -0.4210  0.1136 -0.2087
 5238TIP3    H137205   4.356   3.826   1.734  0.6521  0.7511 -0.1927
 5238TIP3    H237206   4.342   3.908   1.608 -0.9308  0.2306 -0.3868
 5239TIP3   OH237207   5.070   6.805   5.361 -0.0210 -0.4680  0.1991
 5239TIP3    H137208   4.998   6.864   5.381 -0.4831 -0.5146 -1.1798
 5239TIP3    H237209   5.147   6.845   5.401 -0.6438  0.1227  0.8036
 5240TIP3   OH237210   1.958   1.805   5.391 -0.0842 -0.2580  0.2048
 5240TIP3    H137211   1.877   1.774   5.352  0.2511 -0.2260 -0.5426
 5240TIP3    H237212   2.027   1.770   5.333  0.3267  1.5909 -0.4903
 5241TIP3   OH237213   6.677   0.576  10.837  0.1420 -0.3627  0.3816
 5241TIP3    H137214   6.696   0.482  10.843 -1.8780 -1.0057 -1.7963
 5241TIP3    H237215   6.758   0.614  10.804  0.3197 -1.7146 -0.8509
 5242TIP3   OH237216   5.983   5.228  12.407 -0.7908 -0.0388 -0.4858
 5242TIP3    H137217   5.964   5.302  12.465  0.4928  0.6595 -0.9051
 5242TIP3    H237218   5.978   5.151  12.463  3.4085  0.8191  1.4232
 5243TIP3   OH237219   6.231   6.100   6.136 -0.1209  0.2351 -0.3266
 5243TIP3    H137220   6.174   6.136   6.204 -0.2741  0.6535 -0.6748
 5243TIP3    H237221   6.260   6.176   6.085 -3.2843 -0.3208 -3.3161
 5244TIP3   OH237222   4.453   6.611  16.199  0.7085  0.0394 -0.6771
 5244TIP3    H137223   4.404   6.691  16.179 -0.5933 -0.8177 -1.0587
 5244TIP3    H237224   4.394   6.561  16.255  2.0068 -0.1315  0.5811
 5245TIP3   OH237225   5.717   4.883  17.117 -0.4720  0.2016  0.2270
 5245TIP3    H137226   5.741   4.823  17.046 -0.2939  0.3049  0.2016
 5245TIP3    H237227   5.656   4.945  17.076 -0.1408  0.4420  0.0884
 5246TIP3   OH237228   4.849   5.719  16.547  1.0547  0.1946 -1.0393
 5246TIP3    H137229   4.899   5.638  16.549  2.0975  0.8236 -0.8986
 5246TIP3    H237230   4.903   5.782  16.595 -0.7002  0.4478  0.7939
 5247TIP3   OH237231   6.582   0.447  15.549 -0.5522 -0.2863 -0.7081
 5247TIP3    H137232   6.670   0.427  15.517 -0.3310 -1.3509  0.4864
 5247TIP3    H237233   6.569   0.539  15.527  1.6026  0.4306  0.7159
 5248TIP3   OH237234   0.085   1.924   0.729  0.2083 -0.4158 -0.4104
 5248TIP3    H137235   0.028   1.868   0.677 -0.3084 -2.4603  2.1406
 5248TIP3    H237236   0.025   1.982   0.776  0.3675 -1.0352  0.5771
 5249TIP3   OH237237   6.685   2.125   5.266  0.1650 -0.6889  0.0209
 5249TIP3    H137238   6.757   2.100   5.324  1.6587 -0.7331 -1.7641
 5249TIP3    H237239   6.693   2.065   5.191 -0.7989  0.3049 -0.9034
 5250TIP3   OH237240   4.187   0.371  14.580  0.3713 -0.1066 -0.5932
 5250TIP3    H137241   4.091   0.367  14.577  0.4325 -1.2853 -1.6003
 5250TIP3    H237242   4.214   0.359  14.489  1.5087 -1.3561 -0.1224
 5251TIP3   OH237243   3.446   0.143   5.292 -0.2071  0.0922  0.0627
 5251TIP3    H137244   3.429   0.127   5.385  0.2020  0.2517  0.1666
 5251TIP3    H237245   3.466   0.236   5.287  0.6247 -0.0778 -0.0459
 5252TIP3   OH237246   3.435   0.805  12.917 -0.1325  0.0582  0.0618
 5252TIP3    H137247   3.402   0.721  12.949 -0.4832  0.2082  0.1022
 5252TIP3    H237248   3.529   0.803  12.935 -0.2355 -0.0881  0.5849
 5253TIP3   OH237249   6.449   0.468  10.988  0.4498  0.4345  0.1727
 5253TIP3    H137250   6.453   0.494  10.896  2.1360  0.9337  0.3453
 5253TIP3    H237251   6.527   0.415  11.001  0.6847  1.0494  1.4976
 5254TIP3   OH237252   4.356   2.105  16.808 -0.2121 -0.5720 -0.7689
 5254TIP3    H137253   4.419   2.176  16.824 -1.4505  0.3483  0.1835
 5254TIP3    H237254   4.368   2.083  16.716  1.1664 -0.0948 -0.7300
 5255TIP3   OH237255   6.552   3.194  11.265  0.3349 -0.3397 -0.4303
 5255TIP3    H137256   6.484   3.129  11.283  0.4087 -0.5200 -0.7966
 5255TIP3    H237257   6.503   3.272  11.236  0.1815  0.1381  1.0394
 5256TIP3   OH237258   0.639   4.458  13.113 -0.0954 -0.0963 -0.2103
 5256TIP3    H137259   0.560   4.427  13.157 -0.4077 -1.2082 -1.4609
 5256TIP3    H237260   0.702   4.386  13.122  0.8212  0.8116  0.8419
 5257TIP3   OH237261   6.767   0.189   3.234 -0.2794  0.0005  0.4224
 5257TIP3    H137262   6.789   0.188   3.327  0.7137  1.9819  0.2639
 5257TIP3    H237263   6.756   0.282   3.213 -0.5037 -0.4091 -1.4367
 5258TIP3   OH237264   2.255   5.611   4.145  0.3853  0.2330 -0.1495
 5258TIP3    H137265   2.225   5.534   4.192 -0.0136  0.4034 -0.1253
 5258TIP3    H237266   2.331   5.642   4.195 -1.4526  1.8253  1.8231
 5259TIP3   OH237267   6.515   6.212   1.092 -0.2833 -0.0143 -0.4212
 5259TIP3    H137268   6.557   6.140   1.139 -0.3019  0.5173  0.4306
 5259TIP3    H237269   6.503   6.280   1.158 -0.2797  0.7692 -1.2062
 5260TIP3   OH237270   4.353   5.885  13.228 -0.3446  0.0010 -0.6043
 5260TIP3    H137271   4.322   5.852  13.144  0.9421 -1.3561 -0.5824
 5260TIP3    H237272   4.409   5.816  13.262 -1.1369  0.3369  1.5786
 5261TIP3   OH237273   3.243   4.140  14.358  0.1218  0.2901 -0.0900
 5261TIP3    H137274   3.313   4.107  14.414  0.1414  0.7342  0.1492
 5261TIP3    H237275   3.162   4.123  14.407  0.0453 -0.3002 -0.4034
 5262TIP3   OH237276   2.207   4.563  12.330  0.5431  0.0835  1.1416
 5262TIP3    H137277   2.183   4.614  12.253 -1.6031 -2.3338  0.0446
 5262TIP3    H237278   2.156   4.600  12.401 -0.4715 -0.0608  0.5080
 5263TIP3   OH237279   4.491   4.124  13.572  0.2803  0.0349 -0.2991
 5263TIP3    H137280   4.527   4.051  13.623 -0.6372 -0.2527 -0.0365
 5263TIP3    H237281   4.418   4.085  13.524  1.1443  0.2898 -1.8978
 5264TIP3   OH237282   5.726   4.065   6.107 -0.1655 -0.4570  0.5291
 5264TIP3    H137283   5.806   4.084   6.156 -0.8401  0.8219  1.1926
 5264TIP3    H237284   5.672   4.144   6.119 -1.1033 -0.8795 -0.7453
 5265TIP3   OH237285   6.305   1.822   4.571  0.1955 -0.2215  0.2024
 5265TIP3    H137286   6.242   1.894   4.573  1.2248  0.7109  1.2057
 5265TIP3    H237287   6.279   1.766   4.644  0.8307  0.4830  1.0037
 5266TIP3   OH237288   3.580   0.667  14.583  0.2054 -0.1164  0.3444
 5266TIP3    H137289   3.569   0.587  14.634  0.0309  1.1725  2.4535
 5266TIP3    H237290   3.630   0.726  14.640  0.8006  1.1103 -1.3430
 5267TIP3   OH237291   2.857   4.615  12.981  0.0737  0.5706 -0.3242
 5267TIP3    H137292   2.821   4.698  13.012 -0.3991  0.0240  0.6132
 5267TIP3    H237293   2.877   4.566  13.061 -0.4297 -0.5507 -0.8737
 5268TIP3   OH237294   5.568   1.603   2.362 -0.3297  0.3029  0.1714
 5268TIP3    H137295   5.523   1.665   2.419 -0.9960  1.8343 -1.9120
 5268TIP3    H237296   5.651   1.585   2.407 -1.3591  0.3910  2.2214
 5269TIP3   OH237297   0.613   0.234   2.331  0.1994  0.5395  0.6969
 5269TIP3    H137298   0.541   0.235   2.269  1.0004  1.3163 -0.2431
 5269TIP3    H237299   0.673   0.303   2.301  1.6327 -0.4759  1.0900
 5270TIP3   OH237300   4.810   0.601   5.749  0.3682  0.0481 -0.3461
 5270TIP3    H137301   4.793   0.530   5.686  1.1708 -0.1831 -0.3075
 5270TIP3    H237302   4.749   0.584   5.821  0.5611 -0.6173 -0.3330
 5271TIP3   OH237303   4.013   3.446  15.600 -0.2217  0.3335 -0.5534
 5271TIP3    H137304   3.944   3.396  15.556  0.3071 -0.5361 -0.4241
 5271TIP3    H237305   4.042   3.510  15.535 -0.2118 -0.1989 -1.0811
 5272TIP3   OH237306   2.110   4.335  10.771 -0.0610  0.3432 -0.2715
 5272TIP3    H137307   2.019   4.327  10.743 -0.5152 -0.5439  1.3747
 5272TIP3    H237308   2.152   4.256  10.737 -0.2464  0.0462  0.1814
 5273TIP3   OH237309   2.676   3.096   6.446  0.3048  0.2093 -0.3100
 5273TIP3    H137310   2.617   3.162   6.483 -1.1126 -1.6339  0.8571
 5273TIP3    H237311   2.618   3.026   6.416  1.8169 -1.0026 -0.5096
 5274TIP3   OH237312   0.426   3.217   1.510  0.1957 -0.2172 -0.5624
 5274TIP3    H137313   0.367   3.251   1.578  0.0256  2.3282 -1.8660
 5274TIP3    H237314   0.375   3.147   1.468 -1.0363  0.4398 -0.2279
 5275TIP3   OH237315   4.313   4.757   5.221 -0.1598  0.2150  0.1526
 5275TIP3    H137316   4.281   4.751   5.131  1.6338 -1.3067 -0.4310
 5275TIP3    H237317   4.339   4.668   5.244  1.5804  0.9678  1.3232
 5276TIP3   OH237318   5.554   4.252   6.386  0.4029 -0.2413 -0.2652
 5276TIP3    H137319   5.646   4.268   6.405  0.4004  2.7916 -2.1711
 5276TIP3    H237320   5.548   4.255   6.291 -1.7932  0.5666 -0.1551
 5277TIP3   OH237321   1.794   6.038   2.002  0.5802 -0.0498  0.7320
 5277TIP3    H137322   1.790   5.972   2.070  0.9381 -3.3425 -2.1375
 5277TIP3    H237323   1.886   6.036   1.972 -0.1969 -1.1844 -1.8943
 5278TIP3   OH237324   3.385   5.823  14.410 -0.2218  0.3798 -0.1505
 5278TIP3    H137325   3.316   5.865  14.461 -1.5782  2.2127 -3.2400
 5278TIP3    H237326   3.465   5.870  14.435 -0.5331  0.1725  1.3466
 5279TIP3   OH237327   2.562   0.022  15.700  0.1227  0.3043  0.3428
 5279TIP3    H137328   2.606   0.063  15.625  2.8359 -0.3124  1.4783
 5279TIP3    H237329   2.569   0.087  15.770  3.1568 -1.3334  1.7368
 5280TIP3   OH237330   1.621   1.388  15.141  0.1224 -0.1261  0.5286
 5280TIP3    H137331   1.678   1.447  15.092  0.2421 -1.1243 -0.5663
 5280TIP3    H237332   1.588   1.442  15.213  0.3132  1.2531 -0.3691
 5281TIP3   OH237333   5.162   2.213   5.321  0.2365 -0.1414 -0.4833
 5281TIP3    H137334   5.145   2.218   5.227  0.1296 -2.9525 -0.7156
 5281TIP3    H237335   5.243   2.262   5.334  0.7446 -0.4406 -2.2145
 5282TIP3   OH237336   5.652   0.579   2.358 -0.2577 -0.2143 -0.1812
 5282TIP3    H137337   5.640   0.504   2.301 -0.9044 -0.7237  0.6074
 5282TIP3    H237338   5.658   0.654   2.298  1.1168 -0.9516 -1.0087
 5283TIP3   OH237339   3.049   2.442   3.032  1.0668 -0.1307  0.4240
 5283TIP3    H137340   2.956   2.428   3.017  1.4119 -1.4275 -0.7793
 5283TIP3    H237341   3.073   2.516   2.977  1.0158 -0.7407 -0.4442
 5284TIP3   OH237342   3.578   6.389   1.881  0.9765  0.0698  0.4278
 5284TIP3    H137343   3.652   6.412   1.826  1.1994  1.3197  1.1942
 5284TIP3    H237344   3.598   6.430   1.966 -1.4663  2.2083  0.1068
 5285TIP3   OH237345   2.612   1.653  12.785 -0.0405  0.1188  0.3121
 5285TIP3    H137346   2.563   1.687  12.711 -0.5634 -1.9037 -0.3356
 5285TIP3    H237347   2.646   1.731  12.830 -1.3421  1.4447 -0.9181
 5286TIP3   OH237348   3.135   0.028  16.806  0.1161  0.4108 -0.3590
 5286TIP3    H137349   3.078   0.097  16.840  0.5873  1.2588 -1.2345
 5286TIP3    H237350   3.206   0.021  16.870 -0.6183 -0.1964  0.4040
 5287TIP3   OH237351   0.021   5.091   4.616  0.2126  0.0171 -0.3256
 5287TIP3    H137352   0.095   5.152   4.611 -0.0720  0.4143  0.1794
 5287TIP3    H237353  -0.052   5.139   4.575  0.3914 -0.6301 -1.4434
 5288TIP3   OH237354   3.777   3.898   3.725 -0.6381  0.1403  0.5125
 5288TIP3    H137355   3.720   3.937   3.659 -2.1797 -1.8672  0.5562
 5288TIP3    H237356   3.858   3.878   3.677 -1.4157 -0.4954 -0.5854
 5289TIP3   OH237357   2.117   5.733   2.897 -0.1100 -0.3609 -0.0619
 5289TIP3    H137358   2.135   5.747   2.804 -0.6965 -0.7363 -0.2334
 5289TIP3    H237359   2.034   5.778   2.913  0.3210  0.2698  0.4364
 5290TIP3   OH237360   3.678   2.357   3.537  0.0511  0.3737 -0.0176
 5290TIP3    H137361   3.671   2.262   3.541 -2.4038  0.4884 -0.0550
 5290TIP3    H237362   3.730   2.374   3.458  0.2560 -0.9197 -0.1731
 5291TIP3   OH237363   5.400   3.126  14.198 -0.6645  0.1916  0.6183
 5291TIP3    H137364   5.495   3.127  14.210 -0.3967  0.6845 -1.2438
 5291TIP3    H237365   5.383   3.048  14.146 -0.9449  1.3912 -1.1682
 5292TIP3   OH237366   3.977   1.709  16.108  0.6323 -0.0914  0.0836
 5292TIP3    H137367   3.901   1.712  16.050  0.4832 -1.5149  0.1588
 5292TIP3    H237368   3.950   1.761  16.184  0.8003  1.7237 -1.0283
 5293TIP3   OH237369   4.795   4.822   0.525  0.2586  0.0028  0.0214
 5293TIP3    H137370   4.843   4.744   0.499 -0.7709 -0.2206 -1.3428
 5293TIP3    H237371   4.863   4.884   0.552  1.1755 -0.8918 -0.1543
 5294TIP3   OH237372   2.779   2.562   0.713 -0.7465 -0.7422  0.2294
 5294TIP3    H137373   2.742   2.486   0.668  0.2147  0.0092 -1.9406
 5294TIP3    H237374   2.872   2.558   0.694 -0.4100  0.0268  1.6020
 5295TIP3   OH237375   3.222   5.999  12.511  0.7350 -0.5483  0.0494
 5295TIP3    H137376   3.221   6.000  12.607  2.0042 -0.1593  0.0784
 5295TIP3    H237377   3.179   5.917  12.487  0.2813 -0.5779  0.9434
 5296TIP3   OH237378   1.589   3.334   1.489 -0.2639 -0.1923 -0.4617
 5296TIP3    H137379   1.642   3.386   1.550 -1.0846 -0.6337  0.6648
 5296TIP3    H237380   1.654   3.290   1.433  0.4577  1.6062 -1.1267
 5297TIP3   OH237381   4.588   4.364  14.872 -0.0654  0.2131 -0.1248
 5297TIP3    H137382   4.583   4.335  14.963 -0.3100  0.9077  0.0903
 5297TIP3    H237383   4.634   4.294  14.827  0.4001  0.0386  0.6111
 5298TIP3   OH237384   5.401   2.626   1.688  0.6031 -0.4858  0.1563
 5298TIP3    H137385   5.392   2.707   1.737 -0.1440  1.0688 -2.3964
 5298TIP3    H237386   5.320   2.618   1.639  0.2825 -3.2917  0.9822
 5299TIP3   OH237387   5.648   2.047  14.752 -0.1162  0.4699  0.8597
 5299TIP3    H137388   5.693   2.117  14.800 -1.5108  1.3800  0.9068
 5299TIP3    H237389   5.586   2.093  14.695 -3.3858 -0.7129  3.1663
 5300TIP3   OH237390   3.202   5.325  13.680 -0.1913 -0.0237 -0.3825
 5300TIP3    H137391   3.160   5.360  13.601 -0.0654 -0.1865 -0.5210
 5300TIP3    H237392   3.290   5.301  13.652 -0.9310 -2.4923 -0.8427
 5301TIP3   OH237393   1.603   4.941   4.872  0.3666  0.4084 -0.9548
 5301TIP3    H137394   1.645   4.990   4.943  0.5835  0.4899 -1.1360
 5301TIP3    H237395   1.616   4.849   4.895  0.0249  0.4337 -0.6514
 5302TIP3   OH237396   0.970   4.844  14.840 -0.4229 -0.1148 -0.3041
 5302TIP3    H137397   0.936   4.755  14.831  0.3073 -0.1919 -3.1736
 5302TIP3    H237398   1.063   4.831  14.862 -0.8516  0.0431  1.8434
 5303TIP3   OH237399   2.300   3.261  14.031  0.3634 -0.0016  0.7298
 5303TIP3    H137400   2.311   3.345  14.074  0.6919  0.4731 -0.2502
 5303TIP3    H237401   2.280   3.200  14.102 -0.7895  1.0598  1.3480
 5304TIP3   OH237402   3.446   3.488  17.055  0.2237 -0.3657  0.2805
 5304TIP3    H137403   3.394   3.558  17.015  0.3512 -1.2765 -1.6200
 5304TIP3    H237404   3.385   3.414  17.061  0.3955 -0.4414  1.2097
 5305TIP3   OH237405   3.254   1.905  12.231  0.3320  0.5301  0.0273
 5305TIP3    H137406   3.257   1.886  12.137 -0.2438  1.2456 -0.1518
 5305TIP3    H237407   3.173   1.955  12.242  0.8436  1.2147  0.7642
 5306TIP3   OH237408   1.811   3.730  15.368  0.1322 -0.7803  0.5588
 5306TIP3    H137409   1.785   3.708  15.458  0.5370  1.1554  1.1859
 5306TIP3    H237410   1.844   3.820  15.373  1.0025 -0.9317 -1.3754
 5307TIP3   OH237411   2.967   1.580   4.131  0.2296  0.3727 -0.2953
 5307TIP3    H137412   2.918   1.616   4.056  0.8670 -1.4540 -1.6588
 5307TIP3    H237413   2.913   1.508   4.163  0.5772  0.3201  0.1823
 5308TIP3   OH237414   5.871   0.043  11.433  0.6266  0.3021 -0.4930
 5308TIP3    H137415   5.883  -0.052  11.432 -1.3000  0.0126 -1.4529
 5308TIP3    H237416   5.950   0.078  11.391  1.4068 -0.8468 -0.0320
 5309TIP3   OH237417   1.205   1.508  16.813  0.2230 -0.1828 -0.9625
 5309TIP3    H137418   1.244   1.431  16.772 -0.0893 -0.0740 -1.4626
 5309TIP3    H237419   1.270   1.577  16.799  1.6735 -0.8720  1.6204
 5310TIP3   OH237420   4.759   3.555   1.960  0.0956  0.5136 -0.5588
 5310TIP3    H137421   4.708   3.602   1.894 -0.4533  0.4262 -0.1959
 5310TIP3    H237422   4.770   3.467   1.924  0.1318  0.5828 -0.7148
 5311TIP3   OH237423   1.721   2.209   2.043  0.4453  0.2887  0.3681
 5311TIP3    H137424   1.700   2.159   1.963 -0.6081 -1.3299  1.5988
 5311TIP3    H237425   1.815   2.193   2.056  0.7163  0.8642 -0.7150
 5312TIP3   OH237426   4.256   2.275  12.552 -0.0147  0.2502  0.1868
 5312TIP3    H137427   4.295   2.247  12.469 -1.6737  0.0616 -0.5593
 5312TIP3    H237428   4.203   2.201  12.580 -0.5251  0.8135  0.7401
 5313TIP3   OH237429   4.732   2.143   5.182 -0.0189 -0.5849 -0.0829
 5313TIP3    H137430   4.657   2.111   5.131  1.1694 -1.2161 -1.5161
 5313TIP3    H237431   4.696   2.215   5.234 -1.9309 -1.8051  0.3839
 5314TIP3   OH237432   5.479   5.038  15.980  0.5543  0.1529  0.5553
 5314TIP3    H137433   5.574   5.043  15.979  0.8921 -2.2078  3.4758
 5314TIP3    H237434   5.451   5.112  16.034  1.0353 -0.5510  1.8278
 5315TIP3   OH237435   1.483   1.974  12.449  1.0090 -0.0306 -0.6678
 5315TIP3    H137436   1.448   2.057  12.416  0.0705 -0.7948 -1.6632
 5315TIP3    H237437   1.510   1.927  12.370  3.4539  0.1368  0.0071
 5316TIP3   OH237438   4.341   3.128   0.719  0.4315  0.6844 -0.1344
 5316TIP3    H137439   4.432   3.157   0.730  0.3522  0.9275 -0.1085
 5316TIP3    H237440   4.344   3.034   0.731  0.6147  0.7426  0.2988
 5317TIP3   OH237441   0.145   5.703  12.906 -0.5082 -0.1163  0.5329
 5317TIP3    H137442   0.190   5.718  12.823 -2.2185  0.5792 -0.3078
 5317TIP3    H237443   0.133   5.790  12.943 -1.1299 -0.2969  0.7600
 5318TIP3   OH237444   2.213   6.616  13.589 -0.3310  0.5011  0.3684
 5318TIP3    H137445   2.206   6.528  13.626 -0.0253  0.0701 -0.5628
 5318TIP3    H237446   2.238   6.671  13.663  0.2673 -0.3314  0.8077
 5319TIP3   OH237447   4.913   4.967   5.483 -0.0467 -0.4510  0.1018
 5319TIP3    H137448   4.843   4.924   5.434 -1.0989  1.8328 -0.5542
 5319TIP3    H237449   4.992   4.918   5.460 -1.0074 -1.4329 -1.3097
 5320TIP3   OH237450   1.069   1.211   0.198 -0.6291 -0.2712  0.0852
 5320TIP3    H137451   0.993   1.172   0.241 -1.1168  0.4340 -0.1344
 5320TIP3    H237452   1.143   1.180   0.251 -0.8263 -2.7238 -0.9547
 5321TIP3   OH237453   0.693   0.144  14.031  0.4831 -0.1557  0.1807
 5321TIP3    H137454   0.680   0.160  13.937  0.6015 -0.6085  0.0848
 5321TIP3    H237455   0.703   0.231  14.069 -1.2731  0.1656  0.0238
 5322TIP3   OH237456   4.636   2.652   5.452 -0.0596 -0.0042  0.1273
 5322TIP3    H137457   4.574   2.725   5.454 -0.3043 -0.1611 -1.0056
 5322TIP3    H237458   4.593   2.584   5.504  0.5437  0.9017  1.9194
 5323TIP3   OH237459   4.999   4.737   1.172  0.1329  0.2287  0.1632
 5323TIP3    H137460   4.916   4.774   1.200  0.5650  1.9874 -0.7374
 5323TIP3    H237461   5.064   4.804   1.193  1.4027 -1.1933  1.0589
 5324TIP3   OH237462   1.805   5.622   3.824  0.3548 -0.3170  0.2368
 5324TIP3    H137463   1.746   5.593   3.754 -2.0113  3.9449  0.1093
 5324TIP3    H237464   1.890   5.629   3.782 -0.6707  0.5995 -1.8191
 5325TIP3   OH237465   5.171   0.199   3.848  0.3127  0.2048 -0.6027
 5325TIP3    H137466   5.133   0.265   3.791  0.8401 -1.2618 -2.7760
 5325TIP3    H237467   5.107   0.128   3.850 -0.9353  1.2361  2.9050
 5326TIP3   OH237468   6.331   1.796  13.328  0.5021  0.1665 -0.1244
 5326TIP3    H137469   6.335   1.857  13.255  2.3222 -0.9559 -1.0202
 5326TIP3    H237470   6.422   1.771  13.345 -0.1990 -3.4109 -0.8102
 5327TIP3   OH237471   5.845   6.696  16.783 -0.0385  0.0485 -0.1885
 5327TIP3    H137472   5.876   6.624  16.728 -0.0272 -0.0084 -0.1096
 5327TIP3    H237473   5.784   6.654  16.844 -0.6455  0.2368 -0.6507
 5328TIP3   OH237474   3.973   6.379   5.235 -0.2711  0.4579 -0.7626
 5328TIP3    H137475   3.918   6.457   5.228 -2.8773 -1.1930  0.0567
 5328TIP3    H237476   4.004   6.379   5.326 -1.7689 -0.3724 -0.2350
 5329TIP3   OH237477   1.021   4.232   5.323  0.6577  0.4223  0.3215
 5329TIP3    H137478   0.935   4.255   5.289 -0.3112  0.4326  2.5975
 5329TIP3    H237479   1.053   4.164   5.264 -0.3079  1.3076 -1.3062
 5330TIP3   OH237480   6.681   2.954  11.908 -0.5393 -0.2707 -0.2012
 5330TIP3    H137481   6.667   3.036  11.955 -0.6145  0.3941 -1.3473
 5330TIP3    H237482   6.688   2.980  11.816 -1.4364 -1.6346 -0.6900
 5331TIP3   OH237483   3.769   4.417   4.076  0.4216 -0.6997  0.3190
 5331TIP3    H137484   3.854   4.448   4.044  0.2872  0.2941  0.8892
 5331TIP3    H237485   3.791   4.366   4.154  0.4338  0.5931  1.1980
 5332TIP3   OH237486   6.319   6.056  16.517 -0.1442  0.1610  0.0577
 5332TIP3    H137487   6.278   6.092  16.596 -0.2965  1.5720 -0.6224
 5332TIP3    H237488   6.374   6.128  16.485  3.0043 -1.6624  0.9783
 5333TIP3   OH237489   6.748   1.548  14.706  0.4850 -0.0236 -0.3196
 5333TIP3    H137490   6.758   1.470  14.761 -0.4458 -0.7194 -1.0934
 5333TIP3    H237491   6.821   1.544  14.645  2.4980  1.6294  1.7982
 5334TIP3   OH237492   2.207   3.843   0.509  0.2275 -0.4937  0.3051
 5334TIP3    H137493   2.141   3.815   0.572  0.3754 -0.3733  0.5129
 5334TIP3    H237494   2.254   3.763   0.485 -1.1517 -0.9087 -1.2038
 5335TIP3   OH237495   3.969   4.835   0.927 -0.1244  0.6684  0.0107
 5335TIP3    H137496   3.909   4.762   0.941 -1.2405  1.8720  1.9703
 5335TIP3    H237497   3.973   4.846   0.832 -1.9786 -0.2698 -0.2163
 5336TIP3   OH237498   0.685   1.767   1.546 -0.2532 -0.5190  0.0637
 5336TIP3    H137499   0.760   1.826   1.547 -0.6298 -0.0243  1.3846
 5336TIP3    H237500   0.614   1.819   1.509 -0.5919 -0.0938  1.2518
 5337TIP3   OH237501   3.650   5.564  17.112 -0.4647 -0.0707  0.1739
 5337TIP3    H137502   3.687   5.629  17.172  0.6728  0.0452 -0.6213
 5337TIP3    H237503   3.571   5.605  17.077  0.2062  0.8742 -0.2717
 5338TIP3   OH237504   5.016   4.884   3.365  1.0020  0.1253 -0.7188
 5338TIP3    H137505   4.941   4.912   3.313  0.6432  1.9079  0.6557
 5338TIP3    H237506   5.052   4.965   3.401 -0.4020 -1.0058  3.9708
 5339TIP3   OH237507   2.468   6.775  12.013 -0.3424 -0.4629 -0.2879
 5339TIP3    H137508   2.528   6.780  11.939  0.6470  2.1187  0.5770
 5339TIP3    H237509   2.458   6.681  12.029 -1.8621 -1.2394 -4.5624
 5340TIP3   OH237510   4.326   4.499  13.498 -0.4233 -0.1384 -0.0577
 5340TIP3    H137511   4.315   4.561  13.571 -1.3563  1.4757 -1.4982
 5340TIP3    H237512   4.264   4.429  13.517 -1.2854  0.6959  0.3009
 5341TIP3   OH237513   3.595   0.059  16.305 -0.4476  0.3737  0.2393
 5341TIP3    H137514   3.513   0.100  16.278 -0.0416  1.9625  1.2943
 5341TIP3    H237515   3.587   0.051  16.400 -0.5009 -2.0699  0.0849
 5342TIP3   OH237516   1.164   5.607   2.166 -0.1431  0.0862 -0.8355
 5342TIP3    H137517   1.252   5.583   2.135 -0.6176 -1.1037 -1.3201
 5342TIP3    H237518   1.173   5.698   2.195  1.5321 -0.3691  0.2257
 5343TIP3   OH237519   2.501   3.723   2.558 -0.1580 -0.7975 -0.2947
 5343TIP3    H137520   2.477   3.813   2.538  1.2937 -0.5290 -0.9400
 5343TIP3    H237521   2.512   3.721   2.653 -1.3796 -0.6129 -0.1416
 5344TIP3   OH237522   4.545   0.905   0.407 -0.3179  0.3267  0.0999
 5344TIP3    H137523   4.518   0.982   0.457  1.6373  0.9278  0.3157
 5344TIP3    H237524   4.635   0.925   0.380 -0.5191 -1.0001 -1.6508
 5345TIP3   OH237525   4.700   4.837   5.369 -0.7893  0.3051  0.8722
 5345TIP3    H137526   4.649   4.905   5.324 -0.9971 -0.1342  0.4358
 5345TIP3    H237527   4.687   4.759   5.316  2.5841  0.7510 -0.8995
 5346TIP3   OH237528   1.610   1.405   1.748  0.6348 -0.4601 -0.6490
 5346TIP3    H137529   1.625   1.310   1.753 -0.2198 -0.6559 -1.4934
 5346TIP3    H237530   1.517   1.415   1.767  0.5140  0.1136 -1.5053
 5347TIP3   OH237531   2.300   1.145  11.769 -0.1317  0.1163  0.0946
 5347TIP3    H137532   2.233   1.213  11.777  2.4473  2.7113  1.6497
 5347TIP3    H237533   2.352   1.172  11.693  0.2145 -0.8007  0.0021
 5348TIP3   OH237534   2.515   0.567  14.509  0.6825 -0.6042  0.3559
 5348TIP3    H137535   2.456   0.506  14.465  0.8887  0.0231 -0.8418
 5348TIP3    H237536   2.540   0.522  14.589 -0.5799 -1.3269  0.3783
 5349TIP3   OH237537   0.203   5.285  13.372  0.9406  0.0182  0.3897
 5349TIP3    H137538   0.159   5.206  13.404 -1.7257  1.1225 -0.2979
 5349TIP3    H237539   0.219   5.268  13.279  1.1293 -0.0164  0.4274
 5350TIP3   OH237540   0.513   2.468   6.141 -0.3235 -0.4732 -0.4787
 5350TIP3    H137541   0.480   2.408   6.208 -0.0641 -1.3752 -1.1499
 5350TIP3    H237542   0.600   2.433   6.119 -0.4085 -0.1806 -1.2864
 5351TIP3   OH237543   6.791   0.155  16.874 -0.3089 -0.3352  0.4172
 5351TIP3    H137544   6.866   0.110  16.914  0.4222  0.8882  0.4872
 5351TIP3    H237545   6.754   0.208  16.945  0.5267  1.2477 -0.2503
 5352TIP3   OH237546   0.350   4.810  15.138  0.2846  0.0333  0.5059
 5352TIP3    H137547   0.356   4.728  15.089  0.7743  0.5700 -0.3493
 5352TIP3    H237548   0.429   4.859  15.113  0.5147  0.3494  1.7718
 5353TIP3   OH237549   6.402   2.494   0.647  0.3359 -0.0286  0.5800
 5353TIP3    H137550   6.407   2.531   0.558  0.0268  0.7270  0.8642
 5353TIP3    H237551   6.355   2.412   0.636  1.8251 -0.8251 -0.2070
 5354TIP3   OH237552   1.308   6.225  17.213  0.0870 -0.6347 -0.0601
 5354TIP3    H137553   1.298   6.307  17.164  1.5857 -1.2506 -1.4847
 5354TIP3    H237554   1.321   6.159  17.146  1.1092 -1.6988  1.1444
 5355TIP3   OH237555   1.996   3.964   0.268 -0.0231 -0.5372  0.0042
 5355TIP3    H137556   2.073   3.977   0.213  0.6005  1.6616  1.2260
 5355TIP3    H237557   2.031   3.962   0.357 -1.3869  1.3006  0.6497
 5356TIP3   OH237558   2.101   3.839  12.195 -0.5136  0.2530  0.3137
 5356TIP3    H137559   2.170   3.900  12.221 -1.1979  1.3157 -0.3121
 5356TIP3    H237560   2.148   3.765  12.158  0.3126  0.7712  0.2992
 5357TIP3   OH237561   5.053   1.490   4.918 -0.2937 -0.8310 -0.1694
 5357TIP3    H137562   5.135   1.458   4.881  0.6803 -0.4202  1.5162
 5357TIP3    H237563   5.033   1.568   4.867 -0.5440 -1.8334 -1.6718
 5358TIP3   OH237564   2.282   2.950  14.512 -0.4491  0.3968 -0.7400
 5358TIP3    H137565   2.239   3.027  14.549 -0.3716 -0.0522  0.3233
 5358TIP3    H237566   2.363   2.941  14.562 -0.1543 -0.0130 -1.2792
 5359TIP3   OH237567   0.216   3.634   4.502  0.3486  0.0950  0.0591
 5359TIP3    H137568   0.162   3.639   4.423  1.0327  1.0955 -0.3661
 5359TIP3    H237569   0.306   3.646   4.471  0.7065 -0.2616  0.9069
 5360TIP3   OH237570   0.424   3.738   3.899 -0.3301 -0.1570 -0.0142
 5360TIP3    H137571   0.409   3.742   3.993  0.6266  2.3230  0.0894
 5360TIP3    H237572   0.350   3.687   3.866 -0.3639 -1.6333  2.0962
 5361TIP3   OH237573   6.471   2.842   0.839  0.2916 -0.2774  0.0661
 5361TIP3    H137574   6.537   2.898   0.880 -0.0297  1.0491 -1.1585
 5361TIP3    H237575   6.501   2.831   0.749 -1.0991  0.2956 -0.4912
 5362TIP3   OH237576   1.975   2.203  15.011  0.1549 -0.4747 -0.3779
 5362TIP3    H137577   1.914   2.242  14.948 -1.2073 -0.0024  1.1732
 5362TIP3    H237578   1.983   2.112  14.981 -0.3636 -0.2369 -1.3075
 5363TIP3   OH237579   4.908   5.861  12.851  0.2873  0.6424 -0.6409
 5363TIP3    H137580   4.986   5.909  12.880  1.6895 -2.0176  0.4212
 5363TIP3    H237581   4.889   5.801  12.924 -1.9415  0.2709 -1.4567
 5364TIP3   OH237582   2.174   5.175   6.548  0.2014 -0.4265  0.8232
 5364TIP3    H137583   2.216   5.237   6.606  1.1605  0.0004 -0.2951
 5364TIP3    H237584   2.138   5.228   6.477 -0.6474 -0.9666  0.8256
 5365TIP3   OH237585   0.435   1.490   2.116  0.6165  0.0434 -0.1747
 5365TIP3    H137586   0.493   1.418   2.090  1.1235  0.3395  0.1206
 5365TIP3    H237587   0.348   1.451   2.118  0.8090 -0.4201 -0.5830
 5366TIP3   OH237588   1.402   4.813  11.598  0.5154 -0.4513  0.0289
 5366TIP3    H137589   1.484   4.801  11.551  0.1642 -2.7788 -0.0992
 5366TIP3    H237590   1.410   4.759  11.676  0.0608  1.3175  1.3797
 5367TIP3   OH237591   1.843   6.525  13.535 -0.2417 -0.1351 -0.0797
 5367TIP3    H137592   1.883   6.443  13.507  1.5086  0.2605  1.0787
 5367TIP3    H237593   1.909   6.592  13.516 -1.2534  0.8776 -0.1289
 5368TIP3   OH237594   1.093   1.871   3.486 -0.2979  0.1645 -0.0601
 5368TIP3    H137595   1.099   1.945   3.425  2.5337 -1.1634 -1.6292
 5368TIP3    H237596   1.000   1.851   3.489 -0.8771  2.1760 -1.6183
 5369TIP3   OH237597   0.334   3.326  15.317  0.8212 -0.4196  0.1082
 5369TIP3    H137598   0.374   3.322  15.230  1.5023  0.5653  0.3591
 5369TIP3    H237599   0.359   3.243  15.359  0.5017 -0.8952 -0.6144
 5370TIP3   OH237600   1.256   6.026   2.501  0.0916 -0.5044 -0.1438
 5370TIP3    H137601   1.287   5.969   2.572  0.1694 -1.5389 -0.9711
 5370TIP3    H237602   1.264   6.115   2.535 -0.9163 -1.0204  1.5512
 5371TIP3   OH237603   4.700   4.290  15.483 -0.0892  0.2145  0.2317
 5371TIP3    H137604   4.747   4.370  15.506 -1.7929  0.9182  1.4243
 5371TIP3    H237605   4.673   4.253  15.568 -1.4728 -0.2875 -0.4045
 5372TIP3   OH237606   4.763   2.802  14.512 -0.2603 -0.0512 -0.1311
 5372TIP3    H137607   4.771   2.715  14.472  0.1343  0.3333 -0.9220
 5372TIP3    H237608   4.675   2.831  14.488  0.1902  0.4281 -1.2745
 5373TIP3   OH237609   5.776   2.374  16.908  0.6224  0.0659 -0.5091
 5373TIP3    H137610   5.760   2.425  16.988 -1.1127 -1.8915  0.5017
 5373TIP3    H237611   5.850   2.317  16.931 -0.6130 -1.3302  0.2181
 5374TIP3   OH237612   4.590   4.434   2.505 -0.5989 -0.3053  0.3186
 5374TIP3    H137613   4.535   4.387   2.568 -1.7713  0.8552  0.2122
 5374TIP3    H237614   4.676   4.439   2.546 -0.7949 -1.3763  0.8940
 5375TIP3   OH237615   0.714   1.201   5.215  0.2198  0.0531  0.3296
 5375TIP3    H137616   0.755   1.168   5.295  0.3844  0.0337  0.2380
 5375TIP3    H237617   0.642   1.141   5.198 -0.8528  0.9938  1.3715
 5376TIP3   OH237618   5.040   0.293   5.754  0.4503 -0.3630  0.1406
 5376TIP3    H137619   5.033   0.277   5.660  0.6343 -0.8097  0.2018
 5376TIP3    H237620   5.066   0.385   5.761  0.4418 -0.3303 -0.2447
 5377TIP3   OH237621   4.067   1.502  14.215  0.3950  0.4752  0.2887
 5377TIP3    H137622   4.088   1.437  14.282  1.1506  0.1066 -0.2851
 5377TIP3    H237623   4.137   1.568  14.223 -0.8534  1.7402  1.4755
 5378TIP3   OH237624   3.092   1.649   5.975 -0.0248 -0.2306 -0.1432
 5378TIP3    H137625   3.050   1.567   5.946  0.1071 -0.6283  0.7678
 5378TIP3    H237626   3.049   1.670   6.057 -0.0590  0.6331 -0.3762
 5379TIP3   OH237627   1.845   3.961  13.467  0.3413 -0.2400 -0.2091
 5379TIP3    H137628   1.782   3.889  13.458  0.9857 -0.8050 -0.2936
 5379TIP3    H237629   1.923   3.930  13.422 -0.1634  1.5206 -2.4994
 5380TIP3   OH237630   3.629   2.516  14.826  0.2779 -0.3246 -0.0819
 5380TIP3    H137631   3.702   2.537  14.768  1.3869 -1.0438  1.0039
 5380TIP3    H237632   3.665   2.451  14.887 -1.3421 -0.8791  0.3286
 5381TIP3   OH237633   6.744   6.215   0.932  0.1106 -0.3166 -0.1395
 5381TIP3    H137634   6.693   6.155   0.877  1.0875 -1.6400  0.3262
 5381TIP3    H237635   6.681   6.248   0.996 -0.2620 -1.6629  0.2263
 5382TIP3   OH237636   2.294   2.593  11.381 -0.1616  0.3172 -0.0115
 5382TIP3    H137637   2.220   2.638  11.340  0.0835  1.1430  0.4458
 5382TIP3    H237638   2.355   2.662  11.405  0.5095 -0.3101  0.1354
 5383TIP3   OH237639   6.043   2.226  14.323  0.1040 -0.0670  0.3809
 5383TIP3    H137640   6.038   2.265  14.236 -0.8860 -0.0997  0.4073
 5383TIP3    H237641   6.124   2.261  14.361  1.7977 -1.8742 -1.3918
 5384TIP3   OH237642   4.775   0.206  16.501 -0.3785  0.5724 -0.1333
 5384TIP3    H137643   4.822   0.244  16.428 -1.3248  1.9869 -0.0616
 5384TIP3    H237644   4.682   0.216  16.478 -0.6839 -0.4763  0.5256
 5385TIP3   OH237645   5.589   2.331  13.622  0.5015 -0.5252  0.1180
 5385TIP3    H137646   5.613   2.405  13.677 -0.5471  1.5211 -2.0420
 5385TIP3    H237647   5.499   2.310  13.648 -0.2145  0.8358 -1.1401
 5386TIP3   OH237648   0.983   4.473   3.759 -0.9581 -0.5163 -0.0295
 5386TIP3    H137649   0.998   4.383   3.787 -0.8916 -0.6646 -0.5473
 5386TIP3    H237650   1.002   4.474   3.666  1.9575  0.6862  0.4823
 5387TIP3   OH237651   3.863   5.181  11.051 -0.1440  0.1862  0.2889
 5387TIP3    H137652   3.933   5.198  10.988  0.3802  0.6354  0.9846
 5387TIP3    H237653   3.813   5.263  11.055  0.7851  0.7150  1.6400
 5388TIP3   OH237654   3.256   4.518   0.445 -0.1051  0.0875 -0.7817
 5388TIP3    H137655   3.308   4.442   0.419  0.2522 -0.2803  0.8360
 5388TIP3    H237656   3.283   4.535   0.536  0.3273  2.5692 -1.2945
 5389TIP3   OH237657   5.691   4.215  16.734 -0.4828 -0.1659 -0.0990
 5389TIP3    H137658   5.638   4.138  16.712  0.8077 -1.0874 -0.1313
 5389TIP3    H237659   5.700   4.263  16.652 -0.9620 -0.2001 -0.1719
 5390TIP3   OH237660   1.887   2.290   3.934 -0.2627 -0.6294 -0.5014
 5390TIP3    H137661   1.829   2.232   3.886 -2.3235 -0.3090  1.4164
 5390TIP3    H237662   1.868   2.377   3.900 -1.5478 -0.4323  0.6091
 5391TIP3   OH237663   3.867   1.684  11.145 -0.0830 -0.3149  0.0502
 5391TIP3    H137664   3.777   1.715  11.131  0.0830 -0.3526 -1.2427
 5391TIP3    H237665   3.922   1.752  11.106  0.4853 -0.0912  1.2006
 5392TIP3   OH237666   0.764   3.228   5.686 -0.0108  0.3745  0.0236
 5392TIP3    H137667   0.836   3.239   5.748 -0.5676  2.7341  0.3605
 5392TIP3    H237668   0.802   3.254   5.601  0.0361 -0.2760 -0.1608
 5393TIP3   OH237669   2.892   4.212   3.057 -0.1638 -0.7113  0.5539
 5393TIP3    H137670   2.941   4.291   3.078 -0.6519 -0.0237 -0.8395
 5393TIP3    H237671   2.807   4.224   3.101 -1.3067  0.8784 -1.8896
 5394TIP3   OH237672   5.984   5.697  16.669  0.5607  0.3290  0.7011
 5394TIP3    H137673   5.998   5.633  16.599  0.8258 -0.4656  1.4637
 5394TIP3    H237674   6.071   5.735  16.684  0.8197 -0.5793  1.6049
 5395TIP3   OH237675   4.391   3.356   6.288  0.2139 -0.0472  0.1241
 5395TIP3    H137676   4.341   3.434   6.316  0.3631 -0.6265  2.1656
 5395TIP3    H237677   4.336   3.282   6.313  0.7571 -0.6397 -0.4008
 5396TIP3   OH237678   2.391   0.621   0.282 -0.3119 -0.1819  0.0389
 5396TIP3    H137679   2.440   0.697   0.313 -1.8089  1.6845 -1.8250
 5396TIP3    H237680   2.364   0.575   0.361  0.0608  1.6126  1.2624
 5397TIP3   OH237681   0.965   4.584   2.622 -0.2511  0.0190  0.0501
 5397TIP3    H137682   0.966   4.489   2.612  0.2257 -0.1527  1.4297
 5397TIP3    H237683   0.917   4.598   2.704 -1.8259  1.0906 -0.9965
 5398TIP3   OH237684   0.311   1.187  12.176  0.3046  0.4220 -0.1220
 5398TIP3    H137685   0.324   1.173  12.083 -0.2621  0.0740 -0.1587
 5398TIP3    H237686   0.296   1.099  12.212 -0.4370  0.6381  0.1302
 5399TIP3   OH237687   5.682   2.036   2.663 -0.3677  0.5954 -0.5858
 5399TIP3    H137688   5.743   1.964   2.675  1.2970  1.9206 -0.7206
 5399TIP3    H237689   5.602   1.994   2.630  0.4193 -1.1952 -0.3498
 5400TIP3   OH237690   2.536   1.529   4.614 -0.2124 -0.0828 -0.0227
 5400TIP3    H137691   2.527   1.553   4.706 -0.8987 -1.6820  0.3594
 5400TIP3    H237692   2.482   1.450   4.604  0.6467 -0.5214 -1.5566
 5401TIP3   OH237693   6.145   3.473   1.202  0.2956 -0.6813 -0.1232
 5401TIP3    H137694   6.063   3.487   1.249  0.1502 -1.2448 -0.2058
 5401TIP3    H237695   6.128   3.502   1.113  0.4134 -0.1086  0.0323
 5402TIP3   OH237696   4.800   1.163   3.035  0.0766  0.8229  0.3311
 5402TIP3    H137697   4.827   1.073   3.052  1.1285  0.6037 -2.1383
 5402TIP3    H237698   4.858   1.216   3.088  0.0511  0.0981  1.1103
 5403TIP3   OH237699   5.707   5.645  13.359 -0.1201  0.0689 -0.0548
 5403TIP3    H137700   5.638   5.581  13.375  0.8563 -0.5568  1.8324
 5403TIP3    H237701   5.675   5.726  13.399  1.1430 -0.8024  2.9280
 5404TIP3   OH237702   4.776   6.729   3.642 -0.2241  0.5497 -0.0741
 5404TIP3    H137703   4.776   6.825   3.640  1.0309  0.5642 -2.0414
 5404TIP3    H237704   4.684   6.705   3.658 -0.7796  2.0755 -0.8291
 5405TIP3   OH237705   1.282   6.343  13.611 -0.3701  0.1484 -0.3148
 5405TIP3    H137706   1.349   6.290  13.654 -2.5249 -1.0552  1.7889
 5405TIP3    H237707   1.261   6.412  13.674 -1.5518  0.1186 -0.6442
 5406TIP3   OH237708   1.017   0.218   3.476  0.3526 -0.2981 -0.7110
 5406TIP3    H137709   0.971   0.284   3.529 -0.2561 -0.4975 -0.9807
 5406TIP3    H237710   1.098   0.202   3.524 -0.6713 -1.3022  0.8229
 5407TIP3   OH237711   6.135   3.094  11.049 -0.3175 -0.4921 -0.7680
 5407TIP3    H137712   6.080   3.061  10.977 -1.1376 -0.7565 -0.0357
 5407TIP3    H237713   6.166   3.179  11.018 -0.0568 -0.9255 -1.7365
 5408TIP3   OH237714   5.850   2.061   6.245  0.3002 -0.5182 -0.4054
 5408TIP3    H137715   5.939   2.056   6.280 -0.1171 -3.5330  0.5158
 5408TIP3    H237716   5.856   2.020   6.159 -0.3515 -1.7285  0.1059
 5409TIP3   OH237717   1.032   4.956  15.673  0.5610  0.7448  0.4463
 5409TIP3    H137718   0.984   4.875  15.690  1.5256 -0.0623 -0.5716
 5409TIP3    H237719   1.017   5.009  15.751 -1.6809  0.3899  0.3453
 5410TIP3   OH237720   5.143   5.572  16.378  0.1800 -0.4052  0.1822
 5410TIP3    H137721   5.192   5.576  16.460 -0.4066 -1.0570  0.5763
 5410TIP3    H237722   5.139   5.479  16.356  0.6423 -0.2126 -0.7814
 5411TIP3   OH237723   6.497   6.157  13.668  0.3706  0.2594  0.0646
 5411TIP3    H137724   6.524   6.229  13.725 -0.5160  0.1369  0.6533
 5411TIP3    H237725   6.489   6.197  13.581  2.0359  0.3806 -0.0626
 5412TIP3   OH237726   1.013   4.114   0.574  0.4725 -0.1375  0.1089
 5412TIP3    H137727   1.074   4.162   0.630 -0.3970  3.0436 -1.4654
 5412TIP3    H237728   1.012   4.163   0.492 -2.1110 -1.6918 -0.9132
 5413TIP3   OH237729   2.616   4.436  14.200 -0.1173  0.3733 -0.2914
 5413TIP3    H137730   2.561   4.439  14.278  2.5345  1.2725  1.7051
 5413TIP3    H237731   2.622   4.528  14.172  0.7122  0.3551 -0.1934
 5414TIP3   OH237732   3.868   1.182  13.289 -0.1779  0.2442 -0.2726
 5414TIP3    H137733   3.919   1.181  13.208  1.1852 -1.3940  0.5582
 5414TIP3    H237734   3.929   1.210  13.356 -0.0230 -2.6227  0.8928
 5415TIP3   OH237735   1.797   4.216   1.205  0.4508  0.2155  0.1300
 5415TIP3    H137736   1.807   4.302   1.165 -0.0200  1.2078  1.9948
 5415TIP3    H237737   1.886   4.190   1.227  0.5626  0.4329 -0.0551
 5416TIP3   OH237738   2.659   0.035  11.802 -0.0420  0.0509  0.3634
 5416TIP3    H137739   2.683   0.127  11.790 -1.3413  0.2401 -1.2291
 5416TIP3    H237740   2.742  -0.012  11.796  0.3610  0.9133 -1.8170
 5417TIP3   OH237741   5.271   4.234   2.215  0.5144 -0.3068 -0.3456
 5417TIP3    H137742   5.203   4.170   2.237  0.1105  0.3909  0.4965
 5417TIP3    H237743   5.328   4.236   2.292  2.0410 -1.5362 -1.3818
 5418TIP3   OH237744   6.080   5.173   5.289  0.0255  0.1760 -0.6009
 5418TIP3    H137745   6.018   5.118   5.241 -0.7424  0.0450  0.5132
 5418TIP3    H237746   6.032   5.203   5.366  1.1660  0.5549 -0.0074
 5419TIP3   OH237747   0.187   6.205  16.974 -0.2054 -0.3468 -0.4594
 5419TIP3    H137748   0.130   6.175  16.904 -0.8471  0.0416 -0.1062
 5419TIP3    H237749   0.264   6.147  16.969 -0.1570 -0.1976 -1.5899
 5420TIP3   OH237750   3.213   5.540  10.672 -0.0743  0.5780  0.1701
 5420TIP3    H137751   3.229   5.631  10.697  1.3725  0.7316 -1.2020
 5420TIP3    H237752   3.225   5.539  10.577  0.5871 -1.1668  0.2497
 5421TIP3   OH237753   4.443   6.217  11.642 -0.8296 -0.1049  0.2111
 5421TIP3    H137754   4.505   6.288  11.625 -1.2119 -0.0322 -0.9849
 5421TIP3    H237755   4.474   6.145  11.587  1.4983 -2.1343  3.7773
 5422TIP3   OH237756   0.571   3.398  11.533 -0.0497  0.6030 -0.0210
 5422TIP3    H137757   0.550   3.481  11.490 -0.7860  0.3787 -0.1110
 5422TIP3    H237758   0.516   3.334  11.489  0.7953 -0.0076 -0.2119
 5423TIP3   OH237759   0.578   2.442  15.733 -0.0079 -0.3374 -0.0001
 5423TIP3    H137760   0.582   2.425  15.827  0.0439  0.1348  0.0880
 5423TIP3    H237761   0.584   2.356  15.693  2.0387 -0.4048  0.3598
 5424TIP3   OH237762   2.375   1.652  11.489  0.2625  0.4365 -0.0434
 5424TIP3    H137763   2.359   1.737  11.449  0.2679  0.8153  0.7350
 5424TIP3    H237764   2.289   1.624  11.521  0.4464  0.6904  0.7124
 5425TIP3   OH237765   3.393   5.273   4.340 -0.3464 -0.0960 -0.1051
 5425TIP3    H137766   3.334   5.309   4.274 -1.5718 -0.7621  0.5765
 5425TIP3    H237767   3.342   5.204   4.383  0.8719 -0.5697  0.6503
 5426TIP3   OH237768   3.702   0.486   5.355 -0.0930 -0.6108  0.0640
 5426TIP3    H137769   3.722   0.405   5.401  0.9964 -0.0385  0.6261
 5426TIP3    H237770   3.646   0.459   5.282 -1.4923 -1.5871  1.4397
 5427TIP3   OH237771   6.793   5.329  15.263 -0.5272 -0.7520  0.1969
 5427TIP3    H137772   6.888   5.319  15.272 -0.6279 -0.1929  2.5790
 5427TIP3    H237773   6.776   5.316  15.170  1.8757 -0.9343 -0.2771
 5428TIP3   OH237774   0.034   1.372   1.633  0.3454 -0.3370 -0.0953
 5428TIP3    H137775   0.096   1.433   1.593 -1.4286  1.6361 -0.0185
 5428TIP3    H237776  -0.042   1.372   1.575  0.2156 -2.4213 -0.0108
 5429TIP3   OH237777   0.965   1.499  11.170 -0.1937  0.2416  0.1174
 5429TIP3    H137778   1.010   1.583  11.177  0.0036  0.1504 -0.0531
 5429TIP3    H237779   0.977   1.473  11.079  1.9172 -1.1807  0.7333
 5430TIP3   OH237780   1.684   1.236   0.309 -0.0615 -0.4493  0.6772
 5430TIP3    H137781   1.760   1.213   0.364  0.7236 -2.2029 -1.0170
 5430TIP3    H237782   1.722   1.259   0.224 -1.4325 -3.1857 -0.8027
 5431TIP3   OH237783   3.587   5.139   1.787  0.1651  0.4458  0.6907
 5431TIP3    H137784   3.665   5.087   1.808 -1.0266 -0.8165  2.2444
 5431TIP3    H237785   3.606   5.226   1.821  1.4925  0.6035 -0.3671
 5432TIP3   OH237786   0.313   6.463   0.459 -1.2372 -0.0141 -0.0786
 5432TIP3    H137787   0.252   6.391   0.474  0.4932 -1.3259  1.2057
 5432TIP3    H237788   0.300   6.522   0.532 -0.4641 -0.7146  0.6519
 5433TIP3   OH237789   6.149   3.203  13.253 -0.2347 -0.5488 -0.4039
 5433TIP3    H137790   6.202   3.273  13.291  1.4867 -0.3091 -2.9589
 5433TIP3    H237791   6.098   3.246  13.184 -1.9757 -1.2243  0.4118
 5434TIP3   OH237792   5.906   4.701  12.440  0.0216 -0.5572 -0.4154
 5434TIP3    H137793   5.883   4.767  12.505  1.9605 -0.4079  0.2013
 5434TIP3    H237794   5.837   4.706  12.374  1.3196  3.9498 -1.8028
 5435TIP3   OH237795   4.448   0.227   6.651  0.3407  0.1466 -0.5997
 5435TIP3    H137796   4.473   0.203   6.561  0.6416  1.9597 -1.0398
 5435TIP3    H237797   4.513   0.292   6.677 -0.3684  0.4209  0.5591
 5436TIP3   OH237798   4.587   3.242   0.499 -0.3531  0.1828  0.2175
 5436TIP3    H137799   4.583   3.160   0.450 -0.4777 -0.5585  1.4317
 5436TIP3    H237800   4.523   3.299   0.456 -0.8481 -0.6304 -0.1432
 5437TIP3   OH237801   4.393   5.909  14.981 -1.1380  0.0078 -0.2231
 5437TIP3    H137802   4.367   5.885  14.892  0.4172  1.6388 -1.2031
 5437TIP3    H237803   4.474   5.959  14.969 -1.7773  1.7235  1.9582
 5438TIP3   OH237804   4.186   1.596  11.283 -0.4332  0.2098  0.1235
 5438TIP3    H137805   4.155   1.620  11.370  1.0027  3.8037 -0.1464
 5438TIP3    H237806   4.272   1.638  11.276  0.1914 -1.2804 -2.4904
 5439TIP3   OH237807   4.577   0.043  12.350  0.1135 -0.3566  0.4371
 5439TIP3    H137808   4.550   0.108  12.285  0.2224 -0.3881  0.3613
 5439TIP3    H237809   4.573  -0.041  12.304 -2.8326 -0.8109  1.2731
 5440TIP3   OH237810   0.091   3.406  11.782  0.6918 -0.1909 -0.0226
 5440TIP3    H137811   0.120   3.491  11.813  0.1190  0.1304 -0.3592
 5440TIP3    H237812   0.143   3.390  11.703  1.7146 -0.7378  0.7388
 5441TIP3   OH237813   4.393   2.087   1.179 -0.5853  0.4418  0.3205
 5441TIP3    H137814   4.421   2.019   1.118 -0.2499  1.2275 -0.4180
 5441TIP3    H237815   4.365   2.159   1.123 -0.2105  1.2012  1.0987
 5442TIP3   OH237816   5.169   3.778   3.344  0.1521 -0.1028  0.0062
 5442TIP3    H137817   5.253   3.819   3.366  0.6825 -1.4030  0.4655
 5442TIP3    H237818   5.121   3.847   3.297  1.6529  0.5263 -0.6895
 5443TIP3   OH237819   4.421   4.185   6.222  0.1737  0.6048  0.4369
 5443TIP3    H137820   4.428   4.279   6.236 -0.6660  1.0367 -1.6514
 5443TIP3    H237821   4.432   4.147   6.309  0.8128  2.5975  1.2921
 5444TIP3   OH237822   4.669   0.552   1.084 -0.1600 -0.1186  0.0813
 5444TIP3    H137823   4.574   0.566   1.082 -0.0701  0.3558 -1.0844
 5444TIP3    H237824   4.706   0.639   1.093  0.2491  0.0923 -2.8215
 5445TIP3   OH237825   2.803   0.015  13.201 -0.2766 -0.3924 -0.0567
 5445TIP3    H137826   2.781   0.068  13.277  0.3912  0.4607 -0.4285
 5445TIP3    H237827   2.886  -0.026  13.224  0.4609  0.6781 -0.6774
 5446TIP3   OH237828   1.940   6.767  12.819 -0.0216 -0.0444 -0.0820
 5446TIP3    H137829   1.994   6.832  12.863 -0.1840  0.2824 -0.3655
 5446TIP3    H237830   1.993   6.687  12.820  1.9388  1.0483 -3.2860
 5447TIP3   OH237831   2.527   3.215   4.161  0.5249 -0.2676  0.2937
 5447TIP3    H137832   2.566   3.231   4.247  0.2462 -0.6317  0.4905
 5447TIP3    H237833   2.486   3.129   4.169  0.3403 -0.2237 -0.1483
 5448TIP3   OH237834   2.179   2.931  14.861 -0.1669  0.1489  0.5137
 5448TIP3    H137835   2.183   3.003  14.924 -1.1672  1.2909 -0.6526
 5448TIP3    H237836   2.241   2.956  14.793  0.5402 -0.8269  0.7943
 5449TIP3   OH237837   3.887   2.474  11.964 -0.5742  0.0484  0.8860
 5449TIP3    H137838   3.980   2.456  11.947 -1.2835 -1.5000 -2.1904
 5449TIP3    H237839   3.845   2.388  11.964 -2.3187  0.8112 -0.6079
 5450TIP3   OH237840   2.053   4.634  15.732 -0.1044 -0.5190 -0.3069
 5450TIP3    H137841   2.014   4.698  15.791 -3.8772 -0.7798 -2.2422
 5450TIP3    H237842   2.056   4.553  15.783 -1.1049 -0.2033  0.2814
 5451TIP3   OH237843   3.185   4.354   6.164 -0.1034 -0.1486  0.4206
 5451TIP3    H137844   3.157   4.263   6.155  1.5981 -0.6048 -0.8513
 5451TIP3    H237845   3.279   4.347   6.182  0.1934  1.3797 -0.4694
 5452TIP3   OH237846   4.946   4.524  14.587 -0.7551  0.0209 -0.3920
 5452TIP3    H137847   4.951   4.594  14.652  0.7602 -2.0567  1.9432
 5452TIP3    H237848   4.979   4.447  14.634 -2.5292 -2.3096 -2.7303
 5453TIP3   OH237849   5.617   0.477   6.648  0.8472 -0.0923 -0.7341
 5453TIP3    H137850   5.630   0.443   6.737  2.0818  1.5238 -0.2502
 5453TIP3    H237851   5.641   0.403   6.591 -1.0816 -1.5479  0.2130
 5454TIP3   OH237852   4.908   0.775   2.190  0.2280  0.1399  0.3671
 5454TIP3    H137853   4.990   0.825   2.191  0.3621 -0.0383 -0.7411
 5454TIP3    H237854   4.908   0.730   2.106  0.1982 -1.8925  1.4017
 5455TIP3   OH237855   3.431   2.649  15.384 -0.5254 -0.3861 -0.0675
 5455TIP3    H137856   3.501   2.677  15.444 -0.6018 -0.4177  0.0374
 5455TIP3    H237857   3.353   2.643  15.440 -0.5913 -0.4414 -0.1654
 5456TIP3   OH237858   3.462   0.347  13.658  0.3241  0.4113  0.7395
 5456TIP3    H137859   3.453   0.392  13.574 -1.4898  0.7305  1.0732
 5456TIP3    H237860   3.483   0.417  13.720  1.8820  0.1483  0.5717
 5457TIP3   OH237861   0.097   5.167   5.020 -0.1803  0.0713 -0.2217
 5457TIP3    H137862   0.080   5.227   5.092 -0.7273 -0.1636 -0.1430
 5457TIP3    H237863   0.182   5.128   5.039  0.5367  1.3606 -0.6601
 5458TIP3   OH237864   3.364   5.917  16.904  0.7995  0.1890  0.3111
 5458TIP3    H137865   3.278   5.910  16.862  1.0275  0.4038 -0.2129
 5458TIP3    H237866   3.390   6.008  16.889  2.4180 -0.5662 -2.2106
 5459TIP3   OH237867   1.610   3.116   5.768  0.3751  0.0698 -0.1979
 5459TIP3    H137868   1.597   3.210   5.752 -1.1960  0.0970  0.9587
 5459TIP3    H237869   1.684   3.113   5.829  0.1174  0.5987  0.1535
 5460TIP3   OH237870   3.985   0.538   2.908  0.0566 -0.2635  0.1373
 5460TIP3    H137871   3.908   0.518   2.854  1.2251 -1.9182 -1.0283
 5460TIP3    H237872   3.974   0.629   2.934 -0.0758  1.0162 -3.8237
 5461TIP3   OH237873   2.469   2.270  12.878 -0.5694 -0.1685 -0.0592
 5461TIP3    H137874   2.545   2.220  12.848 -0.7892 -0.7945  0.3943
 5461TIP3    H237875   2.497   2.361  12.874  0.3586 -0.4065  0.4908
 5462TIP3   OH237876   4.732   1.067   0.970 -0.5880 -0.4467 -0.1358
 5462TIP3    H137877   4.723   1.110   1.055  0.6328  1.2646 -0.8138
 5462TIP3    H237878   4.747   0.975   0.991 -1.5579 -0.2874  1.4417
 5463TIP3   OH237879   2.376   1.793  14.893  0.7752 -0.5623  0.1586
 5463TIP3    H137880   2.368   1.789  14.798  0.5743  2.1308 -0.0144
 5463TIP3    H237881   2.292   1.827  14.923  1.1249 -0.5950  1.2444
 5464TIP3   OH237882   0.440   6.396  14.510 -0.7361  0.2234  0.2434
 5464TIP3    H137883   0.533   6.372  14.503 -0.3729  1.4571  0.5502
 5464TIP3    H237884   0.436   6.486  14.477 -1.3615  1.1264  2.5839
 5465TIP3   OH237885   3.953   4.814  10.758  0.0503 -0.6366 -0.1042
 5465TIP3    H137886   3.977   4.804  10.666  0.1250  0.6072 -0.2411
 5465TIP3    H237887   3.952   4.909  10.772  0.6674 -0.8199  1.3411
 5466TIP3   OH237888   4.472   3.389   3.115  0.0595 -0.4601  0.0422
 5466TIP3    H137889   4.390   3.361   3.155 -0.0017 -0.2159  0.0880
 5466TIP3    H237890   4.536   3.386   3.185 -0.2176  0.7662  0.3798
 5467TIP3   OH237891   3.191   5.605  11.952  0.3185 -0.5710 -0.2271
 5467TIP3    H137892   3.197   5.566  12.040 -0.7953  1.0658  0.6332
 5467TIP3    H237893   3.100   5.593  11.926 -0.1700  1.6636  0.2357
 5468TIP3   OH237894   1.329   4.288   0.949 -0.2482 -0.0048  0.4032
 5468TIP3    H137895   1.390   4.252   0.885 -0.4637 -2.4729  1.4705
 5468TIP3    H237896   1.375   4.279   1.033 -1.0183  0.6193  0.8994
 5469TIP3   OH237897   4.057   2.610   1.493  0.3268 -0.0180  0.2093
 5469TIP3    H137898   4.067   2.566   1.577  0.2385  0.7013  0.5999
 5469TIP3    H237899   4.147   2.620   1.461  0.3038 -1.4384 -0.4038
 5470TIP3   OH237900   1.122   3.445  11.136 -0.3683  0.0752 -0.8923
 5470TIP3    H137901   1.066   3.372  11.110  0.7357 -1.1309 -0.0198
 5470TIP3    H237902   1.180   3.459  11.061  0.5697 -1.1375 -0.4223
 5471TIP3   OH237903   0.780   4.297  16.795 -0.0825  0.1461  0.2125
 5471TIP3    H137904   0.871   4.306  16.769  0.0639 -1.8090 -0.1309
 5471TIP3    H237905   0.732   4.358  16.739  0.8605  0.1889 -0.5557
 5472TIP3   OH237906   0.198   2.160   1.169 -0.6135  0.1769 -0.2027
 5472TIP3    H137907   0.265   2.160   1.238  0.9175 -2.7628 -1.4949
 5472TIP3    H237908   0.186   2.068   1.147 -2.3285  0.8719 -2.6769
 5473TIP3   OH237909   3.524   1.432  15.518  0.1175  0.0397  0.3195
 5473TIP3    H137910   3.468   1.493  15.469 -0.7857  1.5290  2.9928
 5473TIP3    H237911   3.480   1.348  15.509 -0.1567  0.2965 -1.1312
 5474TIP3   OH237912   2.260   0.658   5.055 -0.0448 -0.1129  0.2292
 5474TIP3    H137913   2.174   0.699   5.047  0.1504  0.3848  0.6111
 5474TIP3    H237914   2.245   0.578   5.106 -0.4273 -0.5197 -0.5085
 5475TIP3   OH237915   1.587   5.470  11.251  0.2974  0.2699 -0.1919
 5475TIP3    H137916   1.670   5.435  11.217  1.2281  1.3054  0.9105
 5475TIP3    H237917   1.597   5.565  11.246  0.3502  0.4833  2.4913
 5476TIP3   OH237918   5.268   4.367   5.469  0.3052 -0.3458  0.3282
 5476TIP3    H137919   5.253   4.325   5.384 -1.0846 -1.6694  1.1849
 5476TIP3    H237920   5.267   4.295   5.532 -0.2449  0.7691  1.6453
 5477TIP3   OH237921   5.623   2.692   5.847 -0.0060 -0.5559  0.0034
 5477TIP3    H137922   5.542   2.643   5.833 -1.0666  1.4819 -1.4851
 5477TIP3    H237923   5.652   2.666   5.935 -1.0283 -3.0010 -0.3049
 5478TIP3   OH237924   3.175   3.775   6.625  0.2556 -0.4310 -0.0023
 5478TIP3    H137925   3.130   3.746   6.704  0.7345 -0.0345  0.4232
 5478TIP3    H237926   3.258   3.729   6.626  0.6650  0.3015  0.2329
 5479TIP3   OH237927   3.513   2.460   4.279 -0.6777 -0.3468 -0.2391
 5479TIP3    H137928   3.544   2.512   4.353  1.3633 -0.2481 -1.0938
 5479TIP3    H237929   3.450   2.517   4.234 -1.3068 -0.0969  0.9265
 5480TIP3   OH237930   2.096   1.947   5.749 -0.3942 -0.3640 -0.0484
 5480TIP3    H137931   2.139   2.024   5.787 -0.7476  0.8514 -1.9780
 5480TIP3    H237932   2.160   1.912   5.687 -0.2200 -1.7016  0.8516
 5481TIP3   OH237933   0.003   3.172  13.425 -0.0666 -0.2249  0.0765
 5481TIP3    H137934  -0.093   3.174  13.428 -0.1263 -1.3492 -0.5439
 5481TIP3    H237935   0.023   3.118  13.348  1.0829  2.4655 -1.6389
 5482TIP3   OH237936   1.569   3.473   4.682 -0.0487  0.4085  0.6642
 5482TIP3    H137937   1.490   3.500   4.634 -0.4767  2.4363  2.3511
 5482TIP3    H237938   1.640   3.522   4.641 -0.1291  0.7169  0.8840
 5483TIP3   OH237939   5.267   1.184   1.347 -0.2572 -0.2617  0.2108
 5483TIP3    H137940   5.344   1.207   1.296  0.3165 -0.4306  0.9812
 5483TIP3    H237941   5.273   1.089   1.360 -0.8693 -0.3548 -0.1634
 5484TIP3   OH237942   2.630   3.943  16.780 -0.5220 -0.0810  0.2675
 5484TIP3    H137943   2.670   3.866  16.739 -1.2299  0.6845 -2.0057
 5484TIP3    H237944   2.705   3.996  16.810 -0.0273 -1.3872  1.4456
 5485TIP3   OH237945   6.466   3.730  12.057  0.2661  0.3933  0.0231
 5485TIP3    H137946   6.465   3.634  12.058  1.2606  0.3397 -1.4265
 5485TIP3    H237947   6.377   3.755  12.082  0.1843 -0.8805  1.1142
 5486TIP3   OH237948   1.508   5.799   3.215 -0.0429 -0.3881 -0.0093
 5486TIP3    H137949   1.580   5.768   3.161  0.0253  0.8952 -0.7093
 5486TIP3    H237950   1.539   5.882   3.251  0.3906 -1.7505  3.0591
 5487TIP3   OH237951   3.866   0.763   3.354  0.0374 -0.1832 -0.2779
 5487TIP3    H137952   3.900   0.788   3.441  0.8143  2.2023 -1.1961
 5487TIP3    H237953   3.945   0.751   3.301 -0.4567  1.5573 -1.4511
 5488TIP3   OH237954   3.523   2.963   5.638  0.3459 -0.4887  0.1311
 5488TIP3    H137955   3.584   2.926   5.702  0.1995  0.1950  0.6767
 5488TIP3    H237956   3.546   3.055   5.632  0.2719 -0.5140 -0.7171
 5489TIP3   OH237957   0.052   2.989  13.798  1.1284 -0.2815 -0.1169
 5489TIP3    H137958   0.100   2.906  13.806  0.3088 -1.2282 -3.3743
 5489TIP3    H237959  -0.021   2.980  13.860  0.8277 -2.2163 -0.6687
 5490TIP3   OH237960   3.656   6.232  14.071  0.4365 -0.7633 -0.4971
 5490TIP3    H137961   3.651   6.327  14.085  1.3823 -0.5830 -1.2640
 5490TIP3    H237962   3.571   6.209  14.034  0.6007  0.0120 -1.4239
 5491TIP3   OH237963   0.178   4.433  13.035 -0.5246  0.0649 -0.3392
 5491TIP3    H137964   0.134   4.350  13.053 -0.1178 -0.2006 -0.5652
 5491TIP3    H237965   0.141   4.494  13.099 -0.2878 -0.4726  0.3184
 5492TIP3   OH237966   5.578   3.711  12.215  0.1778 -0.6028 -0.1187
 5492TIP3    H137967   5.490   3.742  12.237 -0.3126 -2.6111  0.9864
 5492TIP3    H237968   5.633   3.737  12.288  0.7317  1.3234 -1.1533
 5493TIP3   OH237969   2.444   1.770  17.297  0.1965  0.2539 -0.0486
 5493TIP3    H137970   2.499   1.766  17.219  1.0413  0.4677  0.5298
 5493TIP3    H237971   2.354   1.761  17.263  0.5982 -0.4509 -0.9555
 5494TIP3   OH237972   1.680   5.213  15.950  0.7902 -0.2499  0.0559
 5494TIP3    H137973   1.644   5.269  16.018 -0.2114  1.0651 -1.5076
 5494TIP3    H237974   1.775   5.220  15.960  0.6785 -0.8135  1.8546
 5495TIP3   OH237975   0.823   6.609   6.236  0.3737  0.1471 -0.1400
 5495TIP3    H137976   0.919   6.605   6.236  0.4143 -0.1076 -2.1246
 5495TIP3    H237977   0.803   6.701   6.219  0.4275 -0.3285 -3.5935
 5496TIP3   OH237978   5.579   0.305   3.777  0.1783  0.3490  0.4001
 5496TIP3    H137979   5.607   0.256   3.700  1.3604  1.2754  0.2029
 5496TIP3    H237980   5.622   0.390   3.768 -1.5801  1.3468  0.8704
 5497TIP3   OH237981   4.146   4.028   4.905 -0.4545  0.1181 -0.3569
 5497TIP3    H137982   4.085   4.014   4.977 -0.1059 -0.1667 -0.1098
 5497TIP3    H237983   4.170   4.120   4.911 -1.4011  0.4120 -0.8973
 5498TIP3   OH237984   5.621   0.479  11.230 -0.2772 -0.5493 -0.1800
 5498TIP3    H137985   5.628   0.573  11.247  0.7057 -0.3151 -1.6523
 5498TIP3    H237986   5.656   0.438  11.309  0.5281  0.3626 -0.0365
 5499TIP3   OH237987   3.513   1.214  17.012  0.6787  0.3734 -0.1655
 5499TIP3    H137988   3.428   1.250  17.038  0.9092 -0.2177  1.5026
 5499TIP3    H237989   3.511   1.215  16.916 -1.9890 -1.3820 -0.2256
 5500TIP3   OH237990   4.377   4.128  14.634 -0.6334  0.3128  0.0576
 5500TIP3    H137991   4.410   4.192  14.570  1.0563 -1.3678 -0.8624
 5500TIP3    H237992   4.285   4.116  14.611  0.2193 -1.2908 -3.1328
 5501TIP3   OH237993   2.654   6.006   5.801  0.3747 -0.3015  0.0865
 5501TIP3    H137994   2.654   6.099   5.780 -1.0599 -0.4402 -0.6508
 5501TIP3    H237995   2.704   6.000   5.882  2.8697  0.7315 -1.2504
 5502TIP3   OH237996   6.654   5.437  16.142 -0.7386 -0.3050 -0.5259
 5502TIP3    H137997   6.626   5.517  16.098 -1.9976 -0.2355  0.3457
 5502TIP3    H237998   6.627   5.366  16.084  0.0822 -0.1319 -1.1423
 5503TIP3   OH237999   4.560   4.291   5.639 -0.1607  0.3786  0.0879
 5503TIP3    H138000   4.500   4.220   5.663  1.1089 -0.7014  0.2079
 5503TIP3    H238001   4.574   4.339   5.721  0.8649 -0.7479  0.6143
 5504TIP3   OH238002   4.794   1.016  12.352 -0.0835 -0.3971  0.4804
 5504TIP3    H138003   4.700   1.031  12.355 -0.1571  0.8247 -2.9596
 5504TIP3    H238004   4.804   0.930  12.312  0.1961  0.1191 -0.6079
 5505TIP3   OH238005   2.593   5.984   5.438 -0.5578  0.2151  0.8144
 5505TIP3    H138006   2.585   6.075   5.467 -0.3607  0.2690  0.7008
 5505TIP3    H238007   2.687   5.969   5.432 -0.5801  0.7524 -1.5161
 5506TIP3   OH238008   0.458   2.797  14.054  0.5717  0.5105  0.5700
 5506TIP3    H138009   0.430   2.708  14.075  0.1449  0.8575  1.5101
 5506TIP3    H238010   0.504   2.788  13.970 -1.2948 -0.2591 -0.4225
 5507TIP3   OH238011   4.692   3.242   5.436 -0.3341 -0.2525 -0.4937
 5507TIP3    H138012   4.613   3.192   5.455 -0.3693  0.5447  1.6620
 5507TIP3    H238013   4.762   3.176   5.434 -0.3780 -0.4719  2.3434
 5508TIP3   OH238014   2.943   3.734   4.871  0.0274  0.5769  0.5217
 5508TIP3    H138015   2.967   3.665   4.933 -0.4819 -1.7623 -1.6926
 5508TIP3    H238016   2.946   3.691   4.786 -2.8267  2.6375 -0.7660
 5509TIP3   OH238017   3.743   0.676   5.056 -0.0425  0.5613  0.0658
 5509TIP3    H138018   3.777   0.715   5.137  0.6350 -1.3576  0.7430
 5509TIP3    H238019   3.668   0.731   5.033 -0.0921  1.3005  1.8469
 5510TIP3   OH238020   2.570   5.466   5.710  0.1386 -0.3389  0.8397
 5510TIP3    H138021   2.484   5.481   5.748  0.5861  0.8592  1.4176
 5510TIP3    H238022   2.552   5.433   5.622 -0.9024 -0.8568  1.2315
 5511TIP3   OH238023   0.597   4.279  10.973  0.0961  0.1030  0.3535
 5511TIP3    H138024   0.668   4.248  11.030 -1.5554  0.7694  2.9761
 5511TIP3    H238025   0.542   4.203  10.959  0.3295  0.0153 -0.0982
 5512TIP3   OH238026   1.949   2.215  11.168 -0.2737  0.1264 -0.1654
 5512TIP3    H138027   1.900   2.294  11.145 -0.3105  0.4647  1.0102
 5512TIP3    H238028   1.906   2.145  11.119 -0.6773  0.7322 -0.6838
 5513TIP3   OH238029   3.944   1.439   2.804 -0.2560 -0.3447  0.0369
 5513TIP3    H138030   4.030   1.472   2.830  0.1687  0.1267 -1.7989
 5513TIP3    H238031   3.887   1.515   2.810 -0.2196 -0.3073 -0.0710
 5514TIP3   OH238032   4.161   5.636   6.366 -0.5062  0.0075  0.0974
 5514TIP3    H138033   4.100   5.674   6.303 -1.5237  0.1971  1.1622
 5514TIP3    H238034   4.128   5.547   6.380  0.7173 -0.6383 -0.8985
 5515TIP3   OH238035   5.010   1.259  11.764 -0.1171 -0.4110  0.4318
 5515TIP3    H138036   5.037   1.291  11.850  1.0878 -0.8298  0.2219
 5515TIP3    H238037   4.977   1.171  11.781  1.6542 -1.1393  0.2621
 5516TIP3   OH238038   2.750   1.847   4.371  0.4459 -0.5691  0.0760
 5516TIP3    H138039   2.703   1.765   4.387 -2.1171  0.6889 -0.5720
 5516TIP3    H238040   2.725   1.904   4.443 -2.0071  1.2999 -2.0866
 5517TIP3   OH238041   0.122   3.902   4.611 -0.0100  0.5681  0.3480
 5517TIP3    H138042   0.191   3.957   4.649  0.3804  0.0998  0.3237
 5517TIP3    H238043   0.166   3.822   4.586 -0.8009 -0.2922  1.5643
 5518TIP3   OH238044   2.152   5.500  10.749  0.3187  0.0322  0.3438
 5518TIP3    H138045   2.214   5.562  10.711  0.8601 -0.6113  0.1567
 5518TIP3    H238046   2.067   5.524  10.712  0.6779  0.0496 -0.4839
 5519TIP3   OH238047   4.116   3.765  16.623 -0.4446 -0.1617 -0.2621
 5519TIP3    H138048   4.088   3.835  16.564 -1.5611 -0.4906 -0.1465
 5519TIP3    H238049   4.092   3.685  16.578  0.8248 -0.4967 -0.3935
 5520TIP3   OH238050   1.781   5.734  11.497 -0.1132  0.4189 -0.2111
 5520TIP3    H138051   1.756   5.748  11.406 -1.2586 -1.6461 -0.2671
 5520TIP3    H238052   1.717   5.784  11.547 -0.0225  0.8350 -0.4995
 5521TIP3   OH238053   0.832   6.424   3.683  0.3148 -0.8751  0.5289
 5521TIP3    H138054   0.796   6.466   3.761 -0.2139 -0.3228  0.0072
 5521TIP3    H238055   0.885   6.352   3.716 -1.2439 -1.6947  1.3389
 5522TIP3   OH238056   2.612   2.137   2.549  0.0590  0.1377  0.5471
 5522TIP3    H138057   2.653   2.067   2.498  0.0285 -0.5374  1.4230
 5522TIP3    H238058   2.584   2.094   2.630 -1.3215  0.8489  0.4634
 5523TIP3   OH238059   1.302   3.377  17.293  0.2204 -0.2547  0.2285
 5523TIP3    H138060   1.266   3.289  17.304 -0.3495 -0.1853 -0.9860
 5523TIP3    H238061   1.234   3.435  17.329 -0.8401 -0.1395 -1.8373
 5524TIP3   OH238062   2.331   0.852  16.440 -0.2440  0.1768 -0.1612
 5524TIP3    H138063   2.319   0.946  16.447 -0.2537  0.0869  1.5023
 5524TIP3    H238064   2.343   0.836  16.347  1.2645  2.0000 -0.3467
 5525TIP3   OH238065   3.167   0.893  16.110 -0.5483  0.2980  0.3559
 5525TIP3    H138066   3.197   0.840  16.184 -0.6673 -0.1542  0.0861
 5525TIP3    H238067   3.193   0.982  16.132 -1.4325  0.3170  1.3988
 5526TIP3   OH238068   0.876   2.245   0.894 -0.2698 -0.1348  0.6149
 5526TIP3    H138069   0.872   2.152   0.913 -0.8258  0.0935  1.7085
 5526TIP3    H238070   0.872   2.250   0.798 -0.3499 -1.2219  0.5471
 5527TIP3   OH238071   4.427   3.542  16.106 -0.2483  0.7655  0.8247
 5527TIP3    H138072   4.420   3.526  16.012 -1.4920 -0.0917  1.0310
 5527TIP3    H238073   4.508   3.592  16.116  1.4621 -1.5290 -0.4023
 5528TIP3   OH238074   0.825   3.454  16.836  0.2305 -0.3602  0.1229
 5528TIP3    H138075   0.877   3.463  16.757  2.3263 -1.0506  1.3358
 5528TIP3    H238076   0.781   3.370  16.827  0.8905 -0.6859 -0.0640
 5529TIP3   OH238077   5.999   5.707  13.221  0.1471 -0.1761  0.8499
 5529TIP3    H138078   6.016   5.795  13.255 -0.6558 -0.1697  1.2701
 5529TIP3    H238079   6.055   5.650  13.273 -0.7973 -0.1203  1.9738
 5530TIP3   OH238080   1.714   2.702   0.177 -0.3846  0.2029  0.6607
 5530TIP3    H138081   1.640   2.701   0.238 -0.8367 -1.5509  0.1650
 5530TIP3    H238082   1.715   2.613   0.141  2.0354  0.1445  0.7219
 5531TIP3   OH238083   0.287   2.367  14.413 -0.5764 -0.1472  0.1451
 5531TIP3    H138084   0.323   2.282  14.387  0.0733 -0.5300  2.1209
 5531TIP3    H238085   0.266   2.356  14.506 -0.9278  1.7204  0.3163
 5532TIP3   OH238086   5.363   6.020   1.547 -0.0063 -0.6126  0.5428
 5532TIP3    H138087   5.436   6.009   1.487 -1.0890 -0.3739 -0.8601
 5532TIP3    H238088   5.402   6.057   1.626  1.3037  0.0238 -0.3686
 5533TIP3   OH238089   1.288   2.931   4.451  0.0436 -0.2510  0.2485
 5533TIP3    H138090   1.344   2.994   4.405 -0.4341 -0.0473 -0.0623
 5533TIP3    H238091   1.230   2.897   4.383 -2.3093  1.8013  1.0979
 5534TIP3   OH238092   2.339   1.411  13.705 -0.6673 -0.3481 -0.0981
 5534TIP3    H138093   2.301   1.460  13.631 -1.8271  0.3102  0.8816
 5534TIP3    H238094   2.299   1.452  13.782  0.2076 -1.2874  0.8693
 5535TIP3   OH238095   2.749   0.782   3.129 -0.2047  0.3199 -0.0686
 5535TIP3    H138096   2.727   0.851   3.067 -0.3759  0.0914 -0.2636
 5535TIP3    H238097   2.844   0.774   3.124  0.0831  2.0483  1.5524
 5536TIP3   OH238098   1.541   2.190   0.614  0.2364 -0.0367 -0.0223
 5536TIP3    H138099   1.608   2.169   0.548  1.5305  0.3636  1.1161
 5536TIP3    H238100   1.463   2.211   0.563  1.0691 -0.1929 -1.4127
 5537TIP3   OH238101   6.085   4.592   1.910 -0.1777 -1.0432 -0.3806
 5537TIP3    H138102   6.161   4.603   1.853  1.1828 -1.1297  1.3317
 5537TIP3    H238103   6.027   4.533   1.862 -0.1603  0.6577 -2.6207
 5538TIP3   OH238104   2.909   5.373  12.638  0.3458 -0.2253  0.4854
 5538TIP3    H138105   2.872   5.343  12.555  0.8620  0.5621 -0.0364
 5538TIP3    H238106   2.968   5.302  12.665  0.9542 -0.0362 -0.3370
 5539TIP3   OH238107   6.541   4.732  10.843  0.0762 -0.0278 -0.3297
 5539TIP3    H138108   6.498   4.648  10.826  2.5031 -1.0224 -2.1699
 5539TIP3    H238109   6.476   4.797  10.820 -2.1681 -1.3114  1.9214
 5540TIP3   OH238110   1.143   5.660  14.607  0.0684 -0.4858  0.1665
 5540TIP3    H138111   1.079   5.692  14.544 -0.0348 -1.2370 -0.1148
 5540TIP3    H238112   1.097   5.665  14.691  0.2024  0.5032  0.1899
 5541TIP3   OH238113   0.395   0.773  12.813  0.3329  0.5404  0.2988
 5541TIP3    H138114   0.488   0.748  12.814 -0.0374 -0.9791  1.7736
 5541TIP3    H238115   0.390   0.851  12.868  0.4859 -0.7020  2.2033
 5542TIP3   OH238116   3.043   4.146  12.372  0.1181  0.0793  0.4392
 5542TIP3    H138117   3.110   4.203  12.335 -0.4622  0.0212 -0.7668
 5542TIP3    H238118   3.066   4.138  12.465  2.2939 -0.6660 -0.1083
 5543TIP3   OH238119   3.459   0.161   4.619  0.1420  0.4752  0.0371
 5543TIP3    H138120   3.458   0.169   4.714 -1.1582 -0.0674  0.0904
 5543TIP3    H238121   3.514   0.084   4.602 -0.3764  0.0199  0.4066
 5544TIP3   OH238122   0.670   1.071  13.019  0.6064  0.2740  0.0755
 5544TIP3    H138123   0.669   1.160  12.982 -1.3098  0.7131  1.0633
 5544TIP3    H238124   0.688   1.084  13.112 -0.6869 -0.2544  0.4215
 5545TIP3   OH238125   0.962   5.546   5.504 -0.0617 -0.4311 -0.9385
 5545TIP3    H138126   0.908   5.622   5.525  0.2370 -0.7396  1.2000
 5545TIP3    H238127   1.047   5.582   5.480  0.5898 -0.0104  1.6254
 5546TIP3   OH238128   0.117   5.868   4.967 -0.1702 -0.1653  0.3299
 5546TIP3    H138129   0.121   5.853   5.061  1.2354 -1.0832  0.1536
 5546TIP3    H238130   0.080   5.788   4.931 -1.9280  0.6753  0.1825
 5547TIP3   OH238131   6.208   2.117   3.292 -0.5084 -0.2243  0.5492
 5547TIP3    H138132   6.170   2.196   3.253  2.5850  1.2747  0.2821
 5547TIP3    H238133   6.133   2.064   3.316 -2.6971  1.9081 -1.0799
 5548TIP3   OH238134   0.016   2.401  13.999 -0.1314  0.1607 -0.3751
 5548TIP3    H138135   0.046   2.350  14.074 -2.0937 -0.1945  0.2189
 5548TIP3    H238136   0.071   2.371  13.926  0.8898 -0.4672  0.6199
 5549TIP3   OH238137   3.339   5.569   1.366  0.2108 -0.4001 -0.6294
 5549TIP3    H138138   3.272   5.557   1.433 -0.6212 -0.7763 -1.5174
 5549TIP3    H238139   3.400   5.497   1.380  0.4334 -0.0755  0.1580
 5550TIP3   OH238140   4.077   5.597  11.366 -0.3930  0.1421  0.9825
 5550TIP3    H138141   4.160   5.614  11.409 -0.3640 -0.9444  1.4049
 5550TIP3    H238142   4.012   5.599  11.436 -0.4796 -0.6702  0.9439
 5551TIP3   OH238143   5.376   2.897  16.300  0.7681 -0.1229  0.5714
 5551TIP3    H138144   5.353   2.805  16.298  0.4020 -0.0352  0.6918
 5551TIP3    H238145   5.449   2.905  16.239 -0.7953 -0.0535 -1.4109
 5552TIP3   OH238146   3.478   6.298  12.967 -0.2676 -0.3748  0.1293
 5552TIP3    H138147   3.475   6.212  13.008 -1.1957  0.1651  1.2110
 5552TIP3    H238148   3.464   6.280  12.874  0.4812 -1.4677  0.2034
 5553TIP3   OH238149   2.831   5.624  11.163  0.3179 -0.0826 -0.1622
 5553TIP3    H138150   2.756   5.653  11.215  0.5196 -0.1466  0.1693
 5553TIP3    H238151   2.814   5.531  11.148  0.9441 -0.4010  0.9913
 5554TIP3   OH238152   0.570   1.021  11.733  0.1085  0.0090 -0.1118
 5554TIP3    H138153   0.640   0.958  11.747 -0.2614 -0.5006 -0.5049
 5554TIP3    H238154   0.517   0.983  11.662 -1.3359 -0.2959  1.0641
 5555TIP3   OH238155   5.923   4.137   0.972 -0.1688 -0.0676  0.6693
 5555TIP3    H138156   5.953   4.204   0.911 -1.2415  1.7092  1.9912
 5555TIP3    H238157   5.957   4.055   0.937  0.7824  1.1007 -1.2796
 5556TIP3   OH238158   5.395   0.386  14.448 -0.2504 -0.3408 -0.7481
 5556TIP3    H138159   5.378   0.464  14.395 -0.1444  0.4817  0.4008
 5556TIP3    H238160   5.491   0.379  14.449 -0.2057  0.3088  0.2582
 5557TIP3   OH238161   5.993   3.129  14.536 -0.3568  0.1356 -0.1768
 5557TIP3    H138162   5.908   3.101  14.571  0.1078 -0.8381  0.2080
 5557TIP3    H238163   6.054   3.117  14.608  0.2753 -0.0440 -0.7283
 5558TIP3   OH238164   1.248   0.607   0.125  0.2793 -0.3886 -0.3245
 5558TIP3    H138165   1.176   0.577   0.070 -0.5094 -0.5669  0.7546
 5558TIP3    H238166   1.242   0.702   0.123  0.9778 -0.3586 -1.4516
 5559TIP3   OH238167   3.823   2.448  14.426  0.3180  0.1959 -0.4139
 5559TIP3    H138168   3.827   2.520  14.488 -0.6493 -0.4258  0.3985
 5559TIP3    H238169   3.885   2.472  14.358  1.2818  0.9747  0.7006
 5560TIP3   OH238170   5.501   1.943   3.687  0.0831 -0.0705 -0.1834
 5560TIP3    H138171   5.410   1.958   3.661  0.5563  1.4941 -1.0496
 5560TIP3    H238172   5.537   1.887   3.619  0.0496  0.1817 -0.4095
 5561TIP3   OH238173   3.568   3.160   2.370 -0.4130  0.1110  0.1582
 5561TIP3    H138174   3.592   3.068   2.367 -0.1949  0.1949 -1.8136
 5561TIP3    H238175   3.647   3.207   2.340 -0.4352  0.9734  1.3610
 5562TIP3   OH238176   4.393   2.541   0.059  0.2531  0.7493  0.4395
 5562TIP3    H138177   4.443   2.460   0.046  0.3069  0.8475  0.0212
 5562TIP3    H238178   4.445   2.608   0.014  0.9240  1.2805  1.9298
 5563TIP3   OH238179   4.356   2.917   5.333  0.2376 -0.4048  0.0601
 5563TIP3    H138180   4.414   2.902   5.258  1.1414  1.4112  0.3455
 5563TIP3    H238181   4.287   2.974   5.299 -0.2481 -0.8786  0.2354
 5564TIP3   OH238182   0.604   1.746  13.434  0.1238  0.4932  0.3337
 5564TIP3    H138183   0.568   1.795  13.360  1.2484  0.4714 -0.2523
 5564TIP3    H238184   0.551   1.772  13.509 -1.6387 -0.1599 -0.6193
 5565TIP3   OH238185   4.650   4.123  16.635 -0.3009  0.2656 -0.4943
 5565TIP3    H138186   4.739   4.160  16.637 -0.6380  1.1129 -0.9146
 5565TIP3    H238187   4.617   4.137  16.724  0.6332 -1.7328  0.2373
 5566TIP3   OH238188   6.621   2.778  10.992 -0.1399  0.5032 -0.2577
 5566TIP3    H138189   6.605   2.749  10.902  0.3145  0.7063 -0.4048
 5566TIP3    H238190   6.541   2.754  11.039 -0.5210  0.7024 -0.7912
 5567TIP3   OH238191   0.093   5.654  14.153 -0.4051 -0.2595 -0.1899
 5567TIP3    H138192   0.035   5.629  14.225 -1.3417  0.1284 -0.7809
 5567TIP3    H238193   0.037   5.704  14.094  0.6371  0.4355 -0.6143
 5568TIP3   OH238194   0.529   3.750  15.013  0.1434 -0.7666 -0.6209
 5568TIP3    H138195   0.470   3.755  14.937 -0.2526 -0.1510 -0.2839
 5568TIP3    H238196   0.598   3.813  14.994 -0.9452  0.7887  0.3417
 5569TIP3   OH238197   6.117   3.141  13.705 -0.2213 -0.4838  0.0597
 5569TIP3    H138198   6.078   3.138  13.617 -0.7370 -0.5431  0.2891
 5569TIP3    H238199   6.111   3.233  13.731 -1.2387 -0.6804  0.5509
 5570TIP3   OH238200   1.400   5.739   3.480  0.4026 -0.0530  0.2799
 5570TIP3    H138201   1.454   5.765   3.405  1.6168 -4.2863 -0.5605
 5570TIP3    H238202   1.460   5.743   3.555  0.9881 -1.5182 -0.0783
 5571TIP3   OH238203   6.252   0.744   4.644 -0.3936  0.4950 -0.3156
 5571TIP3    H138204   6.178   0.790   4.685 -0.2186 -0.6381  1.3747
 5571TIP3    H238205   6.212   0.666   4.604 -0.5382  1.5130 -2.2482
 5572TIP3   OH238206   0.578   1.372   1.228  0.0100  0.4759 -0.0478
 5572TIP3    H138207   0.518   1.431   1.273  0.5807  0.3275  0.9212
 5572TIP3    H238208   0.535   1.355   1.144 -0.3925  1.8743 -0.1569
 5573TIP3   OH238209   1.486   2.819   6.076  0.0716  0.1091  0.0674
 5573TIP3    H138210   1.556   2.837   6.139 -0.7477  1.4391  0.6429
 5573TIP3    H238211   1.460   2.728   6.095  0.0765  0.3659  1.4322
 5574TIP3   OH238212   5.441   6.106  11.123 -0.4132  0.3262 -0.1438
 5574TIP3    H138213   5.518   6.053  11.100 -0.4696 -0.9897  2.3441
 5574TIP3    H238214   5.466   6.195  11.098  1.6131 -0.1664 -0.1119
 5575TIP3   OH238215   0.417   3.370  17.256  0.1335 -0.0171  0.2286
 5575TIP3    H138216   0.344   3.402  17.204  1.8052  0.9449 -1.6737
 5575TIP3    H238217   0.411   3.419  17.339 -1.0793  0.4124 -0.1018
 5576TIP3   OH238218   0.362   2.491  11.945 -0.8698  0.0509 -0.7692
 5576TIP3    H138219   0.277   2.451  11.925 -1.0779 -0.4436  0.9899
 5576TIP3    H238220   0.353   2.523  12.034  0.0576  2.0395 -1.3312
 5577TIP3   OH238221   4.894   4.324  11.953  0.3583 -0.4917  0.2992
 5577TIP3    H138222   4.935   4.237  11.956  0.3814 -0.4532  1.4253
 5577TIP3    H238223   4.806   4.311  11.986  0.3343 -0.0995  0.3975
 5578TIP3   OH238224   1.957   5.490  13.056 -0.2863  0.0884  0.3105
 5578TIP3    H138225   1.933   5.534  12.975  0.7828  1.9994  0.9590
 5578TIP3    H238226   1.949   5.558  13.123  3.3595 -0.0418  1.0771
 5579TIP3   OH238227   0.692   5.849   4.138  0.3902  0.4372  0.3838
 5579TIP3    H138228   0.753   5.812   4.074  0.6935 -1.3039  1.6018
 5579TIP3    H238229   0.607   5.813   4.113 -0.2294  2.8942 -1.3358
 5580TIP3   OH238230   2.087   0.642   0.480 -0.4118 -0.6417  0.1784
 5580TIP3    H138231   2.140   0.654   0.559  0.1752  3.2904 -0.5830
 5580TIP3    H238232   1.997   0.646   0.510 -0.2009 -0.6046  0.8195
 5581TIP3   OH238233   4.730   0.451  12.338  0.7811 -0.3922  0.0796
 5581TIP3    H138234   4.725   0.387  12.409 -2.4935 -0.4014 -0.0004
 5581TIP3    H238235   4.704   0.534  12.380 -1.0363 -0.3660 -0.9867
 5582TIP3   OH238236   2.771   2.281  13.630  0.0450 -0.0557 -0.1078
 5582TIP3    H138237   2.842   2.251  13.573 -0.7423 -0.6941 -0.7945
 5582TIP3    H238238   2.720   2.202  13.648  0.5905  0.0160  1.9870
 5583TIP3   OH238239   4.529   5.777   2.499 -0.5362  0.3037  0.1053
 5583TIP3    H138240   4.498   5.825   2.576 -0.2616  0.0850  0.3546
 5583TIP3    H238241   4.573   5.700   2.535  1.6163  1.3363 -0.1671
 5584TIP3   OH238242   2.059   0.162  16.032 -0.2923  0.4288 -0.6584
 5584TIP3    H138243   1.972   0.158  15.994 -0.1540  0.2910 -0.9670
 5584TIP3    H238244   2.106   0.089  15.992 -0.8633 -1.2923  1.6037
 5585TIP3   OH238245   5.263   6.687   0.767  0.1385 -0.4165 -0.4570
 5585TIP3    H138246   5.249   6.767   0.716  1.2874 -0.2715 -0.5825
 5585TIP3    H238247   5.179   6.670   0.809 -0.5643 -0.0034 -1.6433
 5586TIP3   OH238248   1.911   4.473   3.941  0.4979  0.0268  0.2670
 5586TIP3    H138249   1.991   4.465   3.889 -0.1937 -0.4976 -0.7542
 5586TIP3    H238250   1.844   4.428   3.889 -0.5117  0.6402  0.9983
 5587TIP3   OH238251   3.565   4.943   4.881  0.3053  0.3926 -0.0837
 5587TIP3    H138252   3.560   4.940   4.785 -2.0533  0.6100 -0.0309
 5587TIP3    H238253   3.658   4.956   4.900  0.6524  1.8953 -2.3992
 5588TIP3   OH238254   4.165   5.465   0.485  0.0558 -0.1887  0.2605
 5588TIP3    H138255   4.182   5.558   0.500  1.3893 -0.5065  0.8472
 5588TIP3    H238256   4.126   5.462   0.397  2.1284  0.7460 -0.7778
 5589TIP3   OH238257   2.515   0.600  16.089  0.4827  1.1327 -0.1092
 5589TIP3    H138258   2.576   0.674  16.091  0.4447  1.1539  0.3169
 5589TIP3    H238259   2.526   0.562  16.002  2.3407  0.1143  0.5239
 5590TIP3   OH238260   0.465   4.949  16.433 -0.9974 -0.0949 -0.1944
 5590TIP3    H138261   0.422   4.987  16.356 -1.5643 -1.9197 -0.8516
 5590TIP3    H238262   0.443   5.008  16.504 -0.2320  1.8069 -1.4573
 5591TIP3   OH238263   0.134   4.466   6.253  0.0110  0.4175  0.4205
 5591TIP3    H138264   0.147   4.410   6.178  1.3030  1.4853 -0.1889
 5591TIP3    H238265   0.220   4.474   6.293 -0.3203  1.2443  1.0053
 5592TIP3   OH238266   2.603   0.893   3.725  0.6766 -0.1698 -0.0814
 5592TIP3    H138267   2.672   0.864   3.665 -0.9201  0.0597 -2.1201
 5592TIP3    H238268   2.562   0.967   3.681  0.1383  0.7314  1.8253
 5593TIP3   OH238269   6.290   2.110   2.909 -0.5346  0.0591  0.2998
 5593TIP3    H138270   6.223   2.068   2.855 -0.7798  1.4583 -0.5420
 5593TIP3    H238271   6.241   2.169   2.966 -0.0363  1.4676 -0.6668
 5594TIP3   OH238272   4.631   5.643  11.395  0.5819  0.0921  0.2148
 5594TIP3    H138273   4.587   5.566  11.431 -2.2372  1.6876  0.5296
 5594TIP3    H238274   4.723   5.619  11.391  0.2033 -2.3133  2.8141
 5595TIP3   OH238275   4.084   2.113  12.714  0.0217  0.0256 -0.2646
 5595TIP3    H138276   3.996   2.130  12.748  0.2937  1.3323 -0.1345
 5595TIP3    H238277   4.142   2.153  12.778  0.6001  1.4121 -1.5845
 5596TIP3   OH238278   4.038   6.435   4.444 -0.0239  0.0755  0.0072
 5596TIP3    H138279   4.091   6.478   4.377 -0.5378  2.7699  1.2173
 5596TIP3    H238280   4.094   6.364   4.476  1.3050  0.4526 -1.3434
 5597TIP3   OH238281   1.449   1.316   3.331  0.2296 -0.4579  0.2859
 5597TIP3    H138282   1.379   1.380   3.343 -0.4910 -0.8445 -1.4774
 5597TIP3    H238283   1.404   1.233   3.314  1.0113 -0.4749 -2.1482
 5598TIP3   OH238284   6.423   1.336  15.095  0.2224 -0.1784  0.2562
 5598TIP3    H138285   6.443   1.392  15.170  0.6751  0.9581 -0.6794
 5598TIP3    H238286   6.394   1.254  15.133 -0.9341  0.8500  1.6969
 5599TIP3   OH238287   5.388   2.119  11.415 -0.3297 -0.1907  0.0902
 5599TIP3    H138288   5.376   2.148  11.506 -1.2647 -0.7693  0.1643
 5599TIP3    H238289   5.302   2.084  11.390  0.8114 -3.3789  0.1978
 5600TIP3   OH238290   0.073   3.044   5.383  0.6367  0.1792 -0.0502
 5600TIP3    H138291   0.017   3.055   5.460  2.2911 -0.1486  1.2646
 5600TIP3    H238292   0.023   2.986   5.325 -0.6074  0.3560  0.8051
 5601TIP3   OH238293   5.999   0.919  16.510 -0.0725 -0.0655  0.0280
 5601TIP3    H138294   5.938   0.852  16.540  1.2481 -0.8068  1.1158
 5601TIP3    H238295   6.084   0.877  16.509  0.3641  0.7049 -2.2786
 5602TIP3   OH238296   6.033   1.318  16.255 -0.3015  0.1906  0.6117
 5602TIP3    H138297   5.999   1.324  16.166  0.4557 -0.2162  0.2846
 5602TIP3    H238298   5.974   1.257  16.299  1.3118 -2.4227 -0.6244
 5603TIP3   OH238299   0.200   1.025  15.569  0.0830 -0.4229 -0.3736
 5603TIP3    H138300   0.237   1.074  15.643 -1.7290 -0.3523  0.5277
 5603TIP3    H238301   0.259   0.951  15.558  1.8670  0.9508 -0.5927
 5604TIP3   OH238302   0.552   2.153  16.295 -0.4480  0.1923  0.2051
 5604TIP3    H138303   0.575   2.077  16.349  0.9677 -0.0750 -0.7299
 5604TIP3    H238304   0.526   2.116  16.211  0.5092  0.7435 -0.3452
 5605TIP3   OH238305   2.845   6.533  11.204 -0.1336  0.5988 -0.0537
 5605TIP3    H138306   2.839   6.479  11.126  0.4483  2.4325 -1.4219
 5605TIP3    H238307   2.761   6.580  11.207  0.1946  1.1946 -0.0920
 5606TIP3   OH238308   2.539   3.543   3.897 -0.3869  0.1209 -0.2847
 5606TIP3    H138309   2.608   3.477   3.892 -0.2414  0.3187 -1.0154
 5606TIP3    H238310   2.480   3.512   3.966 -0.2095 -0.6683 -0.4820
 5607TIP3   OH238311   5.680   6.149   3.277 -0.4326 -0.4855 -0.1356
 5607TIP3    H138312   5.676   6.056   3.254 -1.2519 -0.7910  1.1260
 5607TIP3    H238313   5.635   6.193   3.205 -0.7169 -1.1472 -0.3691
 5608TIP3   OH238314   1.636   0.530   2.507 -0.3197  0.2263  0.0056
 5608TIP3    H138315   1.590   0.494   2.582  1.2438  0.1363  0.9677
 5608TIP3    H238316   1.708   0.469   2.492  0.0654  0.8659 -0.8318
 5609TIP3   OH238317   3.131   3.283  12.399  0.3866 -0.2223 -0.1030
 5609TIP3    H138318   3.163   3.234  12.324  1.6317  0.3498  0.0364
 5609TIP3    H238319   3.049   3.322  12.369  0.3056 -0.9022 -0.7913
 5610TIP3   OH238320   3.763   6.421   2.654 -0.1255 -0.5849  0.2895
 5610TIP3    H138321   3.758   6.502   2.604  0.1263 -0.2607  0.7781
 5610TIP3    H238322   3.722   6.442   2.738 -1.3813 -1.3827 -0.0989
 5611TIP3   OH238323   0.253   3.118  11.168 -0.3416 -0.5011  0.0545
 5611TIP3    H138324   0.301   3.106  11.086  1.6865  0.7231  0.9779
 5611TIP3    H238325   0.202   3.198  11.154  0.3459 -0.0443  0.1294
 5612TIP3   OH238326   6.166   0.893  12.420 -0.3525  0.0658 -0.1700
 5612TIP3    H138327   6.149   0.976  12.375 -0.0045  0.1906 -0.0722
 5612TIP3    H238328   6.144   0.826  12.355 -3.2071  0.1343  0.5733
 5613TIP3   OH238329   2.612   3.379   2.778 -0.0607  0.3063 -0.3042
 5613TIP3    H138330   2.595   3.399   2.686  1.1045  1.1105 -0.3722
 5613TIP3    H238331   2.650   3.459   2.813 -0.2131 -0.0930  0.8088
 5614TIP3   OH238332   0.295   6.460  11.596  0.8896  0.0108  0.0106
 5614TIP3    H138333   0.210   6.417  11.583  0.8119  0.5271 -1.3908
 5614TIP3    H238334   0.281   6.516  11.672  0.3606 -0.8341  0.5633
 5615TIP3   OH238335   0.667   3.016  15.139  0.1009 -0.0593  0.0073
 5615TIP3    H138336   0.762   3.011  15.130  0.0096  0.0568 -1.2241
 5615TIP3    H238337   0.651   3.101  15.180  0.4424  0.8303 -1.6461
 5616TIP3   OH238338   2.671   0.359  14.659  0.8898  0.0521  0.4505
 5616TIP3    H138339   2.659   0.422  14.730  0.3376  0.1989  0.2268
 5616TIP3    H238340   2.657   0.274  14.700  1.9515  0.0332  0.8281
 5617TIP3   OH238341   1.761   0.207  13.797  0.1373 -0.0013 -0.4204
 5617TIP3    H138342   1.800   0.270  13.859  1.4505  0.0157 -1.2233
 5617TIP3    H238343   1.696   0.160  13.849  0.6260  0.5782  0.7640
 5618TIP3   OH238344   4.066   4.491   5.448 -0.3939 -0.4314  0.2876
 5618TIP3    H138345   4.043   4.400   5.465 -0.7898 -0.5120 -0.6392
 5618TIP3    H238346   3.982   4.535   5.435 -0.1562 -0.1559 -0.3363
 5619TIP3   OH238347   4.775   1.816  13.552 -0.6761 -0.7967  0.2773
 5619TIP3    H138348   4.751   1.745  13.492 -0.3010  0.8051 -1.8946
 5619TIP3    H238349   4.714   1.887  13.532  1.5525  0.9812 -0.6602
 5620TIP3   OH238350   1.663   4.663  12.547  0.2039 -0.2182 -0.3451
 5620TIP3    H138351   1.714   4.708  12.615  0.5717  0.5773 -1.1304
 5620TIP3    H238352   1.610   4.600  12.596 -0.7887  1.4685  0.8920
 5621TIP3   OH238353   3.634   5.856  10.774 -0.1529 -0.1608 -0.1644
 5621TIP3    H138354   3.666   5.929  10.827 -0.3302 -0.9265  1.0357
 5621TIP3    H238355   3.540   5.872  10.766 -0.4589 -0.9790  1.3469
 5622TIP3   OH238356   4.933   2.011   0.565 -0.0154 -0.0305  0.3823
 5622TIP3    H138357   4.901   2.058   0.642 -1.0921  0.0576 -0.1030
 5622TIP3    H238358   4.854   1.980   0.521  0.5777  0.0022 -0.7384
 5623TIP3   OH238359   2.145   3.061   2.709 -0.0063 -0.2255  0.0570
 5623TIP3    H138360   2.203   3.070   2.784  0.1532  0.9894 -0.2013
 5623TIP3    H238361   2.073   3.006   2.741 -0.1276  0.5690  1.2051
 5624TIP3   OH238362   3.852   5.996  12.917 -0.0060 -0.5915  0.2758
 5624TIP3    H138363   3.774   6.029  12.873 -1.4530 -1.9855  1.6329
 5624TIP3    H238364   3.881   6.068  12.973 -0.4859 -0.1420 -0.0483
 5625TIP3   OH238365   6.749   4.193   6.087 -0.0851 -0.5416 -0.3835
 5625TIP3    H138366   6.702   4.276   6.086  0.0551 -0.4085  1.6390
 5625TIP3    H238367   6.690   4.132   6.131  0.7197 -0.9506  0.1511
 5626TIP3   OH238368   0.312   3.561   0.797 -0.4180  0.0853  0.1801
 5626TIP3    H138369   0.235   3.510   0.770 -1.7658  1.7630  0.6944
 5626TIP3    H238370   0.277   3.628   0.856  1.7073 -0.2006  1.9032
 5627TIP3   OH238371   4.815   2.093  12.750 -0.6036  0.0649  0.1756
 5627TIP3    H138372   4.755   2.027  12.716 -1.7470  0.4240  1.4134
 5627TIP3    H238373   4.843   2.059  12.835 -0.2836  0.6227  0.3028
 5628TIP3   OH238374   3.106   3.233   4.225  0.2086 -0.3935  0.3680
 5628TIP3    H138375   3.038   3.168   4.206  0.2571 -0.1351 -0.7719
 5628TIP3    H238376   3.150   3.246   4.141  0.8988  0.3123  0.8325
 5629TIP3   OH238377   2.171   0.075   3.598  0.2368  0.3936 -0.2856
 5629TIP3    H138378   2.198   0.076   3.506 -2.2943  0.9294 -1.1027
 5629TIP3    H238379   2.244   0.034   3.644  1.0649 -1.0578 -2.7050
 5630TIP3   OH238380   0.979   1.020  13.053 -0.1435 -0.1729  0.1533
 5630TIP3    H138381   0.939   1.055  12.974  1.4621  1.2782 -0.0623
 5630TIP3    H238382   0.926   1.055  13.125 -0.0711  0.6024 -0.1717
 5631TIP3   OH238383   5.774   6.189  10.890 -0.2047  1.0778 -0.5541
 5631TIP3    H138384   5.727   6.210  10.810 -0.3393 -0.3035 -0.8539
 5631TIP3    H238385   5.724   6.118  10.931  0.5921  0.8513  0.0673
 5632TIP3   OH238386   2.785   5.491  13.118  0.2943 -0.2374  0.0644
 5632TIP3    H138387   2.867   5.533  13.091  0.3272 -0.4275 -0.1319
 5632TIP3    H238388   2.805   5.398  13.119 -0.6049 -0.5507 -2.5101
 5633TIP3   OH238389   5.818   1.640  15.639 -0.0409  0.0820  0.0065
 5633TIP3    H138390   5.867   1.673  15.714 -0.8809  2.3456 -0.3579
 5633TIP3    H238391   5.730   1.622  15.672  0.1313 -0.8265 -0.0209
 5634TIP3   OH238392   3.292   6.176   1.224 -0.5925  0.1212  0.1874
 5634TIP3    H138393   3.279   6.112   1.154 -1.8640 -0.2156  0.6983
 5634TIP3    H238394   3.287   6.261   1.180  1.9375 -0.0877 -0.6296
 5635TIP3   OH238395   3.199   2.789  12.453  0.5086 -0.2186 -0.0186
 5635TIP3    H138396   3.215   2.839  12.373  0.4235  0.1357  0.1849
 5635TIP3    H238397   3.117   2.743  12.436  0.6104 -0.3279 -0.2228
 5636TIP3   OH238398   1.014   3.048   3.402  0.1841  0.2186  0.5068
 5636TIP3    H138399   0.991   2.957   3.387  2.3044 -0.0921 -1.3885
 5636TIP3    H238400   0.966   3.096   3.334  1.5068  0.1061 -0.5316
 5637TIP3   OH238401   5.235   1.427   3.660 -0.4088  0.6996 -0.2851
 5637TIP3    H138402   5.314   1.373   3.661 -0.2660  0.8828 -0.9616
 5637TIP3    H238403   5.266   1.516   3.676 -0.4762  0.7745 -0.5646
 5638TIP3   OH238404   6.423   5.396   3.924 -0.4072 -0.1629 -0.2695
 5638TIP3    H138405   6.339   5.438   3.945 -2.6685 -3.1140 -2.4444
 5638TIP3    H238406   6.456   5.365   4.008 -2.3653 -0.2853  0.5068
 5639TIP3   OH238407   2.036   1.073   0.184 -0.1662 -0.0443 -0.7037
 5639TIP3    H138408   2.130   1.065   0.196 -0.0159  2.0126 -0.2647
 5639TIP3    H238409   2.025   1.133   0.111 -1.0874  2.0973  1.0906
 5640TIP3   OH238410   1.238   2.317   1.399  0.7492 -0.2637 -0.1209
 5640TIP3    H138411   1.220   2.243   1.458  0.2551  0.9430  1.3035
 5640TIP3    H238412   1.313   2.289   1.347 -1.0491 -2.8595 -1.5746
 5641TIP3   OH238413   0.720   5.954   1.235  0.0700  0.0324 -0.2368
 5641TIP3    H138414   0.660   6.025   1.257 -2.8031 -2.2584 -0.0956
 5641TIP3    H238415   0.704   5.887   1.301  0.7393 -1.7946 -1.8400
 5642TIP3   OH238416   5.556   2.659   3.333 -0.1872 -0.1337  0.0678
 5642TIP3    H138417   5.475   2.656   3.385 -0.5269  0.0772 -0.4390
 5642TIP3    H238418   5.529   2.630   3.246  0.0764  0.8745 -0.3614
 5643TIP3   OH238419   5.014   1.348   3.508 -0.5688  0.0356  0.1701
 5643TIP3    H138420   5.088   1.379   3.560 -0.3315  0.4737 -0.4205
 5643TIP3    H238421   4.956   1.306   3.571 -0.8063  1.5001  0.9721
 5644TIP3   OH238422   3.774   1.361   0.833  0.0250  0.2051 -0.0284
 5644TIP3    H138423   3.725   1.337   0.754  0.3591 -0.1017 -0.1462
 5644TIP3    H238424   3.713   1.413   0.884  1.1822  4.7109 -2.6751
 5645TIP3   OH238425   5.342   2.379  13.176  1.0682 -0.1475 -0.3395
 5645TIP3    H138426   5.391   2.348  13.099  0.7163 -0.4659 -0.4372
 5645TIP3    H238427   5.320   2.470  13.155  1.5490 -0.0262 -0.3304
 5646TIP3   OH238428   3.404   0.415   3.238  0.4569 -0.6347  0.4184
 5646TIP3    H138429   3.462   0.456   3.302 -0.0608  1.1361 -0.1777
 5646TIP3    H238430   3.454   0.414   3.156 -0.8175  2.4859 -0.5339
 5647TIP3   OH238431   2.229   1.354  17.202 -0.3449 -0.1820 -0.2970
 5647TIP3    H138432   2.233   1.290  17.130 -1.1441  0.0254 -0.5351
 5647TIP3    H238433   2.149   1.331  17.250 -0.5313  0.5060 -0.2659
 5648TIP3   OH238434   3.191   5.063  17.058  0.3048  0.0433 -0.6898
 5648TIP3    H138435   3.226   5.129  16.998 -0.3334  1.9457  0.9514
 5648TIP3    H238436   3.248   5.068  17.135 -2.2118  1.7531  1.1967
 5649TIP3   OH238437   4.059   2.463  12.556 -0.1416  0.1384 -0.1141
 5649TIP3    H138438   3.982   2.410  12.580 -0.4337  1.2933  1.7687
 5649TIP3    H238439   4.131   2.401  12.554 -0.8565 -0.7099 -0.3074
 5650TIP3   OH238440   6.635   2.118   4.700 -0.0677  0.2457 -0.6052
 5650TIP3    H138441   6.623   2.097   4.607 -0.0013  0.6158 -0.6994
 5650TIP3    H238442   6.572   2.063   4.746  2.7592 -3.2766 -0.4746
 5651TIP3   OH238443   3.469   5.583   0.087  0.2124 -0.2701  0.1163
 5651TIP3    H138444   3.373   5.579   0.081  0.2820 -3.8113 -0.6473
 5651TIP3    H238445   3.497   5.605  -0.002  0.1016 -1.2515 -0.1775
 5652TIP3   OH238446   5.076   3.309  11.369  0.0165 -0.9456 -0.0936
 5652TIP3    H138447   5.046   3.363  11.295  2.5040  0.2304 -0.3511
 5652TIP3    H238448   5.000   3.303  11.427 -1.3832 -0.1454 -1.7653
 5653TIP3   OH238449   0.702   2.302  13.395 -0.4116  0.1907 -0.6085
 5653TIP3    H138450   0.706   2.255  13.478  0.1631  0.7562 -0.3019
 5653TIP3    H238451   0.768   2.371  13.403 -1.3307  1.1576 -0.9675
 5654TIP3   OH238452   5.829   4.905  13.703 -0.2959  0.0270  0.1380
 5654TIP3    H138453   5.796   4.988  13.738  1.6854  0.4557  1.1300
 5654TIP3    H238454   5.883   4.931  13.628  0.4454 -0.3333  0.5386
 5655TIP3   OH238455   4.568   2.758  14.306  0.4963  0.0080  0.1047
 5655TIP3    H138456   4.494   2.751  14.247  0.2960  0.7339  0.2517
 5655TIP3    H238457   4.612   2.674  14.301  0.1776 -0.1164 -0.6706
 5656TIP3   OH238458   0.856   5.392  13.012  0.3294  0.1870 -0.1093
 5656TIP3    H138459   0.940   5.390  13.057  0.2386 -2.0222  0.0677
 5656TIP3    H238460   0.794   5.356  13.075 -0.1385 -1.1619 -1.2846
 5657TIP3   OH238461   5.615   1.491  14.808  0.3706 -0.1772 -0.2743
 5657TIP3    H138462   5.682   1.558  14.794  0.3666 -0.1184 -0.0155
 5657TIP3    H238463   5.637   1.422  14.745 -0.7845  0.9179 -1.9405
 5658TIP3   OH238464   1.427   6.068   4.597  0.3247  0.0818 -0.2697
 5658TIP3    H138465   1.518   6.038   4.593 -0.1253 -1.5561  1.0271
 5658TIP3    H238466   1.403   6.059   4.689 -0.5361  2.4909 -0.1914
 5659TIP3   OH238467   2.361   0.957  13.193 -0.3484 -0.4510  0.1069
 5659TIP3    H138468   2.290   0.986  13.137 -0.5018  0.3241  0.6973
 5659TIP3    H238469   2.439   1.001  13.159 -0.3685 -0.3148  0.2351
 5660TIP3   OH238470   6.628   4.023   6.476 -0.2013 -0.2695  0.6969
 5660TIP3    H138471   6.603   3.933   6.497  2.4789 -1.1988  0.2907
 5660TIP3    H238472   6.645   4.064   6.560 -2.7440  0.3658  0.9785
 5661TIP3   OH238473   4.543   2.082   2.527  0.4786 -0.7643  0.6099
 5661TIP3    H138474   4.466   2.136   2.548  0.5912 -0.1049 -0.5595
 5661TIP3    H238475   4.613   2.118   2.581  0.2369 -0.6207  0.8342
 5662TIP3   OH238476   1.857   5.298   0.936  0.4371  0.7000  0.3980
 5662TIP3    H138477   1.785   5.300   0.873  0.7297  2.0410  0.0835
 5662TIP3    H238478   1.903   5.381   0.923  0.8303  0.7659  1.9877
 5663TIP3   OH238479   1.264   4.692  14.306 -0.0424  0.0137  0.2512
 5663TIP3    H138480   1.261   4.787  14.312 -0.0909  0.0226  0.0697
 5663TIP3    H238481   1.213   4.671  14.228 -1.2614 -0.2415  1.0787
 5664TIP3   OH238482   1.212   4.249   1.322  0.2682 -0.2735  0.4421
 5664TIP3    H138483   1.265   4.219   1.248  0.4124  0.0144  0.4274
 5664TIP3    H238484   1.277   4.275   1.388  0.1409 -0.5367  0.6727
 5665TIP3   OH238485   2.432   3.462   5.407 -0.2037  0.2402  0.0344
 5665TIP3    H138486   2.476   3.383   5.376  0.7661 -0.0634  1.9905
 5665TIP3    H238487   2.472   3.533   5.357  0.9179 -0.2695  0.1520
 5666TIP3   OH238488   4.189   2.841  15.843  0.5231  0.5373  0.0608
 5666TIP3    H138489   4.274   2.835  15.798  0.0477  1.0672 -0.9442
 5666TIP3    H238490   4.175   2.935  15.856 -0.3050  0.5174 -0.5870
 5667TIP3   OH238491   6.746   3.140   0.191 -0.1789  0.1019  0.1610
 5667TIP3    H138492   6.796   3.194   0.130 -0.0601  0.2558  0.3951
 5667TIP3    H238493   6.812   3.084   0.233 -0.2279  0.1738  0.3336
 5668TIP3   OH238494   6.115   6.318  13.583  0.1579 -0.3643 -0.0845
 5668TIP3    H138495   6.044   6.267  13.621  1.1232 -1.3900  0.3980
 5668TIP3    H238496   6.150   6.261  13.513 -1.0114  1.1092 -1.9619
 5669TIP3   OH238497   5.416   0.315  15.020 -0.3290 -0.9553  0.7762
 5669TIP3    H138498   5.472   0.386  14.987 -0.7158  0.1787  2.4426
 5669TIP3    H238499   5.431   0.314  15.114 -1.9131 -1.6947  1.0525
 5670TIP3   OH238500   2.359   0.138  13.184  0.6037  0.9865  0.3768
 5670TIP3    H138501   2.446   0.176  13.190  1.1526 -0.3142  1.2903
 5670TIP3    H238502   2.371   0.046  13.211 -0.6440  0.1502 -1.6631
 5671TIP3   OH238503   6.532   4.543  15.928 -0.2577 -0.3544 -0.0961
 5671TIP3    H138504   6.493   4.610  15.872 -0.5229 -0.1618  0.3175
 5671TIP3    H238505   6.624   4.569  15.935 -0.0236 -0.8487 -1.1287
 5672TIP3   OH238506   5.994   4.473   2.536  0.6366 -0.3700 -0.6930
 5672TIP3    H138507   5.919   4.415   2.519  0.3703  0.1679 -1.4182
 5672TIP3    H238508   5.987   4.541   2.469  0.6996  0.7475  0.3926
 5673TIP3   OH238509   2.019   2.791  13.347  0.0804 -0.2025  0.2598
 5673TIP3    H138510   1.987   2.757  13.431 -1.3570 -1.4116 -0.7039
 5673TIP3    H238511   2.022   2.886  13.358 -1.7520 -0.2105  1.1531
 5674TIP3   OH238512   3.027   0.774  11.736 -0.3436 -0.0280 -0.5306
 5674TIP3    H138513   2.973   0.781  11.657  0.7488 -0.2541 -1.3187
 5674TIP3    H238514   3.062   0.862  11.749 -2.7843  0.7669  1.4160
 5675TIP3   OH238515   4.878   0.319   1.239 -0.2726 -0.0125  0.2177
 5675TIP3    H138516   4.927   0.401   1.231 -1.5012  0.9921  2.2421
 5675TIP3    H238517   4.894   0.291   1.329  0.5072 -2.3197 -0.5629
 5676TIP3   OH238518   1.467   6.334   2.731  0.6920  0.4463  0.2772
 5676TIP3    H138519   1.446   6.292   2.815 -0.5262 -0.3296 -0.3886
 5676TIP3    H238520   1.382   6.350   2.690  1.2671  0.8429 -0.7971
 5677TIP3   OH238521   3.141   4.435   1.328 -0.5951  0.0628  0.4748
 5677TIP3    H138522   3.135   4.527   1.304  2.3794  0.4510  0.8299
 5677TIP3    H238523   3.215   4.431   1.389 -2.1403 -2.2265  2.3731
 5678TIP3   OH238524   4.443   5.309  11.729 -0.2355 -0.2913 -0.5632
 5678TIP3    H138525   4.352   5.331  11.745  0.2251  0.6871  1.0207
 5678TIP3    H238526   4.446   5.213  11.735 -0.8210 -0.2240  1.6737
 5679TIP3   OH238527   2.787   1.880   4.684  0.2056 -0.4039  0.0472
 5679TIP3    H138528   2.805   1.875   4.778  2.6083  0.8061 -0.2697
 5679TIP3    H238529   2.773   1.789   4.658 -0.7197 -0.7402  1.5860
 5680TIP3   OH238530   6.422   4.692  13.072  0.1324  0.1468  0.3057
 5680TIP3    H138531   6.468   4.615  13.039 -1.2329 -0.1005 -1.1268
 5680TIP3    H238532   6.464   4.766  13.027  0.4155  0.1119  0.5067
 5681TIP3   OH238533   2.441   4.557  13.922  0.4293  0.7822  0.4705
 5681TIP3    H138534   2.530   4.577  13.951  0.0776  2.3553  0.5878
 5681TIP3    H238535   2.385   4.598  13.987 -0.3610  1.5325 -0.6367
 5682TIP3   OH238536   4.168   0.253  13.446  0.0679 -0.0385 -0.1217
 5682TIP3    H138537   4.240   0.190  13.453  1.3230  1.2857 -0.5852
 5682TIP3    H238538   4.089   0.200  13.451  1.0412 -1.4331  1.6582
 5683TIP3   OH238539   4.105   6.407   0.192 -0.1331  0.3961  0.2895
 5683TIP3    H138540   4.029   6.452   0.229  0.3061  1.3570  0.0634
 5683TIP3    H238541   4.175   6.473   0.194  0.3038 -0.0120 -0.8337
 5684TIP3   OH238542   6.529   1.377  15.624 -0.0325 -0.2560  0.2013
 5684TIP3    H138543   6.526   1.464  15.585  2.6210  0.4307  1.3578
 5684TIP3    H238544   6.557   1.320  15.552 -0.7024 -0.0094 -0.2716
 5685TIP3   OH238545   4.558   4.257   2.289 -0.1568  0.2254  0.3256
 5685TIP3    H138546   4.477   4.206   2.297  0.5583 -0.7011  2.1994
 5685TIP3    H238547   4.559   4.314   2.366  0.7628  0.5562  0.0836
 5686TIP3   OH238548   6.146   0.422  13.934  0.4054  0.4655  0.0677
 5686TIP3    H138549   6.131   0.328  13.941 -0.7013  0.6891  0.9797
 5686TIP3    H238550   6.191   0.432  13.850  3.3483 -1.1471  1.3177
 5687TIP3   OH238551   0.226   4.978   1.534  0.1603 -0.2430 -0.1586
 5687TIP3    H138552   0.238   5.027   1.615 -0.0353 -1.0607  0.3754
 5687TIP3    H238553   0.180   4.898   1.560  1.0495 -1.0214 -0.9104
 5688TIP3   OH238554   0.505   5.594   0.635 -0.0859  0.0327  0.4027
 5688TIP3    H138555   0.522   5.673   0.686  0.3178 -0.3970  0.9405
 5688TIP3    H238556   0.569   5.597   0.564  0.0546  0.0829  0.5332
 5689TIP3   OH238557   1.852   4.701  12.048 -0.0860 -1.0404 -0.1614
 5689TIP3    H138558   1.819   4.632  11.991 -0.7750  0.0229 -1.0930
 5689TIP3    H238559   1.781   4.717  12.110  0.3514 -1.6325  0.5212
 5690TIP3   OH238560   6.388   5.499   2.105  0.5253 -0.0163  0.5394
 5690TIP3    H138561   6.436   5.581   2.093  1.5429 -0.6458  0.1043
 5690TIP3    H238562   6.413   5.470   2.192  1.7277 -0.8051 -0.0306
 5691TIP3   OH238563   6.113   1.776  12.356 -0.0010 -0.8930 -0.2881
 5691TIP3    H138564   6.120   1.872  12.359  0.8492 -0.9300 -0.9025
 5691TIP3    H238565   6.031   1.757  12.403 -0.8548  0.2171 -1.2644
 5692TIP3   OH238566   6.126   3.881  13.713 -0.0807  0.2911 -0.2275
 5692TIP3    H138567   6.130   3.848  13.803  1.7088 -0.9782 -0.7283
 5692TIP3    H238568   6.114   3.975  13.723 -0.2913  0.1291  1.3383
 5693TIP3   OH238569   4.450   3.683  17.235 -0.0890  0.3405  0.2963
 5693TIP3    H138570   4.525   3.742  17.248 -0.1103  0.8366 -1.6202
 5693TIP3    H238571   4.378   3.740  17.211 -0.2788 -0.3796 -0.9460
 5694TIP3   OH238572   4.298   2.003  16.520  0.4505  0.0464 -0.9192
 5694TIP3    H138573   4.326   2.005  16.429 -0.2028 -0.7740 -1.1521
 5694TIP3    H238574   4.204   2.022  16.517  0.0010 -1.8948 -0.6343
 5695TIP3   OH238575   2.707   4.643  13.647 -0.5311 -0.9272 -0.1793
 5695TIP3    H138576   2.620   4.684  13.644 -0.3124 -0.4519 -2.8930
 5695TIP3    H238577   2.688   4.550  13.661 -1.3538 -0.6026  0.9992
 5696TIP3   OH238578   0.957   4.750   4.568  0.6501 -0.2530 -0.2295
 5696TIP3    H138579   1.017   4.818   4.596  0.4896 -0.2241  0.0499
 5696TIP3    H238580   0.936   4.772   4.477  2.7615 -1.4662 -1.0901
 5697TIP3   OH238581   6.405   0.965  17.164  0.1382  0.0124 -0.0821
 5697TIP3    H138582   6.496   0.993  17.162  0.1059  0.1602  0.3760
 5697TIP3    H238583   6.355   1.044  17.143  0.0523  0.2949  1.1090
 5698TIP3   OH238584   3.486   5.674   5.480 -0.3143  0.3177  0.3821
 5698TIP3    H138585   3.487   5.585   5.444  0.2171  0.1769  0.7256
 5698TIP3    H238586   3.577   5.704   5.473 -0.4234  0.7025  0.5844
 5699TIP3   OH238587   3.088   5.514  16.220 -0.4934 -0.1400  0.1242
 5699TIP3    H138588   3.049   5.537  16.136  0.3621  0.8488 -0.0313
 5699TIP3    H238589   3.183   5.516  16.204 -0.3412 -0.8232  0.8900
 5700TIP3   OH238590   2.366   5.067   0.351 -0.2746  0.0240  0.3696
 5700TIP3    H138591   2.443   5.017   0.377  1.2977  2.6964  1.1844
 5700TIP3    H238592   2.326   5.015   0.281  1.6941 -1.9097  0.5801
 5701TIP3   OH238593   2.416   3.261   5.093 -0.5806 -0.1520  0.6359
 5701TIP3    H138594   2.448   3.215   5.015 -0.1524 -0.0492  0.7497
 5701TIP3    H238595   2.491   3.263   5.152 -1.0483 -0.6856  1.2648
 5702TIP3   OH238596   0.815   2.370  12.891 -0.3508 -0.0575  0.4984
 5702TIP3    H138597   0.747   2.383  12.957  1.4667  0.0268  2.4549
 5702TIP3    H238598   0.800   2.440  12.828 -2.0055 -0.0016  0.8852
 5703TIP3   OH238599   0.465   3.128   4.809  0.1186  0.3055  0.2841
 5703TIP3    H138600   0.396   3.191   4.787 -0.4421 -0.2435  0.4132
 5703TIP3    H238601   0.426   3.073   4.878  0.9387  0.4162  0.8535
 5704TIP3   OH238602   3.393   0.919   3.482 -0.5900 -0.5466  0.4205
 5704TIP3    H138603   3.485   0.943   3.473 -0.2573 -0.4118  3.3397
 5704TIP3    H238604   3.353   0.995   3.526 -1.8474 -1.0590  0.1933
 5705TIP3   OH238605   3.207   2.948  13.787 -0.4138  0.7093 -0.0253
 5705TIP3    H138606   3.245   3.002  13.856 -1.3657  1.3360  0.0127
 5705TIP3    H238607   3.181   3.010  13.719  0.5529  0.0960 -0.9833
 5706TIP3   OH238608   6.181   6.524   3.283  0.2269 -0.1271  0.3551
 5706TIP3    H138609   6.136   6.530   3.198  0.0879 -0.5918  0.3933
 5706TIP3    H238610   6.135   6.587   3.338  1.0947  1.0674 -0.2505
 5707TIP3   OH238611   4.977   3.545   5.416 -0.0052 -0.1304  0.1366
 5707TIP3    H138612   5.029   3.625   5.425 -0.8394  0.7885 -2.2833
 5707TIP3    H238613   5.038   3.480   5.380  0.2974 -0.1576  0.6787
 5708TIP3   OH238614   6.710   4.502  13.955 -0.0651  0.0413 -0.0239
 5708TIP3    H138615   6.666   4.418  13.948 -1.4715  0.7949 -0.8389
 5708TIP3    H238616   6.684   4.536  14.041 -1.3165  0.5694 -0.5800
 5709TIP3   OH238617   1.812   0.583   0.425 -0.2906  0.1551 -0.0231
 5709TIP3    H138618   1.843   0.493   0.433  0.8673  0.3892 -1.4629
 5709TIP3    H238619   1.769   0.586   0.339  1.1015  1.3295 -0.7261
 5710TIP3   OH238620   4.289   0.260   3.485  0.3251  0.1440 -0.1242
 5710TIP3    H138621   4.217   0.308   3.445 -1.2546 -0.4176  1.8691
 5710TIP3    H238622   4.353   0.327   3.507 -0.8764  1.0853  0.6379
 5711TIP3   OH238623   6.504   1.790  16.224  0.7520 -0.1835 -0.0733
 5711TIP3    H138624   6.447   1.805  16.148  1.3624  0.5746 -0.4038
 5711TIP3    H238625   6.446   1.753  16.290  0.4424 -2.0287 -1.3009
 5712TIP3   OH238626   1.652   3.970  12.915 -0.4157 -0.2046 -0.7611
 5712TIP3    H138627   1.613   3.944  12.999 -0.0342  1.2116 -0.1098
 5712TIP3    H238628   1.656   3.889  12.864 -3.0195 -0.6456 -0.3895
 5713TIP3   OH238629   5.348   2.659  12.045  0.4717 -0.3626 -0.5038
 5713TIP3    H138630   5.324   2.590  12.108 -1.3743  1.5092  0.9710
 5713TIP3    H238631   5.345   2.615  11.960  1.0836 -2.5072  0.4965
 5714TIP3   OH238632   3.050   6.597  13.122  0.1277  0.2213  1.0454
 5714TIP3    H138633   3.129   6.556  13.157 -1.5068 -3.9898  0.3716
 5714TIP3    H238634   2.978   6.549  13.163 -2.0839  2.6341  0.2252
 5715TIP3   OH238635   5.480   2.944   3.336  0.4203 -0.3594  1.2216
 5715TIP3    H138636   5.547   2.878   3.356  2.0126  1.0739  0.8935
 5715TIP3    H238637   5.439   2.913   3.256  0.8737 -1.1447  1.2807
 5716TIP3   OH238638   6.781   4.876  10.891  0.0046 -0.1084  0.7073
 5716TIP3    H138639   6.691   4.864  10.921 -1.0303  1.9424 -1.2928
 5716TIP3    H238640   6.821   4.933  10.957 -0.2661 -0.6707  1.3735
 5717TIP3   OH238641   4.180   5.508  16.045  0.0989  0.7518 -0.2448
 5717TIP3    H138642   4.268   5.478  16.022 -0.0939  1.3303 -1.9156
 5717TIP3    H238643   4.155   5.565  15.972 -1.5318  0.8654  0.3676
 5718TIP3   OH238644   3.470   6.603   0.903  0.1390 -0.4159  0.6203
 5718TIP3    H138645   3.534   6.650   0.956  0.0777 -0.9252  1.1606
 5718TIP3    H238646   3.403   6.668   0.881  0.0467 -0.2550  1.3700
 5719TIP3   OH238647   3.952   6.341  12.257 -0.2203 -0.2805  0.8498
 5719TIP3    H138648   4.030   6.309  12.304  0.4083  0.2360  0.1804
 5719TIP3    H238649   3.964   6.309  12.167  0.2001  1.4130  0.2681
 5720TIP3   OH238650   3.533   3.358   3.013 -0.4606 -0.0935  0.1067
 5720TIP3    H138651   3.554   3.419   2.942  0.3410  0.2875  0.6623
 5720TIP3    H238652   3.595   3.286   3.003 -0.2501  0.0292  0.5063
 5721TIP3   OH238653   2.562   0.764  13.927  0.1075 -0.2515  0.1738
 5721TIP3    H138654   2.603   0.807  14.002 -1.1761 -1.4209  1.6194
 5721TIP3    H238655   2.473   0.745  13.957 -0.2180 -1.3697 -1.4045
 5722TIP3   OH238656   3.633   2.029   5.703  0.2813 -0.3830 -0.0822
 5722TIP3    H138657   3.716   2.066   5.734  0.2341 -0.2126 -0.1595
 5722TIP3    H238658   3.629   2.054   5.610  0.2551 -0.5912 -0.1389
 5723TIP3   OH238659   4.112   4.787  15.097 -0.2467  0.0307 -0.2753
 5723TIP3    H138660   4.198   4.746  15.103  0.1546  1.0042  1.6139
 5723TIP3    H238661   4.052   4.723  15.136  0.1055  0.4642  1.0443
 5724TIP3   OH238662   1.029   2.068  12.357 -0.2590  0.2053  0.0529
 5724TIP3    H138663   0.993   2.126  12.290  1.8847  0.0237 -1.3391
 5724TIP3    H238664   1.037   1.983  12.313  0.1592 -0.2156  0.9062
 5725TIP3   OH238665   2.014   4.949   3.002 -0.2865  0.4795  0.0744
 5725TIP3    H138666   1.943   4.916   3.058  0.2375 -0.3953  0.2502
 5725TIP3    H238667   1.978   4.946   2.914 -0.4112 -0.1582  0.1396
 5726TIP3   OH238668   2.906   2.157   3.020 -0.3740 -0.2854 -0.1196
 5726TIP3    H138669   2.922   2.065   3.045  2.2523  0.1596  0.1440
 5726TIP3    H238670   2.932   2.207   3.098  0.8267  0.7775 -1.1679
 5727TIP3   OH238671   1.768   1.029   3.719 -0.2242 -0.1134  0.0114
 5727TIP3    H138672   1.785   1.014   3.626  0.2930 -0.3807  0.1426
 5727TIP3    H238673   1.835   1.092   3.746  1.4066 -2.0485  0.8087
 5728TIP3   OH238674   2.305   0.470  16.806  0.3804 -0.1798  0.1276
 5728TIP3    H138675   2.237   0.404  16.799  1.9507 -1.7952 -0.5441
 5728TIP3    H238676   2.280   0.538  16.744 -0.8646 -0.4985  0.2689
 5729TIP3   OH238677   0.118   5.034   4.093 -0.2978  0.2361 -0.2891
 5729TIP3    H138678   0.116   5.118   4.047  0.7720  1.5651  1.8989
 5729TIP3    H238679   0.043   5.038   4.153 -0.0318 -0.2106  0.0793
 5730TIP3   OH238680   3.883   0.599   1.258  0.4058  0.3287  0.0986
 5730TIP3    H138681   3.894   0.540   1.332  1.2688 -1.0553 -1.0922
 5730TIP3    H238682   3.841   0.677   1.296  1.9955  0.2112  2.2791
 5731TIP3   OH238683   5.482   5.413  12.383 -0.2878  0.1850  0.5465
 5731TIP3    H138684   5.447   5.327  12.408  1.3101 -0.8693 -0.6708
 5731TIP3    H238685   5.410   5.454  12.335 -1.1129 -0.4244  1.2205
 5732TIP3   OH238686   2.308   0.084   1.968  0.2101  0.7043  0.7560
 5732TIP3    H138687   2.273   0.119   2.049  1.6883  1.6555  1.0198
 5732TIP3    H238688   2.402   0.098   1.974  0.2882  1.5056 -1.4412
 5733TIP3   OH238689   4.068   3.741   4.509 -0.0165 -0.3178  0.3055
 5733TIP3    H138690   4.018   3.815   4.544  1.4737  0.6924  0.3743
 5733TIP3    H238691   4.076   3.760   4.416 -0.0224 -0.6351  0.2393
 5734TIP3   OH238692   3.903   5.053  17.220 -0.5688  0.0484 -0.4010
 5734TIP3    H138693   3.881   4.974  17.269  1.4885 -1.6977 -2.0892
 5734TIP3    H238694   3.928   5.021  17.134 -1.0099  2.7216 -1.5975
 5735TIP3   OH238695   3.687   4.507  16.795 -0.0615  0.0845  0.6642
 5735TIP3    H138696   3.651   4.499  16.706  1.7168 -3.6402  0.1180
 5735TIP3    H238697   3.774   4.468  16.790 -0.7603 -2.4800  4.4920
 5736TIP3   OH238698   1.561   3.013   0.615 -0.0508  0.0452 -0.5978
 5736TIP3    H138699   1.657   3.018   0.614 -0.0624  0.2087 -0.8878
 5736TIP3    H238700   1.532   3.103   0.607 -0.2349 -0.1169 -1.8666
 5737TIP3   OH238701   5.163   1.703  14.094  0.1618  0.4566  0.7093
 5737TIP3    H138702   5.123   1.746  14.018  1.8052 -0.2716 -0.6162
 5737TIP3    H238703   5.169   1.611  14.069  2.9636  0.5695  0.6223
 5738TIP3   OH238704   2.382   4.175   3.766 -0.5017  0.0057  0.1348
 5738TIP3    H138705   2.306   4.148   3.713  0.2946 -1.4770 -0.2964
 5738TIP3    H238706   2.421   4.246   3.715 -0.8032 -0.1615 -0.3460
 5739TIP3   OH238707   5.294   0.640   6.789  0.0697 -0.3193 -0.1078
 5739TIP3    H138708   5.384   0.609   6.777 -0.2331 -0.3764 -2.7305
 5739TIP3    H238709   5.245   0.562   6.814  0.2619 -0.8859 -1.4515
 5740TIP3   OH238710   5.513   2.328   1.652  0.6053 -0.2541  0.6594
 5740TIP3    H138711   5.477   2.417   1.656 -1.3661 -0.9866  0.4520
 5740TIP3    H238712   5.478   2.285   1.730 -0.2712 -1.4462 -0.3598
 5741TIP3   OH238713   5.444   0.457  16.430 -0.3857  0.0042  0.3185
 5741TIP3    H138714   5.475   0.373  16.464  0.7544  0.0227 -0.6429
 5741TIP3    H238715   5.521   0.514  16.432 -1.6395  1.8912  3.3605
 5742TIP3   OH238716   2.600   6.285  15.223  0.4885 -0.5029  0.1852
 5742TIP3    H138717   2.552   6.280  15.305 -0.8462  1.0499 -0.4372
 5742TIP3    H238718   2.541   6.244  15.159  1.8252 -2.3716  0.0823
 5743TIP3   OH238719   5.407   0.423   2.393  0.0298 -0.0895  0.5981
 5743TIP3    H138720   5.329   0.455   2.348  0.1142  0.3727  0.7724
 5743TIP3    H238721   5.432   0.344   2.344 -0.9601 -0.6622  0.9832
 5744TIP3   OH238722   4.955   3.184  15.377  0.2137  0.4325 -0.3435
 5744TIP3    H138723   4.994   3.135  15.304  0.1726 -2.5266  1.4654
 5744TIP3    H238724   4.865   3.201  15.348 -0.3008 -2.1044 -0.4722
 5745TIP3   OH238725   2.199   1.476   4.814  0.6236  0.9955 -0.0425
 5745TIP3    H138726   2.154   1.418   4.875 -1.2565  1.6373 -0.7444
 5745TIP3    H238727   2.212   1.557   4.862  1.3371  0.7043  0.2632
 5746TIP3   OH238728   1.595   1.593  14.333  0.2385 -0.0423 -0.6648
 5746TIP3    H138729   1.628   1.519  14.384 -0.4420  0.7359  0.9980
 5746TIP3    H238730   1.672   1.648  14.316  0.3413  0.1443  0.3557
 5747TIP3   OH238731   6.322   1.428  16.154 -0.4748 -0.0742  0.2253
 5747TIP3    H138732   6.384   1.453  16.223 -1.0946 -0.0764  0.7941
 5747TIP3    H238733   6.377   1.400  16.081  0.1955  0.3049  0.5800
 5748TIP3   OH238734   3.613   4.829  14.832  0.6801 -0.2390  0.3143
 5748TIP3    H138735   3.530   4.823  14.786  1.1063 -0.6299 -0.4095
 5748TIP3    H238736   3.642   4.738  14.843  1.1655 -0.0917  0.2872
 5749TIP3   OH238737   5.906   5.709  14.506  0.1543 -0.2848 -0.1119
 5749TIP3    H138738   5.995   5.721  14.473  0.2433  0.2123  0.3016
 5749TIP3    H238739   5.903   5.760  14.587 -0.2511 -0.9895  0.3263
 5750TIP3   OH238740   3.298   4.870  14.692 -0.1044  0.2501 -0.3503
 5750TIP3    H138741   3.316   4.920  14.612  0.7773  0.6804  0.0963
 5750TIP3    H238742   3.291   4.779  14.662 -0.1551  0.4507 -0.9645
 5751TIP3   OH238743   0.128   2.505  12.257 -0.7630 -0.2692  0.2428
 5751TIP3    H138744   0.114   2.416  12.226 -2.7205 -0.2831  1.0816
 5751TIP3    H238745   0.084   2.509  12.342  1.6173  0.7333  1.5530
 5752TIP3   OH238746   3.809   4.452   3.720  0.1257  0.2095  0.6213
 5752TIP3    H138747   3.832   4.429   3.630 -0.5879  0.2978  0.4153
 5752TIP3    H238748   3.738   4.516   3.712 -1.3509 -1.2727  1.2397
 5753TIP3   OH238749   4.443   3.307   5.978 -0.1306 -0.4929 -0.0235
 5753TIP3    H138750   4.358   3.330   5.941 -0.8175  0.1801  1.8618
 5753TIP3    H238751   4.436   3.331   6.070  2.3512  0.2358  0.0359
 5754TIP3   OH238752   2.753   2.299  14.177 -0.1125  0.0580  0.7330
 5754TIP3    H138753   2.722   2.255  14.256  0.3657  0.3588  1.0890
 5754TIP3    H238754   2.749   2.232  14.109 -3.2643  0.4926  0.3062
 5755TIP3   OH238755   0.907   3.532   0.966 -0.6638  0.0177  0.3640
 5755TIP3    H138756   0.833   3.583   0.931 -0.6076  0.6040  1.0752
 5755TIP3    H238757   0.959   3.511   0.889 -1.1963  0.2135 -0.0626
 5756TIP3   OH238758   1.465   2.417  15.936  0.0645 -0.6449  0.4511
 5756TIP3    H138759   1.471   2.456  15.849 -0.8861  1.0305  1.0951
 5756TIP3    H238760   1.385   2.365  15.934 -0.9287  0.8270  0.8364
 5757TIP3   OH238761   1.431   3.863   2.082 -0.1715  0.0211  0.0497
 5757TIP3    H138762   1.461   3.917   2.009  0.2102 -1.4152 -0.9127
 5757TIP3    H238763   1.355   3.816   2.047 -1.6466  1.2610  1.4550
 5758TIP3   OH238764   3.936   5.377   3.981  0.2171 -0.6629  0.1119
 5758TIP3    H138765   3.991   5.432   3.925  0.0303 -0.5739  0.0163
 5758TIP3    H238766   3.846   5.398   3.956  0.1511 -1.7598 -0.6394
 5759TIP3   OH238767   5.654   6.479   2.647  0.2411 -0.5899 -0.1066
 5759TIP3    H138768   5.617   6.557   2.689  0.1842 -1.4892  1.6022
 5759TIP3    H238769   5.581   6.439   2.602  0.6825  1.4164 -2.8488
 5760TIP3   OH238770   6.033   5.231  13.660 -0.3723  0.5334 -0.3538
 5760TIP3    H138771   6.125   5.207  13.674 -0.1947  0.5244 -1.4469
 5760TIP3    H238772   6.032   5.326  13.668 -0.1168  0.6044 -1.0717
 5761TIP3   OH238773   4.714   3.716   4.065  0.0294 -0.4611 -0.6684
 5761TIP3    H138774   4.770   3.641   4.085  1.2164  0.4884 -0.2509
 5761TIP3    H238775   4.774   3.781   4.027 -0.4851  1.1418  1.1175
 5762TIP3   OH238776   2.039   1.771   6.386 -0.5504  0.0671 -0.0918
 5762TIP3    H138777   2.058   1.684   6.422  0.2148 -0.0470 -0.7687
 5762TIP3    H238778   2.120   1.819   6.396  0.0866 -0.3152 -2.6848
 5763TIP3   OH238779   5.817   3.562   0.377  0.0189 -0.0540 -0.1333
 5763TIP3    H138780   5.808   3.498   0.447 -0.8421  1.0098  0.7692
 5763TIP3    H238781   5.729   3.597   0.365  1.0320  4.0117  2.4332
 5764TIP3   OH238782   1.171   2.903   2.195 -0.0539 -0.4343  0.4972
 5764TIP3    H138783   1.193   2.814   2.225  0.7551 -0.0633  1.0368
 5764TIP3    H238784   1.098   2.890   2.134  0.0272 -1.4687  0.5962
 5765TIP3   OH238785   2.733   2.271  12.268  0.0333  0.2444 -0.1296
 5765TIP3    H138786   2.679   2.313  12.335  0.6950 -0.1680  0.6700
 5765TIP3    H238787   2.821   2.304  12.284  0.1364  0.4751 -1.0796
 5766TIP3   OH238788   3.690   4.575   4.846  0.6654 -0.8282 -0.4812
 5766TIP3    H138789   3.606   4.549   4.884  1.6716 -0.0496  2.6229
 5766TIP3    H238790   3.668   4.636   4.776 -1.3562 -0.4051  0.4672
 5767TIP3   OH238791   0.526   0.578   3.942 -0.5408 -0.5529  0.0529
 5767TIP3    H138792   0.549   0.662   3.982  0.0155 -0.5829 -0.1883
 5767TIP3    H238793   0.590   0.568   3.871 -0.8837 -0.9716 -0.1969
 5768TIP3   OH238794   1.731   1.854   2.012 -0.2408 -0.3310  0.2401
 5768TIP3    H138795   1.728   1.909   1.933  1.5460 -1.2201 -0.4888
 5768TIP3    H238796   1.734   1.765   1.978  1.4353 -0.6960  1.2604
 5769TIP3   OH238797   3.421   1.858  15.466 -0.8352  0.7790 -0.3551
 5769TIP3    H138798   3.374   1.868  15.384  0.9544  1.7337 -1.3120
 5769TIP3    H238799   3.366   1.798  15.518 -1.8652 -0.0557 -2.3145
 5770TIP3   OH238800   2.790   5.213   4.240 -0.3018 -0.0475  0.8130
 5770TIP3    H138801   2.729   5.148   4.274  0.7184 -1.6662 -0.2990
 5770TIP3    H238802   2.752   5.239   4.156  0.3857 -0.8924  0.2233
 5771TIP3   OH238803   3.486   6.238  14.904 -0.3483  0.3330  0.0244
 5771TIP3    H138804   3.533   6.199  14.830 -1.2537 -0.8341  0.0440
 5771TIP3    H238805   3.490   6.172  14.973  0.3893  1.3665  1.0125
 5772TIP3   OH238806   3.726   3.791   5.705  0.2420  0.4383  0.2608
 5772TIP3    H138807   3.764   3.879   5.704  1.4788 -0.0037  2.5210
 5772TIP3    H238808   3.701   3.777   5.796 -1.9145 -0.7826 -0.4519
 5773TIP3   OH238809   3.679   6.121  16.258  0.3116  0.0528  0.9366
 5773TIP3    H138810   3.603   6.087  16.304  0.8350  0.2706  2.0149
 5773TIP3    H238811   3.732   6.044  16.237  0.1838 -0.0290  0.9153
 5774TIP3   OH238812   0.273   0.837  14.585 -0.0917  0.2169 -0.0249
 5774TIP3    H138813   0.342   0.772  14.597 -0.9160 -0.8181 -0.8224
 5774TIP3    H238814   0.320   0.917  14.559  0.9073 -0.0912  0.7729
 5775TIP3   OH238815   5.151   1.422   1.366  0.0216 -0.4744 -0.5959
 5775TIP3    H138816   5.186   1.333   1.378  0.1080 -0.3170  0.4583
 5775TIP3    H238817   5.188   1.451   1.283  1.1745 -0.8998 -0.2610
 5776TIP3   OH238818   1.551   0.677  15.934 -0.2713 -0.5157 -0.3761
 5776TIP3    H138819   1.562   0.670  16.029  0.6227  1.5913 -0.2791
 5776TIP3    H238820   1.471   0.729  15.924  0.8931  1.2838 -0.6896
 5777TIP3   OH238821   4.967   3.918  13.074 -0.9582  0.1077  0.0459
 5777TIP3    H138822   5.029   3.991  13.082 -0.6463 -0.3162  1.9814
 5777TIP3    H238823   5.022   3.840  13.068 -1.3063 -0.0852 -0.7774
 5778TIP3   OH238824   1.986   0.656  14.130  0.3613  0.1931  0.1652
 5778TIP3    H138825   1.985   0.620  14.218 -1.6281  0.6945  0.4067
 5778TIP3    H238826   2.068   0.624  14.091  1.6364  0.5865  2.4065
 5779TIP3   OH238827   2.741   0.236   3.953  0.3151 -0.5641  0.0148
 5779TIP3    H138828   2.769   0.241   4.045  0.7010 -0.2926 -0.1184
 5779TIP3    H238829   2.801   0.293   3.906  0.1211 -0.7087 -0.4126
 5780TIP3   OH238830   4.159   5.769   2.805 -0.2089 -0.1264  0.5335
 5780TIP3    H138831   4.122   5.686   2.777 -1.1787 -0.1361  1.7580
 5780TIP3    H238832   4.084   5.828   2.812  0.5356  1.1305 -1.0859
 5781TIP3   OH238833   4.503   5.135  13.365 -0.5732 -0.4891 -0.1520
 5781TIP3    H138834   4.494   5.066  13.299 -0.9434 -0.0407 -0.5773
 5781TIP3    H238835   4.488   5.090  13.448  1.1249 -1.3051 -0.2475
 5782TIP3   OH238836   1.536   5.511   1.272  0.2251  0.4578 -0.0149
 5782TIP3    H138837   1.501   5.463   1.347 -0.0815 -0.6877 -0.8740
 5782TIP3    H238838   1.625   5.478   1.262  0.4160  0.9269  0.0998
 5783TIP3   OH238839   3.368   5.023   5.951 -0.2434 -0.2098 -0.2957
 5783TIP3    H138840   3.433   5.091   5.931  0.1642 -0.4002  0.3416
 5783TIP3    H238841   3.293   5.045   5.896  0.2700  0.1549 -0.8647
 5784TIP3   OH238842   4.401   4.802  15.419 -0.2895  0.6738 -0.7637
 5784TIP3    H138843   4.417   4.893  15.445 -0.3404 -0.6308  5.3696
 5784TIP3    H238844   4.306   4.794  15.415 -0.2814  0.9883 -2.3850
 5785TIP3   OH238845   4.185   6.262  12.392  0.9235  0.5855 -0.1755
 5785TIP3    H138846   4.173   6.256  12.487 -1.2378  1.0614 -0.3784
 5785TIP3    H238847   4.229   6.346  12.379  2.0901  0.1008  0.4296
 5786TIP3   OH238848   4.775   4.119  11.716  0.3395 -0.0957 -0.5536
 5786TIP3    H138849   4.700   4.169  11.746  1.6821  3.0316 -2.0133
 5786TIP3    H238850   4.744   4.072  11.639 -0.3481  0.4062 -0.5917
 5787TIP3   OH238851   6.652   0.280  10.934 -0.1945  0.4896  0.6518
 5787TIP3    H138852   6.685   0.291  11.023  3.6039  1.1850 -0.6868
 5787TIP3    H238853   6.685   0.195  10.906  0.5984  1.2463 -0.8083
 5788TIP3   OH238854   6.080   0.402  12.743  1.0578 -0.4032 -0.0191
 5788TIP3    H138855   6.098   0.474  12.803 -2.9613  1.2252 -0.4857
 5788TIP3    H238856   6.081   0.443  12.656  0.3373 -1.2622 -0.4498
 5789TIP3   OH238857   6.530   4.370   2.892  0.0839 -0.0535  0.3865
 5789TIP3    H138858   6.442   4.357   2.927  0.0612  0.1179  0.3956
 5789TIP3    H238859   6.531   4.462   2.865  0.2493 -0.0644  0.3570
 5790TIP3   OH238860   2.002   1.655  12.433 -0.0443 -0.1365  1.0987
 5790TIP3    H138861   1.920   1.700  12.411  0.9208 -0.0798 -3.2375
 5790TIP3    H238862   2.061   1.726  12.462 -0.5756  0.3093  1.1094
 5791TIP3   OH238863   0.174   3.627  15.452 -0.2441 -0.1170  0.4249
 5791TIP3    H138864   0.201   3.710  15.491  0.0533 -0.4262  0.8898
 5791TIP3    H238865   0.081   3.639  15.431  0.3711  1.2170 -1.8671
 5792TIP3   OH238866   5.482   3.177  15.658  0.3208 -0.0370  0.3555
 5792TIP3    H138867   5.533   3.170  15.739 -0.8929  0.8131  1.2293
 5792TIP3    H238868   5.391   3.170  15.687 -0.1094 -0.6721 -1.0663
 5793TIP3   OH238869   5.400   3.906   4.934 -0.3522  0.4113 -0.2676
 5793TIP3    H138870   5.467   3.843   4.907 -0.0324  0.7723 -0.3253
 5793TIP3    H238871   5.369   3.945   4.852 -0.5515  0.3336 -0.2316
 5794TIP3   OH238872   1.810   4.068  14.685  0.0839  0.1813 -0.0022
 5794TIP3    H138873   1.763   4.010  14.625  1.2086  1.2328 -2.0096
 5794TIP3    H238874   1.754   4.145  14.692  0.2732  0.3542 -0.3210
 5795TIP3   OH238875   3.078   0.892  12.123 -0.1760  0.0972 -0.7495
 5795TIP3    H138876   3.146   0.957  12.107  0.4117 -0.6458 -1.3351
 5795TIP3    H238877   3.001   0.925  12.076 -0.2785  1.0045  0.0201
 5796TIP3   OH238878   2.463   0.308  16.511  0.0674 -0.1934 -0.2482
 5796TIP3    H138879   2.540   0.265  16.473  1.8140  2.5020 -0.0740
 5796TIP3    H238880   2.411   0.335  16.435  0.1744 -0.5315 -0.4431
 5797TIP3   OH238881   4.379   1.720   5.109  0.1992 -0.1237 -0.0189
 5797TIP3    H138882   4.390   1.732   5.015 -0.3564 -0.9790 -0.2077
 5797TIP3    H238883   4.284   1.712   5.122  0.3232 -1.0415  0.4645
 5798TIP3   OH238884   0.739   4.447   1.336 -0.4203 -0.6362 -0.2318
 5798TIP3    H138885   0.772   4.410   1.254  1.5068 -1.0420  0.6864
 5798TIP3    H238886   0.754   4.541   1.328  0.0687 -0.7107 -0.2333
 5799TIP3   OH238887   4.163   1.383   3.616  0.1957 -1.1070 -0.0242
 5799TIP3    H138888   4.092   1.427   3.570  0.2733 -1.0168 -0.0582
 5799TIP3    H238889   4.234   1.377   3.552  0.5191 -0.4341  0.2644
 5800TIP3   OH238890   5.361   1.039  10.935  0.7724 -0.1780  0.1993
 5800TIP3    H138891   5.293   1.001  10.990  1.7317  0.2979  1.7662
 5800TIP3    H238892   5.436   1.050  10.993  1.7222  0.6447 -1.1272
 5801TIP3   OH238893   3.271   2.102   6.384  0.8789  0.4443  0.1653
 5801TIP3    H138894   3.366   2.094   6.388  1.0626  2.4158  1.7942
 5801TIP3    H238895   3.238   2.021   6.421  1.8965 -0.4688 -0.8657
 5802TIP3   OH238896   3.505   5.551   0.617 -0.1839  0.0067 -0.5817
 5802TIP3    H138897   3.527   5.458   0.615 -2.3241 -0.5658 -0.3890
 5802TIP3    H238898   3.451   5.561   0.695  0.4933  1.5623 -0.2793
 5803TIP3   OH238899   2.599   6.486  16.051  0.8112 -0.3967 -0.2845
 5803TIP3    H138900   2.608   6.540  15.973 -0.7032 -0.1709 -0.3230
 5803TIP3    H238901   2.655   6.529  16.116  3.3622 -1.4791 -1.6324
 5804TIP3   OH238902   0.628   6.529  13.428  0.4101 -0.0978  0.6098
 5804TIP3    H138903   0.701   6.500  13.482  0.0778  0.4759  1.3844
 5804TIP3    H238904   0.639   6.482  13.345 -0.0027 -2.3260  1.7261
 5805TIP3   OH238905   3.727   0.158  13.172 -0.0981 -0.0487  0.5558
 5805TIP3    H138906   3.766   0.220  13.234 -2.0901  0.5896  1.2476
 5805TIP3    H238907   3.718   0.077  13.222 -1.5592  0.4213  1.1197
 5806TIP3   OH238908   5.869   1.421  16.524 -0.0583 -0.4670  0.5240
 5806TIP3    H138909   5.960   1.434  16.498 -0.2305 -0.1321  0.0898
 5806TIP3    H238910   5.818   1.432  16.444 -0.5184 -0.2566  0.8362
 5807TIP3   OH238911   5.844   5.106  10.645  0.4366  0.2718 -0.4252
 5807TIP3    H138912   5.800   5.021  10.650  0.8724  0.0825  0.4738
 5807TIP3    H238913   5.937   5.085  10.651  0.6494  0.6988 -1.8707
 5808TIP3   OH238914   1.893   3.819   5.126  0.3231  0.0860  0.5847
 5808TIP3    H138915   1.886   3.734   5.168  0.7242 -1.1251 -1.6839
 5808TIP3    H238916   1.824   3.872   5.167 -1.4522 -2.0003  0.4458
 5809TIP3   OH238917   4.223   2.667   2.525 -0.4227 -0.4669  0.1811
 5809TIP3    H138918   4.221   2.762   2.536 -0.0536 -0.3131 -0.9443
 5809TIP3    H238919   4.268   2.635   2.603  1.7934  0.5158 -0.5833
 5810TIP3   OH238920   2.956   6.404  12.244  0.3213  0.1250 -0.4454
 5810TIP3    H138921   2.933   6.467  12.176  1.3295  1.3015  0.2645
 5810TIP3    H238922   3.052   6.408  12.250  0.3374 -0.7890  0.2717
 5811TIP3   OH238923   0.029   4.156   0.126 -0.5024 -0.4172 -0.3173
 5811TIP3    H138924   0.061   4.245   0.109  0.8332 -1.3209 -3.0251
 5811TIP3    H238925   0.072   4.131   0.208 -2.4407  2.0246  1.6256
 5812TIP3   OH238926   3.505   2.758  14.843 -0.2396  0.5485 -0.3959
 5812TIP3    H138927   3.510   2.664  14.823  0.5580 -0.3385  3.3017
 5812TIP3    H238928   3.591   2.792  14.819  0.0107 -0.0181 -0.3282
 5813TIP3   OH238929   4.897   4.333  11.598  0.3389  0.6584 -0.2776
 5813TIP3    H138930   4.863   4.262  11.653  0.3313  0.8975  0.0288
 5813TIP3    H238931   4.819   4.375  11.563  0.2332  2.0092  1.4332
 5814TIP3   OH238932   5.212   2.122  12.154  0.3084 -0.3112  0.5400
 5814TIP3    H138933   5.129   2.082  12.182 -0.3696  0.7795  0.1403
 5814TIP3    H238934   5.254   2.149  12.236 -0.1946  0.0243  0.6909
 5815TIP3   OH238935   0.737   1.588  13.650  0.3819 -0.6430  0.0110
 5815TIP3    H138936   0.692   1.620  13.571 -0.2792 -1.1192  0.1797
 5815TIP3    H238937   0.687   1.510  13.675  1.0422 -0.9255  0.4736
 5816TIP3   OH238938   2.074   6.462   5.278 -0.1548 -0.3978  0.3586
 5816TIP3    H138939   2.061   6.418   5.193  0.3724 -1.4693  0.8113
 5816TIP3    H238940   2.168   6.484   5.279 -0.2566  0.0318  0.4708
 5817TIP3   OH238941   1.238   5.255  15.469  0.2814  0.2711  0.3552
 5817TIP3    H138942   1.288   5.296  15.540 -1.6199 -2.1335  3.3725
 5817TIP3    H238943   1.279   5.170  15.457 -0.3573  0.0446 -0.3228
 5818TIP3   OH238944   6.699   5.298   4.853  0.8039 -0.5486  0.0188
 5818TIP3    H138945   6.766   5.234   4.877 -1.3984 -2.7957  0.5966
 5818TIP3    H238946   6.671   5.336   4.936  2.1119  1.3245 -0.3176
 5819TIP3   OH238947   5.755   5.086   0.285 -0.0332 -0.0125  0.3699
 5819TIP3    H138948   5.716   5.096   0.372  0.9212 -0.0488  0.8119
 5819TIP3    H238949   5.773   4.992   0.278  1.9253  0.2713  1.0521
 5820TIP3   OH238950   5.501   2.001   5.344  0.1025 -0.3992  0.0470
 5820TIP3    H138951   5.587   1.963   5.362 -0.7690 -3.1283 -1.0664
 5820TIP3    H238952   5.473   1.960   5.262 -2.0462  0.8049  0.0989
 5821TIP3   OH238953   4.362   2.126  15.253 -0.1207  0.4784  0.5016
 5821TIP3    H138954   4.364   2.034  15.224  1.0836  0.3860  0.8393
 5821TIP3    H238955   4.335   2.174  15.174 -0.1170 -0.0908  0.1418
 5822TIP3   OH238956   0.693   2.444  16.770 -0.1793  0.4839 -0.7262
 5822TIP3    H138957   0.606   2.483  16.778  0.7247  2.3188  1.2259
 5822TIP3    H238958   0.724   2.472  16.684 -1.4157 -0.0373 -1.3643
 5823TIP3   OH238959   0.908   2.397   3.077  0.0133  0.1336  0.4573
 5823TIP3    H138960   0.854   2.326   3.113  0.1509 -0.8489 -1.1719
 5823TIP3    H238961   0.970   2.352   3.018  1.2963  1.4371  0.7598
 5824TIP3   OH238962   1.736   4.501  16.705  0.0869  0.1952  0.4937
 5824TIP3    H138963   1.666   4.465  16.651  1.5281 -0.5644 -0.9293
 5824TIP3    H238964   1.694   4.573  16.754 -1.4559  0.3483 -0.9717
 5825TIP3   OH238965   2.926   6.565   3.725  0.1425 -0.1710  0.2134
 5825TIP3    H138966   3.013   6.556   3.765  0.5336  0.5408 -0.4347
 5825TIP3    H238967   2.874   6.496   3.764  0.7172  0.0295  1.3801
 5826TIP3   OH238968   3.020   2.970   3.206  0.1654  0.2428 -0.1572
 5826TIP3    H138969   2.938   2.922   3.192  1.2208 -2.3844  1.6964
 5826TIP3    H238970   2.997   3.040   3.267 -0.7516 -0.3761  0.2224
 5827TIP3   OH238971   1.448   5.205  11.648  0.2458  0.1497 -0.0901
 5827TIP3    H138972   1.454   5.298  11.669 -0.1612 -0.2170  1.8333
 5827TIP3    H238973   1.447   5.202  11.553  0.6050  2.0858 -0.1960
 5828TIP3   OH238974   5.593   2.918   2.695  0.4333 -0.5516  0.0142
 5828TIP3    H138975   5.653   2.882   2.761  1.0760  0.6704  0.1229
 5828TIP3    H238976   5.568   3.003   2.730  0.2345 -0.1890 -0.9939
 5829TIP3   OH238977   2.651   1.638   6.702  0.2883 -0.5788 -0.4525
 5829TIP3    H138978   2.643   1.568   6.638 -1.3660 -1.7037  0.8880
 5829TIP3    H238979   2.632   1.596   6.786 -0.8145  1.4543  0.3980
 5830TIP3   OH238980   2.085   4.044  14.943 -0.2603  0.4363 -0.5623
 5830TIP3    H138981   1.991   4.047  14.957 -0.3982 -1.9840 -0.4792
 5830TIP3    H238982   2.096   4.005  14.856  0.6013 -1.1954  0.2136
 5831TIP3   OH238983   3.897   4.372  15.158 -0.1508  0.1343  0.2449
 5831TIP3    H138984   3.922   4.289  15.199 -1.0931 -0.6778 -0.7614
 5831TIP3    H238985   3.938   4.369  15.071 -1.5304 -0.0397 -0.4204
 5832TIP3   OH238986   3.419   3.121  13.069  0.7263  0.0346  0.0083
 5832TIP3    H138987   3.416   3.210  13.105  1.7680 -0.1485  0.6086
 5832TIP3    H238988   3.408   3.133  12.975 -0.5423  0.6657  0.2232
 5833TIP3   OH238989   4.916   5.932  13.330 -0.0606  0.0176  0.2764
 5833TIP3    H138990   4.941   5.937  13.422 -0.2138 -1.2046  0.4030
 5833TIP3    H238991   4.999   5.917  13.284 -0.2308 -1.8168  0.4811
 5834TIP3   OH238992   4.920   5.655   4.348  0.4273  0.2453 -0.0794
 5834TIP3    H138993   4.972   5.576   4.358  1.0300  0.6593  0.0978
 5834TIP3    H238994   4.853   5.648   4.417  0.4718 -0.1111 -0.0702
 5835TIP3   OH238995   0.226   2.729   2.379 -0.1347 -0.5829 -0.3658
 5835TIP3    H138996   0.149   2.702   2.428 -0.7120  0.2489 -0.7939
 5835TIP3    H238997   0.192   2.762   2.296  0.4783  1.7922  0.2682
 5836TIP3   OH238998   6.514   1.303  17.111 -0.0354 -1.0447  0.0608
 5836TIP3    H138999   6.555   1.228  17.153  0.4449 -1.0463 -0.4108
 5836TIP3    H239000   6.491   1.361  17.183  0.9250 -0.9778  0.3181
 5837TIP3   OH239001   1.453   6.431   4.737 -0.0661 -0.1025 -0.0350
 5837TIP3    H139002   1.437   6.525   4.749  1.8258  0.2955 -0.3777
 5837TIP3    H239003   1.400   6.389   4.805 -1.2329  1.1624 -0.1101
 5838TIP3   OH239004   1.489   0.910  12.425 -0.3872  0.0614 -0.5887
 5838TIP3    H139005   1.526   0.823  12.428  1.1102  0.6951  0.2687
 5838TIP3    H239006   1.409   0.904  12.477 -0.5769 -0.9063 -0.9832
 5839TIP3   OH239007   5.811   5.947   3.856 -0.5123 -0.1456 -0.0447
 5839TIP3    H139008   5.842   5.864   3.893 -3.4797 -1.1503  0.4691
 5839TIP3    H239009   5.838   6.013   3.919 -0.5386 -1.1060  1.0118
 5840TIP3   OH239010   2.673   6.268  16.909  0.6167  0.3805 -0.0683
 5840TIP3    H139011   2.745   6.212  16.880  0.4277 -0.0499  0.2776
 5840TIP3    H239012   2.599   6.207  16.920  0.7335  0.4958  1.4954
 5841TIP3   OH239013   0.761   2.212  12.284 -0.1870  0.6370 -0.2042
 5841TIP3    H139014   0.736   2.201  12.192 -1.4330  2.4902 -0.1437
 5841TIP3    H239015   0.689   2.175  12.333  0.3451 -0.0864  0.0522
 5842TIP3   OH239016   0.016   1.013   2.306 -0.0067  0.3651  0.2145
 5842TIP3    H139017  -0.008   1.028   2.215  0.4528  0.6091  0.1283
 5842TIP3    H239018   0.066   0.931   2.305  1.4539  1.2346 -0.0178
 5843TIP3   OH239019   3.862   5.335  16.108 -0.0315  0.0731  0.0599
 5843TIP3    H139020   3.768   5.326  16.091  0.1219  0.2444 -0.9407
 5843TIP3    H239021   3.871   5.419  16.151 -0.4930 -0.5861  1.4850
 5844TIP3   OH239022   2.383   3.393  11.710 -0.1804 -0.0569  0.1228
 5844TIP3    H139023   2.335   3.464  11.666  1.0314 -0.3056 -1.7470
 5844TIP3    H239024   2.331   3.314  11.692 -0.0921 -0.0417 -0.2067
 5845TIP3   OH239025   0.189   2.446   2.040 -0.0996 -0.4430 -0.0541
 5845TIP3    H139026   0.264   2.391   2.016 -0.0351 -0.1465 -0.5352
 5845TIP3    H239027   0.155   2.478   1.957  0.0708  0.5174  0.2377
 5846TIP3   OH239028   1.454   2.317  12.012 -0.0608  0.1313 -0.2922
 5846TIP3    H139029   1.457   2.250  12.081  2.5127  0.0081 -0.4243
 5846TIP3    H239030   1.534   2.368  12.025  0.3242  0.3438 -2.9414
 5847TIP3   OH239031   5.813   2.770   2.829 -0.0811 -0.1770  0.0187
 5847TIP3    H139032   5.753   2.784   2.902  0.3218 -0.9539  0.5023
 5847TIP3    H239033   5.795   2.681   2.799  0.1047 -0.0434 -0.5124
 5848TIP3   OH239034   0.195   6.030  15.398  0.0183  0.3908  0.2983
 5848TIP3    H139035   0.123   6.084  15.430 -0.8030 -1.4138  1.7015
 5848TIP3    H239036   0.174   5.942  15.429  2.0055 -0.4888 -0.6853
 5849TIP3   OH239037   4.380   5.629   3.353 -0.1672  0.3026 -0.0220
 5849TIP3    H139038   4.412   5.669   3.272 -0.2677  0.1052 -0.1605
 5849TIP3    H239039   4.435   5.552   3.364  0.4448  0.8179  0.5827
 5850TIP3   OH239040   5.667   5.868  15.462 -0.2772  0.4858 -0.4341
 5850TIP3    H139041   5.758   5.898  15.453  1.0069 -2.9144 -0.2064
 5850TIP3    H239042   5.641   5.845  15.373 -0.7718  0.9315 -0.4141
 5851TIP3   OH239043   4.877   6.492  10.497 -0.4240 -0.1792  0.0679
 5851TIP3    H139044   4.886   6.398  10.478 -0.9110  0.0633 -1.5064
 5851TIP3    H239045   4.796   6.518  10.453  0.0449  1.1180 -0.0657
 5852TIP3   OH239046   4.277   0.519  13.487 -0.7735  0.2450  0.7102
 5852TIP3    H139047   4.250   0.439  13.443 -1.2900  0.5972  0.3749
 5852TIP3    H239048   4.306   0.577  13.416 -0.7291  0.4791  0.9149
 5853TIP3   OH239049   3.038   4.354   2.042 -0.3598 -0.0155  0.6603
 5853TIP3    H139050   3.095   4.389   1.973 -1.6773  1.1544  0.0978
 5853TIP3    H239051   2.991   4.282   2.000 -1.8722  1.3129 -0.0288
 5854TIP3   OH239052   2.269   6.583   4.956 -0.1404  0.4122 -0.5131
 5854TIP3    H139053   2.275   6.528   5.034  1.7817  1.1704 -0.0650
 5854TIP3    H239054   2.229   6.665   4.986 -1.4670 -0.1046 -0.8253
 5855TIP3   OH239055   2.158   1.608  17.076  0.6900  0.6957  0.0788
 5855TIP3    H139056   2.189   1.522  17.106 -0.7938 -0.1294 -0.6764
 5855TIP3    H239057   2.149   1.659  17.156  1.9689  0.3048  0.5056
 5856TIP3   OH239058   4.993   5.304  15.472 -0.3451 -0.5070 -0.2383
 5856TIP3    H139059   4.950   5.388  15.458  2.0124  0.7347 -0.4880
 5856TIP3    H239060   5.075   5.310  15.423 -0.1844 -3.0383 -0.4080
 5857TIP3   OH239061   3.453   5.517  11.934  0.1677  0.0981 -0.1279
 5857TIP3    H139062   3.436   5.459  12.009 -1.5277  0.8703  0.1267
 5857TIP3    H239063   3.372   5.566  11.923  1.6948  2.7964 -0.0380
 5858TIP3   OH239064   1.973   2.179   2.096 -0.1569 -0.3836 -0.0955
 5858TIP3    H139065   2.060   2.218   2.095  0.2463 -1.0660  2.2265
 5858TIP3    H239066   1.987   2.089   2.128 -1.6508 -0.6273 -0.0273
 5859TIP3   OH239067   5.695   6.257   2.828 -0.1712 -0.4214 -0.2948
 5859TIP3    H139068   5.601   6.264   2.810 -0.3685 -0.5802  0.6472
 5859TIP3    H239069   5.731   6.342   2.802 -0.4794 -0.5420 -1.1590
 5860TIP3   OH239070   4.347   0.105  16.607 -0.3104 -0.3061  0.7354
 5860TIP3    H139071   4.314   0.036  16.550  0.5814  0.0774 -0.2747
 5860TIP3    H239072   4.299   0.183  16.581  0.1039 -0.1281  0.4957
 5861TIP3   OH239073   6.253   5.542  17.220  0.3840  0.8184 -0.1175
 5861TIP3    H139074   6.223   5.498  17.140 -0.9924  0.7061  0.4437
 5861TIP3    H239075   6.194   5.511  17.288  2.1883  0.1029  1.1867
 5862TIP3   OH239076   1.296   5.172   4.744 -0.8955 -0.7464 -0.0777
 5862TIP3    H139077   1.258   5.101   4.691  0.5288  0.5651 -3.1431
 5862TIP3    H239078   1.390   5.155   4.743 -0.6209  0.6478 -0.1027
 5863TIP3   OH239079   3.112   5.617  17.105  0.4679  0.9075 -0.0516
 5863TIP3    H139080   3.062   5.549  17.150  0.0509 -0.5511 -2.5016
 5863TIP3    H239081   3.083   5.612  17.013  4.2492  0.7343 -1.4271
 5864TIP3   OH239082   0.304   3.726   2.533  0.3363 -0.9632  0.0672
 5864TIP3    H139083   0.309   3.670   2.456 -0.4769 -1.0831  0.0954
 5864TIP3    H239084   0.360   3.801   2.511  0.0507 -0.9556 -0.6727
 5865TIP3   OH239085   2.811   5.776  15.162  0.1166  0.3544 -0.0515
 5865TIP3    H139086   2.852   5.758  15.247 -0.8801 -2.5074 -0.0803
 5865TIP3    H239087   2.871   5.739  15.098 -0.0791  0.7263 -0.4492
 5866TIP3   OH239088   1.568   1.983   4.786 -0.8163  0.7274  0.4009
 5866TIP3    H139089   1.547   1.936   4.867  1.6771 -2.3416 -0.5120
 5866TIP3    H239090   1.528   1.930   4.717 -1.4915  2.3822 -0.5197
 5867TIP3   OH239091   3.342   0.280   2.348  0.2427 -0.4610 -0.1436
 5867TIP3    H139092   3.257   0.236   2.352  0.2430 -0.4445  0.0315
 5867TIP3    H239093   3.400   0.216   2.304  0.3685 -0.8377  0.5534
 5868TIP3   OH239094   0.147   3.365  15.528  0.4685  0.4621 -0.1463
 5868TIP3    H139095   0.192   3.304  15.469  1.9863  0.7295  0.6623
 5868TIP3    H239096   0.159   3.451  15.488 -0.0551  0.4436 -0.3465
 5869TIP3   OH239097   1.714   5.567  17.133 -0.3498  0.4529  0.4178
 5869TIP3    H139098   1.776   5.623  17.087  2.3307 -0.9787  1.9953
 5869TIP3    H239099   1.758   5.482  17.138 -2.8920 -0.9555  0.8335
 5870TIP3   OH239100   2.301   3.045   2.938 -0.3195  0.4514  0.2215
 5870TIP3    H139101   2.395   3.026   2.947 -0.3696 -0.6547 -1.2345
 5870TIP3    H239102   2.292   3.135   2.968  1.2823  0.6819  0.0984
 5871TIP3   OH239103   1.478   4.804   4.641  0.9050  0.0400  0.1187
 5871TIP3    H139104   1.557   4.777   4.593  2.4860  1.6991  1.5976
 5871TIP3    H239105   1.500   4.788   4.733 -0.5487  0.4450  0.5575
 5872TIP3   OH239106   0.233   4.383   3.995 -0.0946  0.2193  0.2236
 5872TIP3    H139107   0.190   4.369   3.910  1.2702  1.9093 -0.8164
 5872TIP3    H239108   0.322   4.349   3.983  0.5992  1.8921  0.4154
 5873TIP3   OH239109   3.754   2.551  16.041 -0.4490 -0.2677 -0.4602
 5873TIP3    H139110   3.785   2.460  16.043 -1.3954 -0.5894 -0.1140
 5873TIP3    H239111   3.815   2.595  15.982 -0.7280 -1.4221 -1.6582
 5874TIP3   OH239112   6.207   0.005   0.766 -0.0466  0.2540  0.5997
 5874TIP3    H139113   6.212   0.099   0.748  0.7143  0.3636  1.3290
 5874TIP3    H239114   6.134  -0.004   0.827 -1.7362  0.0457 -1.3303
 5875TIP3   OH239115   0.070   3.271   4.944 -0.0717 -0.7388  0.3065
 5875TIP3    H139116   0.084   3.295   5.035  2.1895  2.5801 -0.7060
 5875TIP3    H239117   0.021   3.345   4.907 -0.2625 -1.6359 -1.3595
 5876TIP3   OH239118   3.161   2.246   3.969  0.1331  0.9493 -0.1237
 5876TIP3    H139119   3.114   2.263   3.887  1.6826  0.1659 -1.2116
 5876TIP3    H239120   3.138   2.155   3.990  1.1123  0.5529 -0.6753
 5877TIP3   OH239121   3.168   1.501   5.647 -0.2816  0.4039  0.0272
 5877TIP3    H139122   3.253   1.514   5.690  0.7241  0.3618 -1.8451
 5877TIP3    H239123   3.124   1.435   5.701  1.3440 -0.4072  0.4413
 5878TIP3   OH239124   3.807   5.131   2.242 -0.6086 -0.1372 -0.1536
 5878TIP3    H139125   3.790   5.223   2.264 -0.2610 -0.3196  0.9117
 5878TIP3    H239126   3.872   5.102   2.306 -2.8724 -1.9792  1.4951
 5879TIP3   OH239127   6.673   2.683   1.040 -0.7340 -0.7096  0.5354
 5879TIP3    H139128   6.639   2.618   0.978 -2.3368  0.3329  0.2436
 5879TIP3    H239129   6.730   2.739   0.987 -2.1432  0.2127 -0.0778
 5880TIP3   OH239130   4.825   0.785  15.519  0.1085  0.0354  0.4741
 5880TIP3    H139131   4.857   0.805  15.607  0.1655  3.1325 -0.1393
 5880TIP3    H239132   4.764   0.857  15.499 -2.4059 -2.2533 -0.8431
 5881TIP3   OH239133   2.218   2.360   2.031 -0.7480 -0.2704 -0.1183
 5881TIP3    H139134   2.270   2.332   1.956 -1.0650 -0.3004 -0.3306
 5881TIP3    H239135   2.278   2.411   2.085 -0.7218  0.4525 -0.8044
 5882TIP3   OH239136   5.200   3.983  16.522  0.0489  0.0632  0.3253
 5882TIP3    H139137   5.240   3.996  16.608  1.4171 -2.3047  0.1355
 5882TIP3    H239138   5.114   3.945  16.541 -0.0389  0.4241  0.6595
 5883TIP3   OH239139   0.650   6.255  14.119 -0.1404 -0.3223  0.4038
 5883TIP3    H139140   0.574   6.226  14.169 -2.7185  2.1880 -1.7590
 5883TIP3    H239141   0.627   6.239  14.028  1.9889  0.4102 -0.3304
 5884TIP3   OH239142   2.140   3.332   1.224 -0.3223 -0.2778  0.0941
 5884TIP3    H139143   2.116   3.424   1.238 -1.3799 -0.5060 -0.1083
 5884TIP3    H239144   2.180   3.331   1.138  0.5103  0.1291  0.4644
 5885TIP3   OH239145   3.186   0.131   6.179 -0.1789 -0.1461  0.0980
 5885TIP3    H139146   3.102   0.176   6.165 -0.1222  0.5916  1.9056
 5885TIP3    H239147   3.164   0.057   6.236  0.2209 -0.6594 -0.4020
 5886TIP3   OH239148   1.853   2.017  16.384  0.2727 -0.0905 -0.3419
 5886TIP3    H139149   1.912   2.093  16.390 -0.5304  0.4910  0.3723
 5886TIP3    H239150   1.775   2.051  16.340 -0.3850 -0.2941  0.6330
 5887TIP3   OH239151   6.535   3.477   6.401 -0.2552 -0.0696  0.2421
 5887TIP3    H139152   6.476   3.402   6.402  2.8985 -2.8289  1.8241
 5887TIP3    H239153   6.499   3.537   6.466 -3.2525  0.2614 -1.5652
 5888TIP3   OH239154   2.667   3.968   3.784  0.4042 -0.3462 -0.2836
 5888TIP3    H139155   2.684   4.057   3.751  0.2136 -0.5372 -0.9062
 5888TIP3    H239156   2.754   3.929   3.794  0.4730 -0.1984 -0.3040
 5889TIP3   OH239157   4.438   5.893   3.462 -0.0162  0.5673 -0.2736
 5889TIP3    H139158   4.415   5.800   3.460 -2.5475  1.1067 -2.7773
 5889TIP3    H239159   4.424   5.920   3.552 -0.0177 -1.2725  0.3146
 5890TIP3   OH239160   6.342   0.483   2.257  0.2677  0.1607 -0.5004
 5890TIP3    H139161   6.423   0.431   2.265 -0.3565 -0.7192  0.3113
 5890TIP3    H239162   6.304   0.453   2.174 -0.3846 -1.1424  0.2458
 5891TIP3   OH239163   5.044   5.563   5.452 -0.6130 -0.1898 -0.2635
 5891TIP3    H139164   5.042   5.613   5.534  1.2795  2.4947 -1.7019
 5891TIP3    H239165   4.972   5.600   5.401 -0.5034 -0.4141 -0.5768
 5892TIP3   OH239166   1.274   3.726  15.429 -0.2802 -0.1882 -0.2700
 5892TIP3    H139167   1.352   3.764  15.470 -0.8221  1.9831 -1.1278
 5892TIP3    H239168   1.213   3.715  15.502  0.6970 -1.7671  0.3851
 5893TIP3   OH239169   6.633   5.043   1.096  0.0543 -0.0920 -0.4095
 5893TIP3    H139170   6.596   5.079   1.015 -0.0937 -0.6368 -0.5922
 5893TIP3    H239171   6.682   4.965   1.067 -0.5872 -0.6976  0.0931
 5894TIP3   OH239172   1.036   5.312  15.241 -0.2460 -0.1754  0.1156
 5894TIP3    H139173   1.096   5.325  15.315  0.9522 -1.0692 -0.6630
 5894TIP3    H239174   0.965   5.375  15.256  0.7481  0.7292  1.2048
 5895TIP3   OH239175   3.887   0.993  16.407 -1.4020 -0.8912  0.0327
 5895TIP3    H139176   3.877   1.015  16.500 -0.9202  0.2049 -0.1618
 5895TIP3    H239177   3.886   0.897  16.406  2.4213 -1.1387  1.6859
 5896TIP3   OH239178   5.610   2.592   4.143 -0.1425  0.6015  0.0743
 5896TIP3    H139179   5.647   2.523   4.087 -1.2074  1.2827 -1.5416
 5896TIP3    H239180   5.651   2.673   4.111 -0.9452  1.0326  0.1181
 5897TIP3   OH239181   2.606   4.276  12.383  0.0055  0.1911  0.0448
 5897TIP3    H139182   2.681   4.263  12.325  0.2466 -0.4608  0.4939
 5897TIP3    H239183   2.540   4.216  12.351 -0.0824  0.2746  0.0687
 5898TIP3   OH239184   5.029   1.369   2.784  0.2979 -0.0205  0.8717
 5898TIP3    H139185   4.958   1.424   2.817 -1.1451 -1.1301 -0.2276
 5898TIP3    H239186   5.083   1.429   2.732 -0.9701  0.4993  0.0874
 5899TIP3   OH239187   4.262   1.631  13.006  0.0934  0.1941 -0.5782
 5899TIP3    H139188   4.335   1.682  13.043  0.5505 -0.7352 -0.1719
 5899TIP3    H239189   4.283   1.625  12.913 -0.5976  1.7753 -0.8727
 5900TIP3   OH239190   2.997   5.838   3.982 -0.2119  0.4373 -0.3682
 5900TIP3    H139191   3.019   5.752   3.946 -1.7137 -0.2303  0.2232
 5900TIP3    H239192   3.081   5.874   4.010  0.5361 -0.5126 -1.2961
 5901TIP3   OH239193   5.731   2.480   4.974  0.3886 -0.1005  0.3257
 5901TIP3    H139194   5.712   2.386   4.980 -0.9485  0.1206 -0.1779
 5901TIP3    H239195   5.650   2.522   5.000  0.9819  0.9319  0.5477
 5902TIP3   OH239196   1.938   3.159   0.771 -0.4628 -0.0664  0.0789
 5902TIP3    H139197   1.999   3.109   0.716  1.7841  0.2288  2.1033
 5902TIP3    H239198   1.892   3.216   0.710 -0.3358 -1.8634 -1.8340
 5903TIP3   OH239199   3.599   0.127   3.714  0.1860 -0.0264  0.3929
 5903TIP3    H139200   3.676   0.072   3.728  0.2123  0.3240  1.8139
 5903TIP3    H239201   3.544   0.110   3.790 -2.3834 -2.1835 -1.7552
 5904TIP3   OH239202   4.076   6.580  12.594 -0.1185  0.5056  0.3382
 5904TIP3    H139203   4.057   6.516  12.663 -0.9844  2.3451  1.8734
 5904TIP3    H239204   4.138   6.535  12.537 -0.8310 -1.7678  1.2436
 5905TIP3   OH239205   5.173   1.186   2.079  0.2099 -0.1512  0.2800
 5905TIP3    H139206   5.193   1.265   2.029  0.1618 -1.1339 -1.3769
 5905TIP3    H239207   5.077   1.179   2.074  0.1705 -0.0367  0.8722
 5906TIP3   OH239208   1.128   0.348   4.435  0.4687  0.1261  0.2065
 5906TIP3    H139209   1.113   0.417   4.370 -0.4761 -1.1872 -1.0457
 5906TIP3    H239210   1.114   0.266   4.387 -1.2168 -0.9084  2.2934
 5907TIP3   OH239211   6.476   6.118  15.379  0.0987  0.0633  0.1147
 5907TIP3    H139212   6.437   6.062  15.312  0.5575 -0.9724  0.6839
 5907TIP3    H239213   6.443   6.083  15.461  0.5844  0.4889  0.4943
 5908TIP3   OH239214   6.108   6.492   3.024 -0.4742  0.6666 -0.6415
 5908TIP3    H139215   6.181   6.438   2.993  1.0394  0.2571  3.0563
 5908TIP3    H239216   6.139   6.582   3.013  0.1081  0.5276 -0.1826
 5909TIP3   OH239217   3.137   5.239  15.527  0.3147  0.0562  0.1162
 5909TIP3    H139218   3.153   5.202  15.440  0.1557  0.0345  0.0951
 5909TIP3    H239219   3.049   5.208  15.549  0.8535 -1.0040  0.8401
 5910TIP3   OH239220   3.831   3.552   0.362 -0.5784 -0.0929  0.1526
 5910TIP3    H139221   3.760   3.599   0.406 -0.1465 -0.4371  1.2437
 5910TIP3    H239222   3.793   3.524   0.279 -1.8114 -0.4930  0.8298
 5911TIP3   OH239223   4.172   1.088  14.592 -0.1550  0.1742  0.2970
 5911TIP3    H139224   4.199   1.025  14.525  0.1948 -0.8691  1.3740
 5911TIP3    H239225   4.246   1.148  14.599 -0.6930  1.0403 -1.0893
 5912TIP3   OH239226   1.695   2.234   5.260  0.2902  0.2435  0.3037
 5912TIP3    H139227   1.716   2.312   5.209 -0.9176  0.8816  0.7332
 5912TIP3    H239228   1.727   2.161   5.207 -1.8825  0.7904 -1.9583
 5913TIP3   OH239229   1.208   1.132  11.466  0.4701 -0.0378 -0.3749
 5913TIP3    H139230   1.280   1.188  11.494  0.8726 -0.6394 -0.1741
 5913TIP3    H239231   1.215   1.055  11.523 -0.0966 -0.2683 -0.6152
 5914TIP3   OH239232   5.703   1.198  15.641 -0.2249  0.4432  0.4630
 5914TIP3    H139233   5.635   1.130  15.636  0.0237  0.2823 -1.1206
 5914TIP3    H239234   5.701   1.226  15.732 -1.4831 -0.5194  0.7676
 5915TIP3   OH239235   3.748   4.841   4.473  0.0588 -0.0460  0.7190
 5915TIP3    H139236   3.683   4.789   4.520  0.2359 -0.4199  0.5517
 5915TIP3    H239237   3.767   4.792   4.394 -0.2638  0.6015  0.2274
 5916TIP3   OH239238   1.353   3.378  14.109  0.0430  0.0906  0.2596
 5916TIP3    H139239   1.367   3.291  14.147 -0.7899 -0.2183 -0.1058
 5916TIP3    H239240   1.433   3.397  14.062 -0.3728 -1.2121 -1.0408
 5917TIP3   OH239241   2.902   5.759   4.948  0.1293  0.0605 -0.1880
 5917TIP3    H139242   2.973   5.777   4.887  0.6012 -0.7888  0.1086
 5917TIP3    H239243   2.863   5.845   4.965  0.2227  0.3530 -1.3916
 5918TIP3   OH239244   6.466   2.534  11.765 -0.2226 -0.3808 -0.6023
 5918TIP3    H139245   6.413   2.536  11.685 -1.7043 -0.7454  0.3351
 5918TIP3    H239246   6.533   2.468  11.748 -2.0229 -2.2832 -0.6735
 5919TIP3   OH239247   4.671   2.341   5.350 -0.2640  0.2830  0.0744
 5919TIP3    H139248   4.650   2.391   5.429  0.8178 -1.1160  1.3106
 5919TIP3    H239249   4.748   2.384   5.313  0.5187 -0.2869  1.0008
 5920TIP3   OH239250   5.615   6.166  12.294  0.0504 -0.1014 -0.1073
 5920TIP3    H139251   5.547   6.194  12.356 -1.2201 -1.1632 -0.9592
 5920TIP3    H239252   5.598   6.217  12.215 -0.2771 -0.9446 -0.5913
 5921TIP3   OH239253   5.430   4.560  16.967 -0.1944 -0.5074  0.2870
 5921TIP3    H139254   5.389   4.508  17.036  0.3537 -1.7439 -0.2979
 5921TIP3    H239255   5.521   4.531  16.965  0.4446  1.2931  0.7067
 5922TIP3   OH239256   2.748   0.498   0.225 -0.2084  0.0865 -0.1097
 5922TIP3    H139257   2.729   0.520   0.316 -2.3294 -1.3548 -0.1178
 5922TIP3    H239258   2.790   0.412   0.229  1.2210  0.7443 -0.4399
 5923TIP3   OH239259   2.624   6.011  12.667 -0.1238 -0.2091 -0.0901
 5923TIP3    H139260   2.636   6.104  12.647 -0.3658  0.1608  1.3447
 5923TIP3    H239261   2.546   5.986  12.617  0.0039  0.3238 -0.5732
 5924TIP3   OH239262   6.527   0.124  11.198 -0.3817 -0.7589  0.6571
 5924TIP3    H139263   6.545   0.218  11.202 -0.8872 -0.5092 -1.6588
 5924TIP3    H239264   6.613   0.083  11.194 -0.0865 -0.0844 -2.2145
 5925TIP3   OH239265   3.594   5.484  15.739 -0.0322  0.9286  0.0289
 5925TIP3    H139266   3.544   5.558  15.773  1.8081  1.6468  1.3803
 5925TIP3    H239267   3.595   5.421  15.811  0.2512  0.5634 -0.2916
 5926TIP3   OH239268   3.213   2.082  12.601 -0.0132  0.1308  0.2461
 5926TIP3    H139269   3.282   2.082  12.667  1.4388 -1.7204 -1.1898
 5926TIP3    H239270   3.171   1.997  12.609 -1.3763  0.7692  0.2714
 5927TIP3   OH239271   0.907   3.323  14.980 -1.0579  0.1824  0.2250
 5927TIP3    H139272   0.954   3.241  14.967  1.9280  1.8291 -0.4362
 5927TIP3    H239273   0.950   3.364  15.055 -1.0341  2.0300 -0.7438
 5928TIP3   OH239274   0.876   5.988  13.862 -0.5185 -0.1912 -0.1667
 5928TIP3    H139275   0.888   5.962  13.771  0.3659 -2.8585  0.6252
 5928TIP3    H239276   0.781   5.997  13.871 -0.6238  0.0634 -1.3273
 5929TIP3   OH239277   3.465   5.231  15.578 -0.1053 -0.1771  0.5336
 5929TIP3    H139278   3.452   5.325  15.589  1.2004  0.2109 -0.9166
 5929TIP3    H239279   3.389   5.192  15.622 -0.6188  1.5201  1.2804
 5930TIP3   OH239280   6.727   0.564   0.019 -0.6782 -0.1337 -0.8690
 5930TIP3    H139281   6.697   0.607   0.099  1.0477  0.0742 -0.3033
 5930TIP3    H239282   6.665   0.593  -0.048 -2.3751 -0.5913  0.4313
 5931TIP3   OH239283   2.962   0.872  13.944 -0.1457  0.4223 -0.0029
 5931TIP3    H139284   3.000   0.794  13.985  0.4282  1.1005  0.7910
 5931TIP3    H239285   3.037   0.931  13.933 -1.0247  2.1296  2.3603
 5932TIP3   OH239286   3.270   5.947  13.768 -0.6658  0.3926  1.2446
 5932TIP3    H139287   3.364   5.956  13.755 -0.5538  0.7232  2.2355
 5932TIP3    H239288   3.236   6.036  13.763 -1.0565  0.2124  0.1119
 5933TIP3   OH239289   6.427   0.875  15.264  0.4272  0.1827 -0.1169
 5933TIP3    H139290   6.423   0.872  15.360 -0.8220  3.2272  0.0558
 5933TIP3    H239291   6.335   0.882  15.236  0.7890 -0.2922 -1.5184
 5934TIP3   OH239292   3.973   1.660  13.041  0.0178 -0.8840 -0.0364
 5934TIP3    H139293   3.989   1.754  13.050  0.5161 -1.0681  1.2943
 5934TIP3    H239294   4.055   1.625  13.008 -0.2830 -0.8237 -0.8786
 5935TIP3   OH239295   3.820   4.272  13.585 -0.3605  0.2114 -0.7216
 5935TIP3    H139296   3.907   4.307  13.566 -0.0654 -0.7476 -1.2007
 5935TIP3    H239297   3.766   4.349  13.603  0.5086  0.8335 -0.7529
 5936TIP3   OH239298   4.287   1.643   2.565 -0.6203 -0.9419 -0.5005
 5936TIP3    H139299   4.255   1.676   2.649 -0.0796 -1.8130  0.0609
 5936TIP3    H239300   4.361   1.699   2.543 -0.6294 -0.8494 -0.2895
 5937TIP3   OH239301   2.896   5.313  14.417  0.0091  0.1458  0.3289
 5937TIP3    H139302   2.899   5.329  14.322 -1.1838 -0.3843  0.1905
 5937TIP3    H239303   2.945   5.231  14.428 -0.8673 -0.4372  0.0056
 5938TIP3   OH239304   4.428   4.136   4.000  0.2385  0.3174 -0.1229
 5938TIP3    H139305   4.428   4.227   4.031 -1.5077  1.6325 -3.5472
 5938TIP3    H239306   4.347   4.100   4.034 -0.0552  0.6946 -0.4156
 5939TIP3   OH239307   4.601   1.090   1.933  0.3655  0.1040  0.3145
 5939TIP3    H139308   4.524   1.067   1.881  1.2072 -0.6696 -0.6263
 5939TIP3    H239309   4.566   1.112   2.019 -1.0119  0.8399 -0.3904
 5940TIP3   OH239310   2.645   3.692   0.713 -0.4451  0.1970 -0.6527
 5940TIP3    H139311   2.731   3.682   0.672 -0.2795 -1.0042 -0.0785
 5940TIP3    H239312   2.599   3.756   0.659  0.4067 -0.0021 -1.6367
 5941TIP3   OH239313   4.413   2.792   1.953 -0.0968 -0.6236  0.2528
 5941TIP3    H139314   4.447   2.762   1.868  1.3317  1.5955 -0.0457
 5941TIP3    H239315   4.321   2.811   1.936 -0.0311 -0.9707 -0.5896
 5942TIP3   OH239316   1.527   4.790   2.277  0.0084  0.5374 -0.4103
 5942TIP3    H139317   1.604   4.749   2.236 -0.4137  0.3732 -1.0438
 5942TIP3    H239318   1.508   4.733   2.352  0.3810  0.4637 -0.3665
 5943TIP3   OH239319   2.689   4.991   1.320 -0.5932  0.2267 -0.2063
 5943TIP3    H139320   2.736   5.042   1.386 -0.3655 -0.6734  0.3434
 5943TIP3    H239321   2.639   5.056   1.271 -0.0113  1.0205  0.2258
 5944TIP3   OH239322   4.176   1.356   1.739  0.5423  0.0841  0.3060
 5944TIP3    H139323   4.092   1.403   1.747  0.6928  0.5650 -0.7975
 5944TIP3    H239324   4.154   1.275   1.694  0.5772 -0.0567  0.5427
 5945TIP3   OH239325   3.432   3.595   1.263  0.8873 -0.0967 -0.6719
 5945TIP3    H139326   3.523   3.565   1.265  0.5582 -1.1112 -0.4243
 5945TIP3    H239327   3.397   3.559   1.182 -0.1154 -2.3233  0.6350
 5946TIP3   OH239328   1.783   1.984   4.545  0.1456  0.4014 -0.2392
 5946TIP3    H139329   1.752   2.010   4.631  1.0621 -1.6756  0.8128
 5946TIP3    H239330   1.719   1.920   4.515  0.6362 -0.0344 -0.3752
 5947TIP3   OH239331   0.798   1.960  11.755 -0.2752 -0.1041 -0.0074
 5947TIP3    H139332   0.855   1.915  11.693 -0.1204 -0.9887  0.7546
 5947TIP3    H239333   0.834   2.049  11.761 -0.9400  0.3386 -1.9779
 5948TIP3   OH239334   6.048   6.332   0.496  0.8138 -0.1787 -0.5530
 5948TIP3    H139335   6.062   6.381   0.578  1.1293 -1.0666 -0.0648
 5948TIP3    H239336   5.958   6.354   0.471  0.4613 -0.4484  0.4240
 5949TIP3   OH239337   3.415   4.889  14.188 -0.7556 -0.2601  0.5747
 5949TIP3    H139338   3.471   4.850  14.255 -1.8568  2.4100  3.3287
 5949TIP3    H239339   3.472   4.901  14.112  1.0273 -1.9593  1.5741
 5950TIP3   OH239340   2.566   4.741   5.100  0.3777  0.3988  0.4810
 5950TIP3    H139341   2.532   4.815   5.050 -2.0977 -1.2237 -0.4428
 5950TIP3    H239342   2.556   4.768   5.192 -0.1496  1.3343  0.1667
 5951TIP3   OH239343   5.797   1.093   1.117  0.0669  0.6526 -0.7385
 5951TIP3    H139344   5.768   1.170   1.068 -1.4184  0.6839  0.1164
 5951TIP3    H239345   5.756   1.103   1.203  0.0144 -0.9920 -0.5462
 5952TIP3   OH239346   5.316   2.720   3.795  0.1456 -0.1039 -0.2560
 5952TIP3    H139347   5.226   2.735   3.824 -0.3174  1.2071 -2.1820
 5952TIP3    H239348   5.362   2.802   3.813  0.7831 -0.5068  0.0305
 5953TIP3   OH239349   4.256   4.250  14.865 -0.3201 -0.1460 -0.3310
 5953TIP3    H139350   4.307   4.317  14.910  0.9189 -0.9498 -0.4941
 5953TIP3    H239351   4.318   4.208  14.806 -0.8666 -1.9544  0.3115
 5954TIP3   OH239352   3.706   3.700  14.700 -0.7819 -0.4103 -0.7286
 5954TIP3    H139353   3.770   3.643  14.742 -1.0606 -0.0651  0.1843
 5954TIP3    H239354   3.630   3.644  14.685 -1.7217  0.0906  1.7683
 5955TIP3   OH239355   4.578   1.730  12.551 -0.1617  0.2118  0.2333
 5955TIP3    H139356   4.513   1.769  12.608  0.8176  0.1108  1.4538
 5955TIP3    H239357   4.527   1.672  12.493 -1.3235  1.4013  0.0146
 5956TIP3   OH239358   0.893   5.454   5.926  0.1615 -0.5481  0.0221
 5956TIP3    H139359   0.804   5.441   5.895 -0.1135 -0.3338  0.7036
 5956TIP3    H239360   0.889   5.534   5.979  1.0894  0.3588 -1.2266
 5957TIP3   OH239361   2.113   4.261   2.216  1.0628 -0.0229 -0.2970
 5957TIP3    H139362   2.137   4.311   2.138 -0.3080  1.1682 -0.0082
 5957TIP3    H239363   2.084   4.176   2.182  0.3855  0.5112 -1.1202
 5958TIP3   OH239364   4.631   3.043  14.338 -0.2322 -0.4359  0.6383
 5958TIP3    H139365   4.565   3.089  14.286 -0.0869 -0.7385  0.1673
 5958TIP3    H239366   4.627   2.953  14.305 -0.8201 -0.8618  1.8431
 5959TIP3   OH239367   2.138   2.392  11.657  0.6880 -0.0549  0.4152
 5959TIP3    H139368   2.105   2.412  11.570  1.2864  0.6171  0.3257
 5959TIP3    H239369   2.074   2.333  11.695 -0.4910  1.0125  0.1604
 5960TIP3   OH239370   0.342   5.772  16.051 -0.3738 -0.1973 -0.3038
 5960TIP3    H139371   0.424   5.785  16.002 -0.5323 -1.4231 -0.9267
 5960TIP3    H239372   0.368   5.725  16.129 -0.1269  1.7309  0.8485
 5961TIP3   OH239373   4.488   6.176   0.146 -0.0729 -0.5733 -0.1056
 5961TIP3    H139374   4.469   6.111   0.079  0.3637  0.7564 -1.5751
 5961TIP3    H239375   4.577   6.156   0.175  0.3313 -0.2258 -1.0644
 5962TIP3   OH239376   1.018   3.271  10.681 -0.2787  0.3414  0.0816
 5962TIP3    H139377   1.108   3.243  10.661 -0.3350  0.3455 -0.1722
 5962TIP3    H239378   0.974   3.191  10.708 -0.1212  0.3881  0.4895
 5963TIP3   OH239379   5.360   3.723   6.004 -0.0530  0.0726 -0.2651
 5963TIP3    H139380   5.410   3.804   5.995  2.0774 -1.0030  0.9742
 5963TIP3    H239381   5.339   3.697   5.914  0.0968  1.4916 -0.7262
 5964TIP3   OH239382   4.677   0.399   2.295 -0.2186  0.9959  0.4000
 5964TIP3    H139383   4.593   0.390   2.340  0.9172 -1.1125  2.2938
 5964TIP3    H239384   4.731   0.453   2.353 -0.0658  1.8836 -0.5416
 5965TIP3   OH239385   5.496   2.666   2.823  0.4379  0.5845 -1.0678
 5965TIP3    H139386   5.495   2.746   2.769 -0.0081  0.8081 -0.7369
 5965TIP3    H239387   5.405   2.654   2.850  0.6699  0.5466 -0.2650
 5966TIP3   OH239388   6.062   2.357  12.111 -0.2667  0.1757 -0.2710
 5966TIP3    H139389   6.139   2.392  12.156  0.2408 -0.2648 -0.7747
 5966TIP3    H239390   6.096   2.323  12.028 -0.6656 -1.7350  0.2832
 5967TIP3   OH239391   0.520   2.773   5.490 -0.2858  0.4191  0.0241
 5967TIP3    H139392   0.608   2.766   5.452 -0.2356 -0.5288  0.2786
 5967TIP3    H239393   0.509   2.866   5.510 -0.2464  0.9376 -2.1550
 5968TIP3   OH239394   4.487   1.450   4.920  0.0566  0.0503 -0.2634
 5968TIP3    H139395   4.502   1.359   4.948 -1.1370 -0.1019 -0.0844
 5968TIP3    H239396   4.574   1.482   4.896  0.6270 -0.8421  0.5642
 5969TIP3   OH239397   2.431   1.725   3.997  0.3435  0.4155 -0.5134
 5969TIP3    H139398   2.350   1.730   3.947  0.0414 -1.6969 -0.3585
 5969TIP3    H239399   2.428   1.798   4.058 -3.3239 -1.6251  2.1455
 5970TIP3   OH239400   6.073   1.239  15.028 -0.4661  0.3787 -0.0317
 5970TIP3    H139401   6.036   1.320  14.992 -0.2731  0.4225 -0.1322
 5970TIP3    H239402   6.004   1.205  15.085  0.1102  1.5235  1.4077
 5971TIP3   OH239403   1.414   2.924  15.449 -0.4710  0.2365 -0.3251
 5971TIP3    H139404   1.396   3.017  15.439 -0.8619  0.1920 -0.0737
 5971TIP3    H239405   1.350   2.881  15.393  0.1169  0.1385 -0.9261
 5972TIP3   OH239406   4.604   0.289  12.582  0.4205  0.1320  0.1113
 5972TIP3    H139407   4.612   0.219  12.518  0.4527 -1.2013  1.4966
 5972TIP3    H239408   4.522   0.270  12.627  1.4028 -0.2417  1.8504
 5973TIP3   OH239409   2.658   5.447   2.063  0.2578 -0.2469  0.2192
 5973TIP3    H139410   2.630   5.536   2.085  2.2302  0.6016 -0.3993
 5973TIP3    H239411   2.584   5.391   2.087 -0.5913  1.4231  1.7592
 5974TIP3   OH239412   2.877   5.586  11.834 -0.9356 -0.2727 -0.2660
 5974TIP3    H139413   2.850   5.511  11.887  0.1180  0.2006  0.9985
 5974TIP3    H239414   2.842   5.662  11.881  0.5714  0.1970  0.1419
 5975TIP3   OH239415   2.357   1.162  12.980  0.3679 -0.1525  0.1540
 5975TIP3    H139416   2.410   1.241  12.994 -0.1941  0.2547  0.0245
 5975TIP3    H239417   2.271   1.195  12.956  0.0768 -0.8088  0.2701
 5976TIP3   OH239418   5.920   3.416   3.523 -0.1663  0.3390 -0.7680
 5976TIP3    H139419   5.937   3.325   3.497 -0.1822  0.2568 -0.4996
 5976TIP3    H239420   5.826   3.419   3.540  0.3201 -0.6430  3.0472
 5977TIP3   OH239421   2.529   2.678   0.758  0.1743  0.7257  0.0014
 5977TIP3    H139422   2.608   2.624   0.754  0.8821  1.6653  0.8787
 5977TIP3    H239423   2.503   2.677   0.850  0.0240  1.6276 -0.0203
 5978TIP3   OH239424   2.618   2.443   3.367 -0.2150 -0.4349  0.1022
 5978TIP3    H139425   2.534   2.404   3.392 -0.0096 -2.5519 -2.1480
 5978TIP3    H239426   2.601   2.488   3.284  0.5377  0.6313  0.4958
 5979TIP3   OH239427   5.611   1.840   6.092 -0.1905 -0.2735 -0.8206
 5979TIP3    H139428   5.634   1.845   6.185 -0.0848 -0.3378 -0.8432
 5979TIP3    H239429   5.606   1.747   6.073  0.0400 -0.2633 -0.9403
 5980TIP3   OH239430   5.726   4.313  13.918  0.4105 -0.6225  0.0300
 5980TIP3    H139431   5.651   4.276  13.963 -1.4371  0.9235 -1.6254
 5980TIP3    H239432   5.732   4.264  13.836  0.2658  0.2172 -0.4980
 5981TIP3   OH239433   2.705   6.489  11.922 -0.2160 -0.5412  0.4398
 5981TIP3    H139434   2.745   6.439  11.851  0.0998 -3.8032  2.6948
 5981TIP3    H239435   2.615   6.504  11.893 -0.1827 -2.0594 -0.5883
 5982TIP3   OH239436   1.363   6.572  10.907  0.4375  0.0149  0.5678
 5982TIP3    H139437   1.362   6.479  10.881  0.0509  0.3900 -0.8875
 5982TIP3    H239438   1.436   6.609  10.857 -0.7492  0.9154 -0.5718
 5983TIP3   OH239439   0.272   1.103   0.920 -0.2707 -0.0515  0.3509
 5983TIP3    H139440   0.258   1.168   0.989 -0.5679  0.7522 -0.4458
 5983TIP3    H239441   0.274   1.019   0.966  0.1568  0.5187  1.4028
 5984TIP3   OH239442   2.997   2.714  12.041 -0.3643 -0.0197 -0.8175
 5984TIP3    H139443   2.909   2.685  12.065 -1.0267  2.0611 -0.4625
 5984TIP3    H239444   2.994   2.723  11.946 -0.5915  0.1903 -0.7917
 5985TIP3   OH239445   1.850   6.204   0.393 -0.5488 -0.3083  0.1739
 5985TIP3    H139446   1.915   6.269   0.421 -1.0536  0.9305 -1.3836
 5985TIP3    H239447   1.895   6.120   0.403  0.1053  0.2318  2.2759
 5986TIP3   OH239448   0.932   5.737  17.061  0.1193 -0.1776 -0.2194
 5986TIP3    H139449   1.025   5.736  17.039  0.3565 -0.7080  0.7189
 5986TIP3    H239450   0.930   5.709  17.153 -0.6470  3.3844  1.0341
 5987TIP3   OH239451   1.038   1.727  15.434  0.7515  0.4243 -0.2423
 5987TIP3    H139452   0.944   1.708  15.441  0.8373  0.4806  1.3062
 5987TIP3    H239453   1.081   1.646  15.464  1.1862  0.6466 -0.2638
 5988TIP3   OH239454   0.925   2.593   4.927  0.4288 -0.4191  0.4181
 5988TIP3    H139455   0.834   2.568   4.945  0.7023 -0.1478  2.3858
 5988TIP3    H239456   0.966   2.513   4.893  0.1353 -1.3804  2.2090
 5989TIP3   OH239457   3.643   3.281   5.241 -0.0426  0.1295  0.0776
 5989TIP3    H139458   3.639   3.376   5.250  1.7339  0.1335  1.5325
 5989TIP3    H239459   3.582   3.248   5.307 -1.4933  0.2151 -1.1654
 5990TIP3   OH239460   0.942   3.326   5.521  0.6829  0.0027  0.6836
 5990TIP3    H139461   0.951   3.347   5.428  1.0271 -0.5870  0.5740
 5990TIP3    H239462   0.962   3.407   5.567 -0.1411  0.4822  0.2312
 5991TIP3   OH239463   5.348   5.681  12.465  0.3147 -0.6526 -0.1665
 5991TIP3    H139464   5.357   5.741  12.390 -3.8270 -2.6348 -2.6547
 5991TIP3    H239465   5.408   5.609  12.447  0.9734 -0.0597 -0.3624
 5992TIP3   OH239466   2.747   0.597   5.890  0.6000  0.0615 -0.2562
 5992TIP3    H139467   2.700   0.541   5.951 -0.6631  0.0603 -1.1894
 5992TIP3    H239468   2.739   0.552   5.805  0.5246  1.0813 -0.8084
 5993TIP3   OH239469   2.794   6.338   3.815  0.1868 -0.2271  0.2410
 5993TIP3    H139470   2.813   6.244   3.820  0.2357 -0.3113 -1.2771
 5993TIP3    H239471   2.702   6.344   3.839  0.5931 -0.4432  2.0359
 5994TIP3   OH239472   1.420   5.678  15.907 -0.1165  0.9243  0.2688
 5994TIP3    H139473   1.430   5.628  15.988 -0.8657  1.6346  0.8068
 5994TIP3    H239474   1.453   5.765  15.927 -0.8396  1.2753 -0.0047
 5995TIP3   OH239475   3.751   0.906   4.265 -0.6650 -0.2305  0.2607
 5995TIP3    H139476   3.767   0.870   4.178  3.9940  1.8213 -0.0451
 5995TIP3    H239477   3.691   0.979   4.250 -1.1666 -0.8600 -0.9467
 5996TIP3   OH239478   4.050   1.864   2.354  0.2490  0.3492 -0.0297
 5996TIP3    H139479   4.022   1.941   2.403 -0.0594 -0.3238  0.8955
 5996TIP3    H239480   4.002   1.791   2.395  1.2400 -0.4599 -0.2487
 5997TIP3   OH239481   2.224   2.341  15.148  0.3316  0.4061 -1.1813
 5997TIP3    H139482   2.164   2.283  15.101  0.8984  0.1769 -1.6347
 5997TIP3    H239483   2.310   2.320  15.112  0.5150  1.7114 -1.5432
 5998TIP3   OH239484   3.350   1.491  12.935 -0.1513  0.8972 -0.5316
 5998TIP3    H139485   3.265   1.471  12.974 -0.3946 -0.1606 -1.5801
 5998TIP3    H239486   3.389   1.555  12.995 -1.3013  0.7215  0.4335
 5999TIP3   OH239487   1.503   2.421   1.779 -0.0776  0.1081  0.0358
 5999TIP3    H139488   1.437   2.353   1.796  0.7974 -0.4255  1.4584
 5999TIP3    H239489   1.568   2.377   1.724 -0.1699  0.1962 -0.1444
 6000TIP3   OH239490   5.022   3.307   1.215  0.4130 -0.4854 -0.2601
 6000TIP3    H139491   4.932   3.320   1.243  0.2987 -0.1575 -0.7482
 6000TIP3    H239492   5.029   3.213   1.197  0.3206 -0.5957  0.2794
 6001TIP3   OH239493   4.332   0.658   1.368  0.5638  0.4463  0.0510
 6001TIP3    H139494   4.243   0.688   1.388  0.0513  0.7651 -2.4320
 6001TIP3    H239495   4.387   0.703   1.433 -1.1977 -1.6554  3.3121
 6002TIP3   OH239496   0.288   0.813  13.836 -0.4009  0.3713  0.1943
 6002TIP3    H139497   0.239   0.747  13.885  1.3624  0.2793  1.9791
 6002TIP3    H239498   0.231   0.889  13.832 -1.8298 -0.6952 -0.4665
 6003TIP3   OH239499   3.759   1.545   5.504  0.1244 -0.2085 -0.0394
 6003TIP3    H139500   3.665   1.541   5.522  0.0466  0.7735 -0.1483
 6003TIP3    H239501   3.781   1.638   5.514  1.1149 -0.4518  0.1399
 6004TIP3   OH239502   5.319   0.453  13.500 -0.0019 -0.1572  0.4017
 6004TIP3    H139503   5.414   0.467  13.498 -0.3068  2.1191  0.1966
 6004TIP3    H239504   5.290   0.474  13.411 -0.8504  0.3048  0.7810
 6005TIP3   OH239505   6.340   2.340   5.818  0.0576 -0.1777  0.0765
 6005TIP3    H139506   6.368   2.389   5.895  0.5589 -0.8877  0.3627
 6005TIP3    H239507   6.251   2.370   5.800  0.9609  2.1941 -0.8756
 6006TIP3   OH239508   2.278   0.131   2.244 -0.0099 -0.5750 -0.4209
 6006TIP3    H139509   2.324   0.059   2.286 -1.1255  0.0205  1.9498
 6006TIP3    H239510   2.324   0.210   2.274 -0.7988 -0.1322 -0.3503
 6007TIP3   OH239511   2.819   4.668  16.074 -0.3872 -0.1781 -0.1761
 6007TIP3    H139512   2.823   4.654  16.168  0.5830 -1.0328 -0.3330
 6007TIP3    H239513   2.802   4.762  16.064  0.0293  0.0134  0.8442
 6008TIP3   OH239514   1.687   5.469  16.063 -0.2519 -0.0009  0.0925
 6008TIP3    H139515   1.710   5.547  16.114 -2.1479 -0.0420  1.0754
 6008TIP3    H239516   1.592   5.462  16.071 -0.5167 -0.5301 -2.7592
 6009TIP3   OH239517   6.051   0.063   1.022 -0.4473 -0.2601 -0.2320
 6009TIP3    H139518   5.983   0.126   1.002  0.4876  0.5223 -1.0400
 6009TIP3    H239519   6.133   0.109   1.002  0.2537 -1.7538 -0.9578
 6010TIP3   OH239520   2.646   1.141  17.169  0.4821  0.0372 -0.0726
 6010TIP3    H139521   2.664   1.232  17.148  0.5215  0.2897  1.0131
 6010TIP3    H239522   2.579   1.115  17.106 -0.2117  1.0986  0.1981
 6011TIP3   OH239523   3.048   1.956   2.408  0.1044  0.6533 -0.6225
 6011TIP3    H139524   3.045   1.905   2.328 -1.0152  1.6306 -1.2331
 6011TIP3    H239525   3.092   2.037   2.384  0.7150  0.5305  0.0245
 6012TIP3   OH239526   2.271   5.372  10.955 -0.0886 -0.5930  0.2767
 6012TIP3    H139527   2.247   5.441  10.892  0.9101 -0.7286 -0.2858
 6012TIP3    H239528   2.264   5.291  10.905 -2.0826 -1.0261  1.1720
 6013TIP3   OH239529   0.991   0.785   4.719 -0.3072 -0.0297  0.5303
 6013TIP3    H139530   0.901   0.809   4.745  0.2816  1.1666  1.6209
 6013TIP3    H239531   1.027   0.742   4.797 -0.2661 -1.5438 -0.2923
 6014TIP3   OH239532   1.927   1.951  12.482 -0.0795 -0.2871  0.2320
 6014TIP3    H139533   1.938   1.937  12.576 -0.5682 -1.0131  0.1935
 6014TIP3    H239534   1.976   2.031  12.463  0.6141 -0.5223  0.9763
 6015TIP3   OH239535   3.891   2.617   0.225 -0.2040  0.0923  0.3950
 6015TIP3    H139536   3.981   2.628   0.192 -0.7380 -1.3226 -1.7646
 6015TIP3    H239537   3.863   2.705   0.247  1.2922  0.7330 -0.0795
 6016TIP3   OH239538   6.734   1.637  15.604  0.5584 -0.5811  0.2058
 6016TIP3    H139539   6.828   1.635  15.626  0.1155  0.0772  2.4482
 6016TIP3    H239540   6.719   1.727  15.575  0.6729 -0.7759 -0.4661
 6017TIP3   OH239541   1.030   4.158   3.871  0.5681  0.2666  0.3920
 6017TIP3    H139542   1.000   4.163   3.962  0.2063 -1.7363  0.4383
 6017TIP3    H239543   0.951   4.169   3.819  0.9530  2.6721  0.2368
 6018TIP3   OH239544   5.041   2.755   0.392 -0.1955 -0.0540 -0.0624
 6018TIP3    H139545   5.098   2.819   0.350 -0.3512 -0.3792 -0.7898
 6018TIP3    H239546   5.101   2.687   0.423 -0.0462  0.3617  0.5689
 6019TIP3   OH239547   1.489   0.697  12.190 -0.2799  0.6024 -0.6737
 6019TIP3    H139548   1.470   0.732  12.277  0.9392  0.7974 -0.4604
 6019TIP3    H239549   1.569   0.645  12.203  0.5582  1.5453 -1.8785
 6020TIP3   OH239550   3.641   2.930  16.328 -0.7598  0.4583 -0.2153
 6020TIP3    H139551   3.680   2.909  16.413 -0.9874  0.3534 -0.1384
 6020TIP3    H239552   3.614   2.846  16.292 -1.8497  0.6257  0.1770
 6021TIP3   OH239553   3.674   6.024  14.876 -0.6190  0.2719  0.1410
 6021TIP3    H139554   3.717   6.057  14.955  0.5004  0.5717 -0.5800
 6021TIP3    H239555   3.668   5.929  14.891  1.4624  0.0430 -0.2738
 6022TIP3   OH239556   3.860   3.919  11.513 -0.1799 -0.3238  0.2513
 6022TIP3    H139557   3.934   3.928  11.572 -1.6203  0.0946  2.1068
 6022TIP3    H239558   3.895   3.873  11.436  1.7804 -0.8681  1.4032
 6023TIP3   OH239559   4.660   4.212   3.525 -0.1975  0.7516  0.0342
 6023TIP3    H139560   4.638   4.288   3.471 -0.0983  0.0238 -1.0667
 6023TIP3    H239561   4.598   4.215   3.598 -0.9645  1.2414 -0.6237
 6024TIP3   OH239562   2.951   5.726  14.711 -0.1204 -0.1814  0.8696
 6024TIP3    H139563   2.946   5.646  14.658  1.7339 -0.2889  0.7989
 6024TIP3    H239564   2.995   5.790  14.654 -2.1314  1.1271  0.6966
 6025TIP3   OH239565   1.816   0.856   1.263  0.4552  0.1407 -0.1230
 6025TIP3    H139566   1.837   0.913   1.189  1.1138 -0.9761 -0.8226
 6025TIP3    H239567   1.846   0.769   1.236  0.0469 -0.4295  1.1698
 6026TIP3   OH239568   4.805   6.727  16.510  0.3375 -0.0403 -0.0262
 6026TIP3    H139569   4.757   6.789  16.456  1.0084 -0.8633 -1.6298
 6026TIP3    H239570   4.822   6.775  16.592 -1.2881  0.9950 -0.2510
 6027TIP3   OH239571   0.057   0.393   5.949 -0.0506 -0.0423  0.3152
 6027TIP3    H139572   0.041   0.381   6.042  1.5513  0.9081  0.7604
 6027TIP3    H239573   0.126   0.330   5.928 -0.5652 -0.4203 -0.3037
 6028TIP3   OH239574   1.259   3.107   4.685  0.2978 -0.0015 -0.2730
 6028TIP3    H139575   1.212   3.126   4.603 -0.7852 -1.4207 -0.0259
 6028TIP3    H239576   1.341   3.066   4.656  0.1157 -0.0992 -0.6699
 6029TIP3   OH239577   3.384   4.907  15.403 -0.2771  0.4625 -0.3173
 6029TIP3    H139578   3.468   4.929  15.444  0.8374  0.7958 -2.5817
 6029TIP3    H239579   3.371   4.814  15.422 -0.2523  0.7935  1.4357
 6030TIP3   OH239580   3.198   2.165  15.799  0.1100 -0.0052  0.4960
 6030TIP3    H139581   3.274   2.110  15.781 -1.2285 -2.0218  0.6840
 6030TIP3    H239582   3.194   2.225  15.724  1.3299 -0.4614  0.0259
 6031TIP3   OH239583   1.352   1.797  10.526 -0.3677 -0.1829 -0.3548
 6031TIP3    H139584   1.343   1.722  10.586 -0.7034  0.2939  0.2103
 6031TIP3    H239585   1.421   1.850  10.565  1.1093 -1.0427 -1.6937
 6032TIP3   OH239586   5.458   6.031  15.593  0.3935 -0.2404  0.0575
 6032TIP3    H139587   5.380   6.053  15.541 -0.1447  1.2179  1.4111
 6032TIP3    H239588   5.518   5.992  15.530 -1.6778 -2.0913 -0.9221
 6033TIP3   OH239589   2.325   6.573  14.043 -0.6830 -0.1299  0.7106
 6033TIP3    H139590   2.386   6.570  13.969 -0.0360  2.3105  1.0324
 6033TIP3    H239591   2.281   6.488  14.042 -0.9067 -0.1149 -2.6633
 6034TIP3   OH239592   4.991   5.125  14.364 -0.9127  0.6393  0.2788
 6034TIP3    H139593   4.897   5.139  14.352 -0.7562 -0.0748 -2.5283
 6034TIP3    H239594   5.003   5.031  14.353 -0.0367  0.4268  2.5595
 6035TIP3   OH239595   0.237   1.761  14.407  0.3882  0.1369  0.2278
 6035TIP3    H139596   0.251   1.847  14.368  0.1785 -0.5570 -1.4434
 6035TIP3    H239597   0.289   1.701  14.354  1.6281 -0.6265  2.1884
 6036TIP3   OH239598   6.051   5.813   1.723 -0.3301  0.3657  0.2423
 6036TIP3    H139599   6.014   5.728   1.748  0.6683 -0.1043  0.1592
 6036TIP3    H239600   6.121   5.791   1.662  0.2650  1.2223  0.6154
 6037TIP3   OH239601   0.300   1.160   0.051 -0.1589  0.4931 -0.3716
 6037TIP3    H139602   0.350   1.205   0.119 -0.7463 -1.0058  1.1132
 6037TIP3    H239603   0.242   1.101   0.099 -1.0481 -0.1499 -2.1697
 6038TIP3   OH239604   0.308   4.707  14.734  0.0403 -0.1025  0.6801
 6038TIP3    H139605   0.255   4.637  14.772  0.2980  0.7411  2.7767
 6038TIP3    H239606   0.244   4.768  14.698 -0.3030 -0.2788  0.9788
 6039TIP3   OH239607   3.552   5.967   1.117  0.2823  0.4424  0.1277
 6039TIP3    H139608   3.564   6.037   1.181  1.9728 -0.2066  0.5829
 6039TIP3    H239609   3.555   5.886   1.168  1.1134 -0.0664 -0.6811
 6040TIP3   OH239610   1.569   3.099   3.320  0.6256 -0.2233  0.1918
 6040TIP3    H139611   1.629   3.029   3.346 -0.1338 -0.7340  0.6171
 6040TIP3    H239612   1.521   3.120   3.400  0.3656  0.3043 -0.1017
 6041TIP3   OH239613   6.677   1.635   5.157 -0.0110 -0.3984 -0.2917
 6041TIP3    H139614   6.634   1.662   5.238  0.7225 -0.6754  0.2024
 6041TIP3    H239615   6.607   1.598   5.104 -1.1851  2.8984 -1.2323
 6042TIP3   OH239616   1.834   3.099  14.069 -0.3339  0.4436  0.2127
 6042TIP3    H139617   1.899   3.167  14.049 -1.0321  1.1107  0.1794
 6042TIP3    H239618   1.771   3.104  13.997 -0.2764 -0.3998  0.0945
 6043TIP3   OH239619   3.264   2.255  13.879  0.3624 -0.0080 -0.2013
 6043TIP3    H139620   3.272   2.274  13.786 -0.4952 -0.8761 -0.4665
 6043TIP3    H239621   3.290   2.164  13.887 -0.2562 -0.1438  0.2988
 6044TIP3   OH239622   1.188   4.517   4.031 -0.2441  0.6198 -0.4897
 6044TIP3    H139623   1.237   4.569   4.094 -2.8719  0.7754  1.6076
 6044TIP3    H239624   1.136   4.581   3.982 -0.9634  0.2389 -0.2391
 6045TIP3   OH239625   3.392   5.425   3.611  0.3597  0.0302  0.3307
 6045TIP3    H139626   3.370   5.388   3.525 -0.5665 -1.1112  1.0191
 6045TIP3    H239627   3.474   5.471   3.598  0.9496 -1.3002 -0.8701
 6046TIP3   OH239628   0.735   6.745   4.460 -0.8196  0.7973  0.6236
 6046TIP3    H139629   0.720   6.769   4.552  0.8850  1.6119  0.7326
 6046TIP3    H239630   0.745   6.650   4.461 -2.0992  0.6449  1.0599
 6047TIP3   OH239631   6.341   5.533  13.866  0.1041  0.1287 -0.1487
 6047TIP3    H139632   6.389   5.567  13.941 -1.6740 -0.4993  1.3403
 6047TIP3    H239633   6.395   5.460  13.834  0.2608 -0.4444  1.3479
 6048TIP3   OH239634   5.387   0.460  11.724  0.3885  0.2870  0.1973
 6048TIP3    H139635   5.357   0.388  11.780  0.7727  1.7145  2.3675
 6048TIP3    H239636   5.314   0.521  11.723  1.0465  1.0924  0.6286
 6049TIP3   OH239637   1.657   2.353   4.667 -0.5295 -0.0060  0.3291
 6049TIP3    H139638   1.722   2.317   4.606  0.1088  0.3717  0.7721
 6049TIP3    H239639   1.685   2.444   4.679 -1.9318  0.5771 -0.5392
 6050TIP3   OH239640   0.103   2.482   4.373 -0.1440  0.0779  0.1408
 6050TIP3    H139641   0.144   2.512   4.454 -0.1777 -0.0254  0.1964
 6050TIP3    H239642   0.158   2.409   4.344 -1.1175 -1.0368  1.0043
 6051TIP3   OH239643   6.153   6.062   5.689  0.5762 -0.0566 -0.4194
 6051TIP3    H139644   6.194   5.982   5.658  0.6634  0.1882 -0.9438
 6051TIP3    H239645   6.206   6.089   5.764  0.0591 -0.9245  0.2761
 6052TIP3   OH239646   2.832   0.020   6.356 -0.1563 -0.1299 -0.0106
 6052TIP3    H139647   2.807   0.113   6.357  4.1507  1.2751 -0.7990
 6052TIP3    H239648   2.816  -0.008   6.266 -0.9925 -0.0546  0.1018
 6053TIP3   OH239649   5.222   3.704  14.285  0.0043  0.1426 -0.2134
 6053TIP3    H139650   5.234   3.693  14.191 -0.1031  1.0090 -0.3339
 6053TIP3    H239651   5.274   3.781  14.308  0.8714 -0.6765  0.6319
 6054TIP3   OH239652   6.000   0.652   2.855  0.5537 -0.2125  0.2879
 6054TIP3    H139653   5.929   0.589   2.841 -0.8663  1.6566 -1.5383
 6054TIP3    H239654   5.973   0.703   2.932 -0.6278  1.0831 -0.9264
 6055TIP3   OH239655   3.420   3.086   2.027 -0.3202  0.0136 -0.9298
 6055TIP3    H139656   3.428   3.113   1.936 -0.4702 -0.3481 -1.0504
 6055TIP3    H239657   3.478   3.146   2.075  0.4245 -0.3501 -1.3636
 6056TIP3   OH239658   1.681   1.071  14.544 -0.1883  0.2621  0.0461
 6056TIP3    H139659   1.758   1.015  14.531 -1.0886 -0.3618 -3.9128
 6056TIP3    H239660   1.711   1.159  14.517 -0.9107 -0.1237 -2.2464
 6057TIP3   OH239661   3.893   3.727   1.359  0.0159 -0.1000 -0.4587
 6057TIP3    H139662   3.923   3.671   1.287 -2.3407 -1.1894 -0.7040
 6057TIP3    H239663   3.919   3.815   1.333  2.7309 -0.8913 -0.6769
 6058TIP3   OH239664   2.115   2.898  13.805 -0.2033 -0.0711 -0.2397
 6058TIP3    H139665   2.082   2.860  13.887  2.0785 -0.1619  0.7066
 6058TIP3    H239666   2.194   2.848  13.785 -0.0570  0.7405 -1.8810
 6059TIP3   OH239667   3.617   1.899   2.314 -0.1236 -0.3673  0.0591
 6059TIP3    H139668   3.687   1.894   2.249 -0.1913  0.0215 -0.0496
 6059TIP3    H239669   3.575   1.813   2.312 -0.7378 -0.0556 -1.0981
 6060TIP3   OH239670   4.245   4.567   1.778  0.5913 -0.5536  0.0273
 6060TIP3    H139671   4.336   4.598   1.783  1.1653 -2.0516 -0.4378
 6060TIP3    H239672   4.236   4.536   1.688  0.0152 -1.5340  0.4127
 6061TIP3   OH239673   3.721   1.639  16.682 -0.2892 -0.5543  0.3283
 6061TIP3    H139674   3.684   1.613  16.598  1.1925  0.2349 -0.6143
 6061TIP3    H239675   3.775   1.716  16.662 -0.0715 -0.2153  2.0386
 6062TIP3   OH239676   2.033   4.609  12.556  0.6118 -0.1721 -0.4767
 6062TIP3    H139677   2.019   4.542  12.623  1.0602 -0.0861 -0.2949
 6062TIP3    H239678   1.954   4.606  12.502 -0.1274  0.3190  0.5391
 6063TIP3   OH239679   4.030   1.634   2.201  0.4449 -0.0200  0.6378
 6063TIP3    H139680   4.084   1.713   2.204 -3.4214  3.0400 -0.8444
 6063TIP3    H239681   3.979   1.637   2.283 -1.0469  0.2013 -0.2562
 6064TIP3   OH239682   3.221   2.603  13.017 -0.2492  0.0152  0.0889
 6064TIP3    H139683   3.211   2.596  12.922  3.6116  0.5217 -0.5319
 6064TIP3    H239684   3.218   2.698  13.034 -1.8621 -0.1184  0.6593
 6065TIP3   OH239685   1.764   1.699  16.920 -0.0947  0.0531 -0.3056
 6065TIP3    H139686   1.785   1.637  16.850  0.0301  0.3764 -0.5524
 6065TIP3    H239687   1.672   1.722  16.905  0.1652  0.7490 -0.8480
 6066TIP3   OH239688   2.337   4.783  14.130 -0.0762 -0.1961  0.3193
 6066TIP3    H139689   2.317   4.838  14.054 -0.5546  0.0927  0.6529
 6066TIP3    H239690   2.286   4.821  14.201  0.0586 -0.7143  0.6930
 6067TIP3   OH239691   0.141   5.503  13.551  0.2057  0.1058  0.4526
 6067TIP3    H139692   0.161   5.418  13.512 -0.2833  0.2977 -0.2342
 6067TIP3    H239693   0.227   5.537  13.577  0.6728  0.3371 -1.2434
 6068TIP3   OH239694   4.024   2.741   2.797 -0.1607 -0.0931  0.3702
 6068TIP3    H139695   4.105   2.777   2.834 -2.3185  2.2905  3.2173
 6068TIP3    H239696   4.035   2.752   2.702  2.0342  2.1369  0.7683
 6069TIP3   OH239697   1.922   1.505  12.041  0.1178 -0.2952  0.5279
 6069TIP3    H139698   1.889   1.431  11.990 -1.2179 -0.7936  2.0213
 6069TIP3    H239699   1.930   1.471  12.130  0.7819  0.9927  0.9827
 6070TIP3   OH239700   1.328   6.133   1.645 -0.2502 -0.0066 -0.5799
 6070TIP3    H139701   1.412   6.092   1.667  0.7688  1.6642 -1.1910
 6070TIP3    H239702   1.297   6.172   1.727 -1.4270 -2.1950  0.1084
 6071TIP3   OH239703   1.470   3.627  15.742  0.1695  0.0746 -0.1168
 6071TIP3    H139704   1.393   3.658  15.789 -0.7354  0.0253 -1.4898
 6071TIP3    H239705   1.460   3.532  15.740  1.3077 -0.1070  1.3749
 6072TIP3   OH239706   6.277   5.420   0.539 -0.2715  0.7713  0.6383
 6072TIP3    H139707   6.183   5.410   0.553 -0.5696 -1.2262 -2.0286
 6072TIP3    H239708   6.293   5.380   0.454  3.2219 -0.2708  1.6242
 6073TIP3   OH239709   2.183   3.946  14.706  0.1844 -0.2229 -0.2400
 6073TIP3    H139710   2.132   3.943  14.625 -1.5860  1.2330  0.7427
 6073TIP3    H239711   2.184   3.856  14.737 -0.6882 -0.4907 -0.9468
 6074TIP3   OH239712   6.657   5.924  14.406  0.0252 -0.1547  0.1677
 6074TIP3    H139713   6.628   5.924  14.315  0.2704 -0.4951  0.0877
 6074TIP3    H239714   6.670   6.017  14.427  0.0265 -0.0780 -0.1623
 6075TIP3   OH239715   3.040   5.765  16.294 -0.5811 -0.0726 -0.5453
 6075TIP3    H139716   2.945   5.771  16.296 -0.6360 -0.9898 -0.1836
 6075TIP3    H239717   3.058   5.680  16.255  0.1117  0.4773 -1.4866
 6076TIP3   OH239718   3.451   5.870   3.336  0.3518 -0.0846 -0.5601
 6076TIP3    H139719   3.493   5.848   3.253 -1.6121 -1.1450 -1.3466
 6076TIP3    H239720   3.360   5.891   3.313  0.7906  4.4638  0.7328
 6077TIP3   OH239721   0.759   5.989   2.258  0.2722 -0.4687 -0.6410
 6077TIP3    H139722   0.785   6.050   2.327  0.6059  0.3377 -1.4554
 6077TIP3    H239723   0.664   5.999   2.252  0.4312  0.8315 -1.5160
 6078TIP3   OH239724   5.209   4.389  12.902  0.0169  0.1805 -0.2273
 6078TIP3    H139725   5.304   4.394  12.915  0.2069 -1.4140 -0.7881
 6078TIP3    H239726   5.175   4.358  12.986 -0.0664  1.1441  0.1038
 6079TIP3   OH239727   4.771   3.223   3.127  0.9629  0.1996  0.2859
 6079TIP3    H139728   4.802   3.313   3.114 -0.0335  0.6838  1.0753
 6079TIP3    H239729   4.745   3.220   3.220 -0.0655 -0.5568 -0.0081
 6080TIP3   OH239730   1.164   1.642  12.492  0.3872  0.3505 -0.0148
 6080TIP3    H139731   1.151   1.637  12.587 -0.1442 -2.7175 -0.1516
 6080TIP3    H239732   1.250   1.682  12.482  0.5589  0.5305  1.7469
 6081TIP3   OH239733   4.738   0.035  11.954  0.1774  0.0634  0.2054
 6081TIP3    H139734   4.826   0.055  11.923  0.0111  0.4357 -0.0367
 6081TIP3    H239735   4.717   0.106  12.014 -0.4384  0.6602 -0.6945
 6082TIP3   OH239736   4.078   2.888   1.436 -0.2891  0.5117 -0.1389
 6082TIP3    H139737   4.096   2.795   1.451 -0.5099  0.6313  0.9094
 6082TIP3    H239738   4.071   2.926   1.523  1.7523  1.9154 -0.5257
 6083TIP3   OH239739   3.433   6.758   4.311  0.6378  0.1405 -0.2699
 6083TIP3    H139740   3.386   6.761   4.394  0.4414  3.1585 -0.3622
 6083TIP3    H239741   3.367   6.731   4.247  0.2931 -0.3283  0.2728
 6084TIP3   OH239742   2.157   1.188   3.172  0.0838 -0.0170  0.4061
 6084TIP3    H139743   2.176   1.125   3.102 -1.7447 -0.1394 -0.0424
 6084TIP3    H239744   2.089   1.146   3.224 -1.6347  1.7786 -0.2552
 6085TIP3   OH239745   1.446   4.863  12.265  0.0360  0.0997 -1.0004
 6085TIP3    H139746   1.479   4.809  12.193  1.6580 -1.1783  0.6203
 6085TIP3    H239747   1.412   4.800  12.329  0.0356  1.1097  0.0283
 6086TIP3   OH239748   3.439   3.327   4.986 -0.5992  0.4134 -0.1324
 6086TIP3    H139749   3.501   3.318   4.913  2.9338 -1.0947  2.7223
 6086TIP3    H239750   3.393   3.244   4.990  0.4459 -0.1720  0.2709
 6087TIP3   OH239751   4.998   1.490  12.283  0.1070  0.0279  1.1818
 6087TIP3    H139752   4.952   1.573  12.289 -0.2379  0.1456 -1.5959
 6087TIP3    H239753   4.929   1.424  12.281 -0.1038  0.1705 -2.4617
 6088TIP3   OH239754   2.526   5.764  15.702  0.1278 -0.0950 -0.4216
 6088TIP3    H139755   2.466   5.697  15.736  1.4930 -1.4316 -0.5790
 6088TIP3    H239756   2.564   5.726  15.623 -0.8508  1.8526 -1.9249
 6089TIP3   OH239757   2.487   1.812   3.461 -0.1196 -0.2471 -0.2893
 6089TIP3    H139758   2.451   1.726   3.481 -0.7941  0.2299  0.5550
 6089TIP3    H239759   2.467   1.866   3.537  0.0111  0.7513 -0.9407
 6090TIP3   OH239760   2.489   1.730   4.418 -0.4546  0.0986  0.1641
 6090TIP3    H139761   2.503   1.799   4.484  1.1262 -1.4962  1.6010
 6090TIP3    H239762   2.465   1.653   4.469  1.1389 -1.2797 -1.0855
 6091TIP3   OH239763   0.373   3.634  12.721 -0.0362  0.0296 -0.5480
 6091TIP3    H139764   0.354   3.592  12.637  1.1859  1.9100 -1.8482
 6091TIP3    H239765   0.318   3.713  12.721  0.4128  0.3466  0.1445
 6092TIP3   OH239766   0.395   1.742   1.998  0.0160 -0.2209  0.2055
 6092TIP3    H139767   0.415   1.655   2.032 -0.7398 -0.4580  0.0659
 6092TIP3    H239768   0.473   1.794   2.017  0.2349 -0.7688  0.8393
 6093TIP3   OH239769   3.212   6.761   1.021 -0.3315 -0.0994 -0.0870
 6093TIP3    H139770   3.244   6.803   0.942 -0.8017 -0.6567 -0.5881
 6093TIP3    H239771   3.135   6.812   1.046 -1.7226 -1.4032 -1.4694
 6094TIP3   OH239772   6.575   6.659  15.935  0.3179 -0.0778  0.1781
 6094TIP3    H139773   6.558   6.567  15.918  1.4275 -0.0974 -0.9697
 6094TIP3    H239774   6.656   6.678  15.887 -0.1175  1.5992  0.0403
 6095TIP3   OH239775   4.813   0.028   2.919 -1.1163  0.1397  0.0748
 6095TIP3    H139776   4.779   0.072   2.840  1.4855  2.1167 -0.0457
 6095TIP3    H239777   4.814   0.096   2.986  1.0386 -0.2349  0.4845
 6096TIP3   OH239778   4.501   4.089  15.028  0.2390 -0.6045 -0.9409
 6096TIP3    H139779   4.456   4.125  15.105 -2.8355 -1.8764 -1.9954
 6096TIP3    H239780   4.592   4.083  15.056 -0.2145  1.6898  1.5524
 6097TIP3   OH239781   6.502   3.229   5.505 -0.1769 -0.2804 -0.2946
 6097TIP3    H139782   6.463   3.186   5.429 -1.2028  0.9691 -0.5257
 6097TIP3    H239783   6.464   3.184   5.581 -0.6860 -0.2528 -0.5294
 6098TIP3   OH239784   6.695   1.932   1.392 -0.0467  0.0947 -0.1592
 6098TIP3    H139785   6.655   1.858   1.438  2.8554 -0.6568  1.4358
 6098TIP3    H239786   6.713   1.996   1.461 -0.0093  1.0836 -1.0684
 6099TIP3   OH239787   6.156   1.562  14.014  0.1605 -0.0857 -0.2942
 6099TIP3    H139788   6.221   1.492  14.021  0.2494 -0.2685 -2.2537
 6099TIP3    H239789   6.072   1.519  14.025  0.2372 -0.4225 -1.0055
 6100TIP3   OH239790   2.754   2.928  11.520 -0.2302 -0.1492  0.0087
 6100TIP3    H139791   2.804   2.921  11.438  0.4353 -0.4989  0.4325
 6100TIP3    H239792   2.768   3.019  11.548  1.1022 -0.5264  0.6797
 6101TIP3   OH239793   3.296   2.741   3.436 -0.6336  0.2316  0.4639
 6101TIP3    H139794   3.253   2.724   3.353 -0.9358  1.4380  0.3584
 6101TIP3    H239795   3.326   2.832   3.430 -0.5495  0.2994  1.6197
 6102TIP3   OH239796   3.424   6.101   4.210  0.1116 -0.1949  0.0968
 6102TIP3    H139797   3.416   6.188   4.173  1.1423  0.5827  1.5614
 6102TIP3    H239798   3.337   6.081   4.245 -0.3123 -0.0717 -0.8637
 6103TIP3   OH239799   4.189   6.725   0.467  0.5899 -0.6181  0.0195
 6103TIP3    H139800   4.246   6.800   0.452 -0.7251 -0.0570 -3.1271
 6103TIP3    H239801   4.134   6.750   0.541 -0.0307  1.7460 -1.1455
 6104TIP3   OH239802   1.094   3.694  17.075 -0.1809  0.0570 -0.2537
 6104TIP3    H139803   1.159   3.765  17.072  0.3643 -0.3864  0.8042
 6104TIP3    H239804   1.141   3.619  17.110 -1.3773 -0.1499  0.9862
 6105TIP3   OH239805   3.114   3.488  12.653  0.4525 -0.2519  0.6463
 6105TIP3    H139806   3.116   3.403  12.610  0.5118 -0.8262  1.7629
 6105TIP3    H239807   3.085   3.549  12.584  0.5978 -1.1256 -0.2120
 6106TIP3   OH239808   0.337   3.190   5.521 -0.0181 -0.0526 -0.1000
 6106TIP3    H139809   0.315   3.198   5.428 -0.6499  0.5051  0.0917
 6106TIP3    H239810   0.264   3.142   5.559  0.6518 -1.0603 -0.0356
 6107TIP3   OH239811   0.587   3.279   2.022 -0.0018 -0.5019  0.3447
 6107TIP3    H139812   0.511   3.288   2.080  0.5725 -0.7453  1.1542
 6107TIP3    H239813   0.555   3.226   1.949 -0.8139  0.0414  0.2957
 6108TIP3   OH239814   6.339   2.065   5.536 -0.1519 -0.1478 -1.0290
 6108TIP3    H139815   6.329   2.045   5.443 -3.4623  0.6081 -0.9611
 6108TIP3    H239816   6.288   2.145   5.549 -0.3835 -0.6267  1.5731
 6109TIP3   OH239817   0.367   0.811  15.562  0.0224 -0.0380 -0.3112
 6109TIP3    H139818   0.356   0.753  15.486 -1.6843 -0.6837  0.3638
 6109TIP3    H239819   0.404   0.754  15.630 -3.9709 -1.2429  1.1717
 6110TIP3   OH239820   0.432   2.540   2.756  0.8072  0.1106  0.6000
 6110TIP3    H139821   0.347   2.572   2.785  0.5017  0.5900 -0.7915
 6110TIP3    H239822   0.428   2.445   2.768  0.2972  0.1838  1.0532
 6111TIP3   OH239823   3.846   4.455   0.593  0.0696  0.1068  0.3204
 6111TIP3    H139824   3.785   4.426   0.661  0.5173 -0.6143  0.4296
 6111TIP3    H239825   3.795   4.514   0.538 -0.8834 -0.8874  0.1043
 6112TIP3   OH239826   4.659   3.131  11.396 -0.0709  0.0999  0.7317
 6112TIP3    H139827   4.582   3.133  11.340  0.5527  0.0546 -0.1543
 6112TIP3    H239828   4.659   3.043  11.434  0.2310 -0.3405 -0.2663
 6113TIP3   OH239829   5.751   2.411  14.430  0.1185 -0.5906  0.0578
 6113TIP3    H139830   5.656   2.411  14.417  0.2177 -0.7114 -0.7463
 6113TIP3    H239831   5.770   2.322  14.461  0.0058 -0.6809 -0.1236
 6114TIP3   OH239832   2.609   1.787  12.567 -0.3675  0.0576 -0.0117
 6114TIP3    H139833   2.572   1.838  12.495 -2.0479 -0.5785  0.3452
 6114TIP3    H239834   2.582   1.697  12.548 -2.0190  0.0430  2.0653
 6115TIP3   OH239835   3.335   4.000   3.670 -0.6494  0.4676  0.3434
 6115TIP3    H139836   3.250   4.025   3.635 -0.8144  2.1938  1.8705
 6115TIP3    H239837   3.390   3.987   3.593 -2.1575 -0.2542 -0.6504
 6116TIP3   OH239838   5.175   1.629   0.927  0.3172  0.4014  0.2080
 6116TIP3    H139839   5.219   1.651   0.845  0.8231  1.3744  0.7175
 6116TIP3    H239840   5.082   1.643   0.910  0.3426 -0.1586 -0.4209
 6117TIP3   OH239841   0.298   6.504   5.866 -0.5896  0.1033  0.1388
 6117TIP3    H139842   0.261   6.505   5.954 -1.0614 -2.1209  0.0283
 6117TIP3    H239843   0.391   6.482   5.879 -0.4332  0.7366  0.1233
 6118TIP3   OH239844   2.724   6.639   3.544 -0.0184 -0.5732 -0.4125
 6118TIP3    H139845   2.703   6.729   3.567  0.7824 -0.1958 -1.1058
 6118TIP3    H239846   2.805   6.620   3.591  1.1819 -0.0656 -2.1872
 6119TIP3   OH239847   2.356   1.646   0.246  0.1842 -0.3131 -0.4918
 6119TIP3    H139848   2.422   1.710   0.218 -2.4670  1.4434 -3.4119
 6119TIP3    H239849   2.331   1.675   0.334  0.2371  1.7080 -1.0974
 6120TIP3   OH239850   4.921   2.887  12.842 -0.1517 -0.7096 -0.1298
 6120TIP3    H139851   4.869   2.963  12.816 -1.6929 -1.7152 -0.1866
 6120TIP3    H239852   5.007   2.901  12.802 -0.0108  1.5225  0.8057
 6121TIP3   OH239853   4.620   0.455  10.907 -0.1488  0.0940 -0.5167
 6121TIP3    H139854   4.534   0.483  10.878 -1.8024  2.3815  5.1231
 6121TIP3    H239855   4.616   0.360  10.909 -2.2059  0.1284 -1.2098
 6122TIP3   OH239856   2.187   1.339   5.948 -0.2024 -0.0191 -0.2591
 6122TIP3    H139857   2.106   1.288   5.956 -0.0645 -0.3732 -1.0840
 6122TIP3    H239858   2.254   1.274   5.927 -0.0066  0.4814 -1.2282
 6123TIP3   OH239859   6.620   1.602   0.820  0.0601 -0.5565 -0.2407
 6123TIP3    H139860   6.699   1.629   0.773  1.0412 -1.7749  0.6565
 6123TIP3    H239861   6.638   1.513   0.848 -0.5782  0.0238  2.2343
 6124TIP3   OH239862   5.232   0.823  14.267  0.1248 -0.6793  0.4518
 6124TIP3    H139863   5.306   0.768  14.294  2.0038  0.4981 -1.8685
 6124TIP3    H239864   5.246   0.905  14.314  0.2291 -0.5040  0.1178
 6125TIP3   OH239865   2.539   3.285   6.041  0.0671  0.5096 -0.3851
 6125TIP3    H139866   2.489   3.217   5.995  1.9020 -1.1242 -0.0984
 6125TIP3    H239867   2.621   3.293   5.992  1.2115  0.1999  1.3767
 6126TIP3   OH239868   6.348   3.394  14.557  0.3250 -0.3118  0.2482
 6126TIP3    H139869   6.337   3.300  14.544 -0.3227 -0.0907 -0.8743
 6126TIP3    H239870   6.372   3.427  14.471  1.0490  0.4914  0.7463
 6127TIP3   OH239871   3.557   6.580  15.900  0.0781  0.4888  0.1538
 6127TIP3    H139872   3.591   6.656  15.948  1.2194 -0.2465  0.5548
 6127TIP3    H239873   3.633   6.524  15.887 -0.6914 -0.4563 -0.3998
 6128TIP3   OH239874   2.400   2.116  15.717  0.6014 -1.1628 -0.2054
 6128TIP3    H139875   2.384   2.152  15.804  1.7610 -0.4621 -0.2632
 6128TIP3    H239876   2.438   2.030  15.734  1.4077 -0.7750  0.0074
 6129TIP3   OH239877   4.378   2.307   0.861  0.3042 -0.4239 -0.3405
 6129TIP3    H139878   4.300   2.283   0.911 -0.5088  0.1169 -1.3026
 6129TIP3    H239879   4.351   2.299   0.770  1.1485  0.4881 -0.6867
 6130TIP3   OH239880   2.420   3.735  12.143  0.0472  0.1725 -0.9947
 6130TIP3    H139881   2.446   3.668  12.079 -1.4353 -0.3196 -1.1360
 6130TIP3    H239882   2.479   3.722  12.217  1.0948  0.0496 -1.8221
 6131TIP3   OH239883   1.392   1.303  16.237 -0.6041 -0.3266  0.4651
 6131TIP3    H139884   1.427   1.392  16.231 -0.6246 -0.3741 -0.4632
 6131TIP3    H239885   1.449   1.250  16.182 -0.3251 -0.9829  1.3655
 6132TIP3   OH239886   1.187   1.752   1.627 -0.3848 -0.2255 -0.2800
 6132TIP3    H139887   1.119   1.703   1.581 -0.8189  0.7795 -0.7502
 6132TIP3    H239888   1.182   1.722   1.718 -1.5535 -0.0740 -0.2830
 6133TIP3   OH239889   2.805   3.269  16.175  0.0610 -0.4667  0.0484
 6133TIP3    H139890   2.824   3.320  16.096 -0.3710 -0.4636 -0.0565
 6133TIP3    H239891   2.814   3.333  16.246  0.2317 -0.4169 -0.0155
 6134TIP3   OH239892   1.089   0.577   2.435 -0.3755  0.5633 -0.1399
 6134TIP3    H139893   1.024   0.647   2.439  1.0000  1.8517  0.6930
 6134TIP3    H239894   1.170   0.622   2.412  0.3568 -0.9123 -0.5267
 6135TIP3   OH239895   2.378   1.132   4.358  0.3933 -0.0119 -0.3812
 6135TIP3    H139896   2.407   1.056   4.308 -0.8971 -0.4945 -0.4283
 6135TIP3    H239897   2.458   1.165   4.399  0.8953 -1.8519  0.2597
 6136TIP3   OH239898   6.066   5.462   6.289  0.3580 -0.5248 -0.0404
 6136TIP3    H139899   5.992   5.402   6.293 -0.1452  0.0517 -0.5306
 6136TIP3    H239900   6.059   5.514   6.369 -0.1494 -0.0387 -0.3931
 6137TIP3   OH239901   6.526   6.226   5.615 -0.4373 -0.0260  0.0821
 6137TIP3    H139902   6.524   6.253   5.523 -1.1217  0.5909  0.2681
 6137TIP3    H239903   6.476   6.294   5.661  1.6834  0.8703  1.2128
 6138TIP3   OH239904   0.336   3.534   3.481  0.0135  0.8135 -0.1707
 6138TIP3    H139905   0.424   3.495   3.471  0.2680  1.1182  0.8521
 6138TIP3    H239906   0.336   3.607   3.419  1.0071  1.6897  0.8113
 6139TIP3   OH239907   6.129   5.174   5.962  0.3623 -0.5017 -1.0218
 6139TIP3    H139908   6.065   5.190   6.031  0.4576 -0.6087 -0.9065
 6139TIP3    H239909   6.083   5.120   5.898 -0.1154  0.6285 -1.6549
 6140TIP3   OH239910   2.002   2.224  12.583 -0.2139  0.3480 -0.2266
 6140TIP3    H139911   2.015   2.189  12.672 -0.8103  0.0553 -0.2520
 6140TIP3    H239912   2.071   2.290  12.574 -0.3994  0.6731  0.6071
 6141TIP3   OH239913   2.412   1.722  15.161 -0.1137  0.3897  0.6723
 6141TIP3    H139914   2.415   1.745  15.068  2.9868  2.2084  1.0911
 6141TIP3    H239915   2.488   1.666  15.175 -1.1506 -0.7763  1.9647
 6142TIP3   OH239916   1.973   5.559  15.623  0.1213 -0.2042  0.3406
 6142TIP3    H139917   1.923   5.548  15.704 -1.2451  0.7052 -0.3606
 6142TIP3    H239918   1.948   5.484  15.569  0.6341 -0.5203  0.5232
 6143TIP3   OH239919   1.352   6.277   4.413 -0.3263 -0.2082  0.1070
 6143TIP3    H139920   1.362   6.264   4.319 -0.6625 -0.4317  0.0996
 6143TIP3    H239921   1.353   6.188   4.450 -3.0359 -0.3587  0.0166
 6144TIP3   OH239922   1.437   3.106   3.600  0.1486  0.1001 -0.5617
 6144TIP3    H139923   1.451   3.012   3.601 -0.0175  0.0097  2.2867
 6144TIP3    H239924   1.511   3.141   3.651  0.0720  1.5034 -1.3615
 6145TIP3   OH239925   5.069   1.271  15.674 -0.0313  0.4773 -0.0915
 6145TIP3    H139926   5.103   1.190  15.636 -1.4414  1.1689 -3.1578
 6145TIP3    H239927   5.142   1.333  15.667  0.0724  0.2940 -0.7200
 6146TIP3   OH239928   3.372   6.499  14.996  0.4708 -0.6382  0.6184
 6146TIP3    H139929   3.398   6.505  15.088 -1.2217 -0.4734  1.1212
 6146TIP3    H239930   3.410   6.417  14.965 -0.9125 -1.9380  2.1800
 6147TIP3   OH239931   4.410   4.610  11.528 -0.2217  0.6942 -0.1175
 6147TIP3    H139932   4.467   4.648  11.462  1.5553  0.3759  1.1452
 6147TIP3    H239933   4.412   4.672  11.601 -3.1886  1.6960 -0.7567
 6148TIP3   OH239934   6.301   0.445  11.235  0.4921  0.8087  0.3069
 6148TIP3    H139935   6.323   0.464  11.143 -1.4189 -0.8120 -0.5526
 6148TIP3    H239936   6.208   0.423  11.233  0.4137  0.7261  2.6658
 6149TIP3   OH239937   1.834   2.951   5.924  0.4488 -0.0532  0.0458
 6149TIP3    H139938   1.802   2.939   6.013  0.0942  0.4728 -0.0027
 6149TIP3    H239939   1.807   2.872   5.878  0.7006 -0.3592  0.4218
 6150TIP3   OH239940   3.895   6.719  16.319 -0.0985  0.2458 -0.1462
 6150TIP3    H139941   3.941   6.802  16.313  3.7020 -1.6584 -0.9917
 6150TIP3    H239942   3.897   6.697  16.413  1.3575 -0.0134 -0.2038
 6151TIP3   OH239943   3.924   4.814   1.516 -0.7024 -0.4332  0.5046
 6151TIP3    H139944   3.970   4.792   1.435  1.4038  2.8532  0.6340
 6151TIP3    H239945   3.838   4.843   1.487 -0.4301 -0.5078 -0.4392
 6152TIP3   OH239946   5.588   3.538   6.770  0.2616 -0.3057 -0.2849
 6152TIP3    H139947   5.682   3.552   6.762  0.4482 -1.0327  0.5145
 6152TIP3    H239948   5.566   3.479   6.698  0.0239  1.4832 -1.7513
 6153TIP3   OH239949   0.433   3.520  16.796  0.3075 -0.6126  0.3353
 6153TIP3    H139950   0.358   3.463  16.811  1.2256 -1.9347  0.0642
 6153TIP3    H239951   0.456   3.553  16.884  0.9735 -2.2469  0.8074
 6154TIP3   OH239952   5.774   0.378   4.954  0.2276 -0.7899 -0.1071
 6154TIP3    H139953   5.778   0.327   5.035 -2.2071  0.3203  0.7977
 6154TIP3    H239954   5.865   0.403   4.937  1.1038 -3.0765  0.9166
 6155TIP3   OH239955   3.714   1.535  14.591 -0.0826 -0.4838 -0.6034
 6155TIP3    H139956   3.619   1.538  14.583 -0.1391  2.0793  0.2481
 6155TIP3    H239957   3.740   1.626  14.604  2.4976 -1.1306 -0.7119
 6156TIP3   OH239958   2.640   1.200  16.853  0.3024  0.0358 -0.2323
 6156TIP3    H139959   2.615   1.292  16.861 -0.3886 -0.0609 -1.0703
 6156TIP3    H239960   2.595   1.170  16.774  0.3208 -1.0924  0.1673
 6157TIP3   OH239961   5.670   6.704   1.570 -0.3242  0.4437  0.4852
 6157TIP3    H139962   5.745   6.666   1.524 -0.2269  0.9559  0.2133
 6157TIP3    H239963   5.635   6.769   1.509  0.0156  1.3801  1.2563
 6158TIP3   OH239964   3.895   0.680   5.897 -0.4653  0.4148  0.5090
 6158TIP3    H139965   3.868   0.740   5.828 -1.0839 -0.9249 -0.4753
 6158TIP3    H239966   3.982   0.649   5.870 -1.0320 -0.7005 -0.1193
 6159TIP3   OH239967   4.528   0.809   4.763  0.0076  0.0265 -0.1897
 6159TIP3    H139968   4.592   0.810   4.692 -1.4176 -0.3299 -1.5286
 6159TIP3    H239969   4.445   0.787   4.721 -0.8304 -0.5590  1.6412
 6160TIP3   OH239970   4.428   5.001  13.602 -0.0807 -0.1499 -0.1777
 6160TIP3    H139971   4.367   4.935  13.568  0.7041 -0.5110 -0.9423
 6160TIP3    H239972   4.379   5.047  13.670 -0.9270 -0.9683 -0.2130
 6161TIP3   OH239973   5.524   2.281   4.404  0.2405 -0.1558  0.1302
 6161TIP3    H139974   5.548   2.372   4.424 -0.6060 -0.2360  1.5879
 6161TIP3    H239975   5.473   2.252   4.479 -0.3385 -1.5393 -0.7579
 6162TIP3   OH239976   5.857   2.053  14.208  0.6044  0.0103 -0.0981
 6162TIP3    H139977   5.930   2.103  14.245  1.8168 -1.9022  0.2544
 6162TIP3    H239978   5.802   2.032  14.283  0.7160 -0.1496 -0.0596
 6163TIP3   OH239979   6.041   4.553   5.213  0.0680  0.3093  0.0549
 6163TIP3    H139980   5.951   4.569   5.186  0.5308  0.7199 -1.3166
 6163TIP3    H239981   6.091   4.624   5.174  1.3585 -1.3249 -1.4580
 6164TIP3   OH239982   5.437   1.667  10.924 -0.4765  0.4588 -0.3444
 6164TIP3    H139983   5.375   1.709  10.865 -0.7229  0.9296  0.2418
 6164TIP3    H239984   5.505   1.733  10.939 -2.0360  1.5655  2.4165
 6165TIP3   OH239985   6.331   5.501   1.804 -0.1250 -0.4202  0.3359
 6165TIP3    H139986   6.331   5.465   1.893 -0.7159  0.5660  0.7563
 6165TIP3    H239987   6.286   5.435   1.752 -0.5677 -0.6190  0.9499
 6166TIP3   OH239988   3.572   1.966   5.178  0.3607  0.0206  0.3516
 6166TIP3    H139989   3.493   1.989   5.129  0.1064 -0.6052  0.4575
 6166TIP3    H239990   3.637   1.948   5.110  0.4212  0.5488  0.2649
 6167TIP3   OH239991   1.035   6.487  15.193  0.6531 -0.1315 -0.1760
 6167TIP3    H139992   0.987   6.442  15.263  0.0220 -1.2667 -1.3166
 6167TIP3    H239993   1.057   6.573  15.231 -0.6964 -0.2682  0.9975
 6168TIP3   OH239994   1.589   2.793   6.594  0.4065  0.5377 -0.5427
 6168TIP3    H139995   1.501   2.797   6.556 -0.5778  0.7432  1.5840
 6168TIP3    H239996   1.640   2.740   6.533 -1.4122 -0.2562 -1.4348
 6169TIP3   OH239997   0.311   2.412   0.982  0.2125  0.1609  0.4862
 6169TIP3    H139998   0.393   2.430   0.937 -0.1298 -1.2486 -0.8005
 6169TIP3    H239999   0.335   2.353   1.053  0.3052 -0.4203 -0.0185
 6170TIP3   OH240000   1.818   4.477   1.110  0.7856 -0.3854  0.4088
 6170TIP3    H140001   1.872   4.550   1.078 -0.1100 -0.6841 -2.0150
 6170TIP3    H240002   1.779   4.510   1.191  1.7789  1.1628  0.3001
 6171TIP3   OH240003   3.533   5.659   0.962 -0.4292 -0.3962  0.3740
 6171TIP3    H140004   3.610   5.616   0.924  1.3765 -0.2560  3.4952
 6171TIP3    H240005   3.526   5.742   0.915 -0.0902 -1.3723 -1.4924
 6172TIP3   OH240006   3.948   0.650  11.871 -0.0312  0.7746 -0.1139
 6172TIP3    H140007   3.900   0.633  11.952  0.7929 -1.8246 -0.0919
 6172TIP3    H240008   4.040   0.642  11.895  0.2843  1.3622 -1.0568
 6173TIP3   OH240009   5.342   0.300   0.456  0.4040  0.0457 -0.0613
 6173TIP3    H140010   5.332   0.205   0.471  3.7890 -0.5390 -0.6892
 6173TIP3    H240011   5.354   0.308   0.362 -0.4729  1.2384 -0.0940
 6174TIP3   OH240012   3.572   1.897   0.826  0.4640 -0.5811  0.4577
 6174TIP3    H140013   3.569   1.801   0.820 -0.8762 -0.5932  1.0529
 6174TIP3    H240014   3.521   1.926   0.750  0.2843 -0.3490  0.6700
 6175TIP3   OH240015   4.975   5.885   5.348  0.0482 -0.3179 -0.1958
 6175TIP3    H140016   4.924   5.805   5.363  0.5524 -0.6442 -0.1609
 6175TIP3    H240017   4.929   5.930   5.277 -0.7038 -0.2269  0.3423
 6176TIP3   OH240018   2.474   4.218  11.270 -0.2913 -0.3050 -0.5129
 6176TIP3    H140019   2.569   4.213  11.260 -0.2566 -0.3638 -0.1685
 6176TIP3    H240020   2.440   4.205  11.182  0.0666  1.6234 -0.9755
 6177TIP3   OH240021   5.834   2.309  15.175  0.4056  0.0845 -0.1219
 6177TIP3    H140022   5.744   2.285  15.156  0.1844  1.1521 -0.4612
 6177TIP3    H240023   5.828   2.365  15.253  0.6756  0.8809 -0.6613
 6178TIP3   OH240024   2.244   0.687  12.535 -0.0649 -0.6321  0.0269
 6178TIP3    H140025   2.183   0.752  12.569  0.4577 -0.1655  0.0836
 6178TIP3    H240026   2.225   0.683  12.441  1.9525  1.9316 -0.6250
 6179TIP3   OH240027   2.391   2.792  12.177  0.0166 -0.0510  0.7852
 6179TIP3    H140028   2.403   2.887  12.178  1.3732 -0.1780 -0.7187
 6179TIP3    H240029   2.438   2.762  12.100  0.2528 -2.0464  1.6354
 6180TIP3   OH240030   5.089   4.686   6.613  0.5216  0.1889  0.3915
 6180TIP3    H140031   5.095   4.759   6.676 -1.3166 -0.9139  1.9660
 6180TIP3    H240032   5.070   4.609   6.667  1.6482 -1.3513 -1.2963
 6181TIP3   OH240033   3.731   0.751  16.349 -0.2221 -0.1411 -0.1280
 6181TIP3    H140034   3.776   0.673  16.382  1.9983  1.0894 -0.0737
 6181TIP3    H240035   3.698   0.795  16.428  0.8813  0.3189  0.1016
 6182TIP3   OH240036   1.165   6.099   1.106  0.1168 -0.3852 -0.1204
 6182TIP3    H140037   1.168   6.146   1.023  1.3067  0.3315  0.2960
 6182TIP3    H240038   1.200   6.162   1.170 -0.3441 -1.0801  0.8387
 6183TIP3   OH240039   3.793   5.837   1.434 -0.0033  0.2720  0.0040
 6183TIP3    H140040   3.843   5.851   1.515  1.5389 -1.5919 -0.5375
 6183TIP3    H240041   3.850   5.871   1.365 -0.5909  0.3620 -0.4460
 6184TIP3   OH240042   5.038   5.322   2.938 -0.2638 -0.9059  0.5356
 6184TIP3    H140043   4.972   5.262   2.902 -1.3570  1.0708 -0.9721
 6184TIP3    H240044   5.037   5.305   3.032 -1.2679 -2.5125  0.2760
 6185TIP3   OH240045   2.516   1.591  13.523 -0.3144  0.2934 -0.2257
 6185TIP3    H140046   2.558   1.534  13.459 -0.4264 -0.9225  0.7626
 6185TIP3    H240047   2.423   1.585  13.503 -0.3089  0.2815 -0.2466
 6186TIP3   OH240048   6.264   0.586  14.858  0.0670  0.3258  0.3257
 6186TIP3    H140049   6.209   0.664  14.847  1.8071  1.2872 -2.9769
 6186TIP3    H240050   6.302   0.596  14.945 -1.9993  1.5768  1.1689
 6187TIP3   OH240051   2.000   2.840   2.846  0.1201  0.7282 -0.5222
 6187TIP3    H140052   1.926   2.813   2.791  0.0336  1.2810 -0.6848
 6187TIP3    H240053   1.961   2.859   2.931  0.3616 -0.8714 -0.0205
 6188TIP3   OH240054   2.230   1.588  13.550  0.0305 -0.6181 -0.1519
 6188TIP3    H140055   2.179   1.599  13.469 -1.5844 -0.8312  0.7919
 6188TIP3    H240056   2.227   1.673  13.592  1.6854 -0.2346 -0.7182
 6189TIP3   OH240057   0.062   6.281   0.432  0.0370 -0.2746 -0.0840
 6189TIP3    H140058   0.097   6.237   0.355  0.8442 -2.0060  1.2023
 6189TIP3    H240059   0.081   6.221   0.504 -0.6701  1.2926  1.4691
 6190TIP3   OH240060   2.765   1.852  15.802  0.3823 -0.0880 -0.4414
 6190TIP3    H140061   2.776   1.945  15.818  1.2032 -0.2087 -0.2337
 6190TIP3    H240062   2.768   1.843  15.707 -0.6952  0.1992 -0.5141
 6191TIP3   OH240063   2.407   3.815   4.853 -0.1470 -0.4399  0.1061
 6191TIP3    H140064   2.481   3.762   4.823 -0.9010 -0.9966 -0.8498
 6191TIP3    H240065   2.413   3.814   4.948  0.4780 -1.3466  0.0715
 6192TIP3   OH240066   2.412   4.179  16.963  0.6081  0.4471 -0.3823
 6192TIP3    H140067   2.362   4.204  17.041 -0.2139  1.8885 -1.3291
 6192TIP3    H240068   2.351   4.127  16.911  0.9506  0.0220 -0.3646
 6193TIP3   OH240069   2.989   1.291   3.905  0.4960 -0.1436 -0.1962
 6193TIP3    H140070   2.908   1.279   3.854 -0.2138 -0.4215  0.9566
 6193TIP3    H240071   3.045   1.219   3.877 -0.1337 -0.6756 -0.1198
 6194TIP3   OH240072   6.437   3.073  16.480  0.3572 -0.0435 -0.1498
 6194TIP3    H140073   6.407   3.058  16.391 -0.5997 -1.0151  0.3150
 6194TIP3    H240074   6.391   3.152  16.509  0.7562  0.3367 -0.5461
 6195TIP3   OH240075   2.497   2.027   1.388  0.2294 -0.4834 -0.7086
 6195TIP3    H140076   2.443   2.055   1.315  0.3523 -0.6021 -0.8451
 6195TIP3    H240077   2.435   2.008   1.459  0.0666 -0.9784 -0.9824
 6196TIP3   OH240078   2.568   5.014   2.544  0.2183  0.0848  0.1370
 6196TIP3    H140079   2.601   5.019   2.633  1.9431 -0.8724 -0.4094
 6196TIP3    H240080   2.565   4.921   2.524 -0.4448  0.2706 -0.7140
 6197TIP3   OH240081   4.770   2.175   4.574  0.2342  0.0514 -0.5414
 6197TIP3    H140082   4.732   2.127   4.500  0.5448 -0.9309 -0.0802
 6197TIP3    H240083   4.748   2.122   4.651 -0.1332  1.0960  0.0824
 6198TIP3   OH240084   3.054   3.999  16.449 -0.0392 -0.3480  0.2864
 6198TIP3    H140085   3.140   3.961  16.430  0.2853  0.8052 -0.6959
 6198TIP3    H240086   3.071   4.069  16.512 -0.2244 -0.0546  0.0201
 6199TIP3   OH240087   6.288   6.757   2.561 -0.3411 -0.1727  0.0368
 6199TIP3    H140088   6.311   6.841   2.601 -0.9707 -0.8460  1.9308
 6199TIP3    H240089   6.204   6.773   2.518 -0.1223  0.3328 -0.2147
 6200TIP3   OH240090   1.796   3.483   3.539 -0.1000 -0.0599  0.5611
 6200TIP3    H140091   1.847   3.421   3.591  0.6672  1.7395  2.0618
 6200TIP3    H240092   1.725   3.511   3.597 -1.4194 -0.6981 -0.6672
 6201TIP3   OH240093   0.711   0.567   2.726  0.5581 -0.0465  0.1165
 6201TIP3    H140094   0.783   0.551   2.665 -0.0702 -2.0478 -0.1849
 6201TIP3    H240095   0.751   0.561   2.813  0.7384 -1.4283 -0.0416
 6202TIP3   OH240096   3.296   4.603  14.028 -0.0583 -0.3877 -0.0491
 6202TIP3    H140097   3.226   4.640  13.975 -0.7589  0.6743  1.5418
 6202TIP3    H240098   3.251   4.559  14.100  0.8853 -0.7874  0.3140
 6203TIP3   OH240099   4.071   6.369  16.013  0.1349 -0.3016 -0.4782
 6203TIP3    H140100   4.066   6.274  16.006  2.3857 -0.5361  0.1820
 6203TIP3    H240101   4.026   6.389  16.095 -0.1554 -0.8228 -0.5057
 6204TIP3   OH240102   5.356   1.228  12.353  0.6670  0.2891 -0.8635
 6204TIP3    H140103   5.281   1.242  12.296  1.6371 -0.6233 -2.4365
 6204TIP3    H240104   5.429   1.268  12.306  1.6314 -1.1681 -0.6521
 6205TIP3   OH240105   3.575   2.948  10.951 -0.1234  0.7885  0.1965
 6205TIP3    H140106   3.607   2.967  11.040 -1.6844 -2.0946  1.5282
 6205TIP3    H240107   3.481   2.936  10.962 -0.2026 -0.6371 -1.6593
 6206TIP3   OH240108   1.875   5.349  14.013  0.0062  0.5437  0.1546
 6206TIP3    H140109   1.885   5.264  13.970 -0.5773  0.0133  1.0510
 6206TIP3    H240110   1.880   5.412  13.941  1.5157 -0.1644 -0.4026
 6207TIP3   OH240111   4.313   6.617  11.316 -0.0176  0.1888 -0.2319
 6207TIP3    H140112   4.220   6.599  11.301  0.3225 -1.9615 -0.1434
 6207TIP3    H240113   4.321   6.712  11.308 -2.2178  0.4337 -0.2124
 6208TIP3   OH240114   1.318   3.429   5.387  0.4455  0.2729 -0.0617
 6208TIP3    H140115   1.305   3.339   5.419 -0.7531  0.6100  0.4781
 6208TIP3    H240116   1.254   3.481   5.436  1.7417  1.5913  0.3132
 6209TIP3   OH240117   2.583   4.937   3.088 -0.8998  0.3307  0.2062
 6209TIP3    H140118   2.640   5.009   3.118  1.4432 -1.1288 -0.4493
 6209TIP3    H240119   2.575   4.879   3.163 -0.4893 -0.0674 -0.0511
 6210TIP3   OH240120   6.477   4.913   4.122  0.1719 -0.1945 -0.6589
 6210TIP3    H140121   6.427   4.973   4.177 -1.5155 -0.5557 -1.7423
 6210TIP3    H240122   6.493   4.837   4.177 -0.1955  0.0595 -0.1954
 6211TIP3   OH240123   3.906   0.390   1.454 -0.5414  0.0675 -0.1429
 6211TIP3    H140124   3.866   0.315   1.497  1.1677  1.0639  3.5827
 6211TIP3    H240125   3.999   0.366   1.446 -0.2909  1.1186 -0.5225
 6212TIP3   OH240126   1.180   0.795   3.378  0.2387  0.7296 -0.0538
 6212TIP3    H140127   1.163   0.793   3.472 -0.3573 -0.4364 -0.1639
 6212TIP3    H240128   1.240   0.868   3.365  0.8756  0.4714  1.3239
 6213TIP3   OH240129   2.435   5.536  13.457 -0.6713  0.1061  0.3623
 6213TIP3    H140130   2.493   5.587  13.400  2.0625 -1.7762  1.2471
 6213TIP3    H240131   2.459   5.564  13.546 -2.3466  0.4664  0.7256
 6214TIP3   OH240132   1.297   4.268   5.623 -0.5743  0.0250 -0.1598
 6214TIP3    H140133   1.366   4.315   5.577  1.0846 -0.9855  1.1494
 6214TIP3    H240134   1.216   4.312   5.598  0.6322  1.8649 -1.0105
 6215TIP3   OH240135   0.616   5.589   4.589  0.3457 -0.6212  0.3048
 6215TIP3    H140136   0.704   5.556   4.608  1.0694  1.2518  0.3752
 6215TIP3    H240137   0.630   5.673   4.545 -1.4113 -0.5002 -0.1188
 6216TIP3   OH240138   5.299   2.500  15.450 -0.4274  0.1709  0.2044
 6216TIP3    H140139   5.208   2.529  15.456 -0.2176  0.5671  2.8778
 6216TIP3    H240140   5.309   2.437  15.521  0.9476 -1.2634 -1.1983
 6217TIP3   OH240141   3.761   3.454  13.228 -0.4191  0.2106  0.0932
 6217TIP3    H140142   3.726   3.504  13.153  0.3522  1.6349  0.6459
 6217TIP3    H240143   3.695   3.465  13.297 -0.7074 -0.3638 -0.0826
 6218TIP3   OH240144   1.628   3.805  12.479  0.3148  0.2543  0.3901
 6218TIP3    H140145   1.641   3.712  12.463  0.5849  0.2497  0.6341
 6218TIP3    H240146   1.709   3.834  12.521  1.6890  1.3168 -2.7343
 6219TIP3   OH240147   6.401   5.853  13.134  0.1347 -0.3782  0.0364
 6219TIP3    H140148   6.334   5.786  13.118 -1.2523  1.0632 -0.5007
 6219TIP3    H240149   6.355   5.936  13.118  2.1268  0.6583 -0.5954
 6220TIP3   OH240150   6.728   1.151   2.815 -0.5525  0.1279  0.2034
 6220TIP3    H140151   6.787   1.199   2.757 -1.5170 -0.4992 -1.3862
 6220TIP3    H240152   6.664   1.111   2.756 -1.4617 -0.7493  1.7057
 6221TIP3   OH240153   1.616   0.474  16.703  0.0143  0.0780  0.1828
 6221TIP3    H140154   1.596   0.526  16.782  3.1394  0.2004  1.0251
 6221TIP3    H240155   1.608   0.383  16.732  0.7480  0.1231  0.5469
 6222TIP3   OH240156   0.954   2.544   3.295  0.9948 -0.2308  0.2795
 6222TIP3    H140157   0.968   2.632   3.259 -0.4073  0.6506  1.7552
 6222TIP3    H240158   0.928   2.492   3.219  0.6129  0.9549 -0.4421
 6223TIP3   OH240159   4.718   3.872  15.062  0.4828 -0.0406 -0.4024
 6223TIP3    H140160   4.709   3.786  15.022 -0.1427 -0.5234  0.7294
 6223TIP3    H240161   4.807   3.899  15.040  0.1455 -0.2087 -2.1998
 6224TIP3   OH240162   1.387   3.223   2.529  0.4874  0.4935 -0.2005
 6224TIP3    H140163   1.356   3.282   2.598  1.6126  0.3415  0.4607
 6224TIP3    H240164   1.471   3.260   2.502  0.5352 -0.0249 -0.7771
 6225TIP3   OH240165   3.280   6.318  17.244  0.0850 -0.1956 -0.4004
 6225TIP3    H140166   3.195   6.358  17.223 -0.0020  1.0675  1.9593
 6225TIP3    H240167   3.257   6.235  17.285 -0.2893  1.2064  2.5269
 6226TIP3   OH240168   6.770   2.247  13.290  0.3947  0.5000 -0.1178
 6226TIP3    H140169   6.768   2.272  13.382 -1.2071 -0.1731  0.0564
 6226TIP3    H240170   6.695   2.291  13.251  1.0042  0.7080 -1.0962
 6227TIP3   OH240171   0.020   2.238  14.845  0.4682 -0.1367  0.2895
 6227TIP3    H140172   0.028   2.271  14.934  0.5688 -0.2176  0.3113
 6227TIP3    H240173   0.021   2.142  14.854  2.9582 -0.2110  0.0226
 6228TIP3   OH240174   5.164   4.132  11.783  0.6111 -0.1393  0.0272
 6228TIP3    H140175   5.192   4.216  11.821 -0.0248 -0.5241  1.3910
 6228TIP3    H240176   5.118   4.088  11.854  0.1389 -1.2677 -0.9577
 6229TIP3   OH240177   5.600   6.456  14.739 -0.0152  0.0702 -0.2050
 6229TIP3    H140178   5.533   6.404  14.696 -0.4901  0.4740  0.0313
 6229TIP3    H240179   5.606   6.536  14.686 -0.6103  0.5744  0.4639
 6230TIP3   OH240180   5.358   3.549   2.294 -0.0386  0.3538  0.8101
 6230TIP3    H140181   5.321   3.468   2.258  0.9517  0.0577  0.4261
 6230TIP3    H240182   5.389   3.597   2.217  0.2027  0.6828  1.1097
 6231TIP3   OH240183   1.221   0.233   1.687  0.2285 -0.0496  0.4489
 6231TIP3    H140184   1.297   0.286   1.665  1.5919 -0.8693  2.8086
 6231TIP3    H240185   1.200   0.258   1.777 -2.1618 -0.0711 -0.0339
 6232TIP3   OH240186   1.487   3.174   1.679  0.1890 -0.3046 -0.6046
 6232TIP3    H140187   1.498   3.178   1.584  3.2391  2.3493 -0.2684
 6232TIP3    H240188   1.539   3.098   1.706  2.0847  0.8725 -0.8213
 6233TIP3   OH240189   4.680   2.452  12.137 -0.0150 -0.1755  0.2336
 6233TIP3    H140190   4.716   2.478  12.221  0.8497  0.4117 -0.3095
 6233TIP3    H240191   4.620   2.523  12.113 -0.6719 -0.5977  0.5942
 6234TIP3   OH240192   2.057   0.051   1.796 -0.1799 -0.0276  0.3398
 6234TIP3    H140193   2.099   0.011   1.872  0.3280 -0.5779 -0.2188
 6234TIP3    H240194   2.124   0.051   1.728 -1.4303 -2.2226 -1.0240
 6235TIP3   OH240195   3.035   6.761  14.123  0.3398  0.4557  0.1883
 6235TIP3    H140196   3.006   6.848  14.098  1.5296  0.6125 -0.6952
 6235TIP3    H240197   3.129   6.761  14.108  0.3307 -1.0541 -0.0257
 6236TIP3   OH240198   1.990   2.931   4.034 -0.2237 -0.0782 -0.0583
 6236TIP3    H140199   2.057   2.990   3.999  0.0920 -0.9275 -0.9412
 6236TIP3    H240200   2.009   2.925   4.127  0.0605  0.7879 -0.0506
 6237TIP3   OH240201   0.259   4.670   3.508  0.0407 -0.0569  0.0404
 6237TIP3    H140202   0.263   4.757   3.546 -1.3206 -0.5977  1.5134
 6237TIP3    H240203   0.224   4.615   3.577  1.7987 -2.0018 -0.5102
 6238TIP3   OH240204   0.416   0.452   3.355  0.5735  0.3300  0.1466
 6238TIP3    H140205   0.487   0.422   3.299  0.9257 -0.4986  1.0060
 6238TIP3    H240206   0.460   0.488   3.432  0.1142  1.8965 -0.2865
 6239TIP3   OH240207   3.362   0.021  15.830  0.3058  0.1367 -0.2488
 6239TIP3    H140208   3.434  -0.031  15.866  0.7988  1.7023  1.1505
 6239TIP3    H240209   3.302   0.033  15.903 -1.3129 -0.9567 -1.3436
 6240TIP3   OH240210   6.665   0.749   2.684  0.3950 -0.6622  0.1587
 6240TIP3    H140211   6.746   0.752   2.735  0.1115  0.1101  0.5838
 6240TIP3    H240212   6.689   0.783   2.598  0.6726 -1.1096  0.0559
 6241TIP3   OH240213   2.062   4.270   0.124  0.7438 -0.2808 -0.1458
 6241TIP3    H140214   2.144   4.236   0.089  2.4923  1.0793  2.3155
 6241TIP3    H240215   2.079   4.281   0.217 -2.8575 -1.5487  0.8141
 6242TIP3   OH240216   0.282   0.747  13.461  0.0308  0.2047 -0.4148
 6242TIP3    H140217   0.348   0.799  13.506 -0.4497  0.7853 -0.3643
 6242TIP3    H240218   0.304   0.756  13.368  0.1383  0.2390 -0.3859
 6243TIP3   OH240219   3.780   0.726  17.223  0.4109 -0.0998 -0.4848
 6243TIP3    H140220   3.797   0.637  17.191 -0.1017  0.0861 -1.3032
 6243TIP3    H240221   3.776   0.779  17.144  0.0315  0.5402 -0.0427
 6244TIP3   OH240222   2.549   1.506  15.880 -0.3379  0.0053 -0.8056
 6244TIP3    H140223   2.476   1.566  15.867 -0.7536 -0.4985 -0.8625
 6244TIP3    H240224   2.590   1.500  15.794 -0.4085  0.0698 -0.8442
 6245TIP3   OH240225   4.860   2.789   0.072 -0.0461  0.0865  0.4154
 6245TIP3    H140226   4.955   2.793   0.064  0.2693  0.3637  3.2731
 6245TIP3    H240227   4.832   2.880   0.083 -1.1880  0.4667 -4.0451
 6246TIP3   OH240228   0.701   6.034  14.973  0.8237 -0.5993  0.4244
 6246TIP3    H140229   0.795   6.019  14.980  0.6480 -1.2119  1.8088
 6246TIP3    H240230   0.679   6.086  15.050 -0.0760 -1.0538  0.4930
 6247TIP3   OH240231   6.437   6.501   5.607 -0.0531 -0.2715 -0.2471
 6247TIP3    H140232   6.458   6.502   5.514  2.1541  1.3171  0.1692
 6247TIP3    H240233   6.522   6.507   5.651 -1.0590 -0.4281  1.8704
 6248TIP3   OH240234   5.714   6.278  15.451 -0.4318 -0.3855  0.1356
 6248TIP3    H140235   5.653   6.289  15.378  0.8398 -1.2492 -1.0928
 6248TIP3    H240236   5.747   6.189  15.442  1.5695  0.3003  0.3384
 6249TIP3   OH240237   3.344   1.761   1.176  0.3706  0.4234  0.1248
 6249TIP3    H140238   3.420   1.817   1.190 -0.6644  1.8655  0.2909
 6249TIP3    H240239   3.282   1.787   1.244 -0.6263 -0.0407 -0.5768
 6250TIP3   OH240240   6.292   1.943   5.285  0.6395  0.2885 -0.3688
 6250TIP3    H140241   6.262   1.858   5.316  1.0293  0.2109 -0.1948
 6250TIP3    H240242   6.287   1.938   5.189 -0.5920  0.5348 -0.3390
 6251TIP3   OH240243   3.822   0.136   1.469  0.5082 -0.1162 -0.2691
 6251TIP3    H140244   3.842   0.120   1.561  0.2519  2.0988  0.2175
 6251TIP3    H240245   3.798   0.050   1.435  1.2604 -1.1039  1.5529
 6252TIP3   OH240246   0.081   5.187   0.419  0.1168  0.3508 -0.3988
 6252TIP3    H140247  -0.005   5.184   0.461 -1.6274 -2.9831 -3.7086
 6252TIP3    H240248   0.142   5.205   0.491 -3.0774  0.8436  2.4292
 6253TIP3   OH240249   2.837   6.187   1.241  0.4667  1.0187  0.4754
 6253TIP3    H140250   2.895   6.251   1.198  0.3218  0.7363 -0.1465
 6253TIP3    H240251   2.896   6.127   1.286  0.7135  0.2402 -0.8416
 6254TIP3   OH240252   0.506   3.529   4.540  0.3002  0.4711  0.9258
 6254TIP3    H140253   0.429   3.502   4.590 -0.5415  0.0289 -0.5320
 6254TIP3    H240254   0.556   3.448   4.528  0.5792  0.6048  1.1758
 6255TIP3   OH240255   1.171   3.125   5.461 -0.2524  0.2027 -0.2109
 6255TIP3    H140256   1.191   3.178   5.539  0.7000  0.8542 -0.8647
 6255TIP3    H240257   1.093   3.075   5.485 -0.3554  0.8675  0.9305
 6256TIP3   OH240258   2.367   5.487  16.119 -0.8555  0.0437 -0.7022
 6256TIP3    H140259   2.337   5.451  16.035 -1.2129 -1.4463  0.0307
 6256TIP3    H240260   2.420   5.563  16.094 -1.2216 -0.1610 -2.2583
 6257TIP3   OH240261   3.622   1.790   5.938  0.0473 -0.4645  0.0370
 6257TIP3    H140262   3.706   1.755   5.906  0.3473  1.9604 -2.1768
 6257TIP3    H240263   3.644   1.830   6.022  1.4052  0.9327 -0.9203
 6258TIP3   OH240264   2.114   6.208  15.210  0.1761 -0.0544  0.1670
 6258TIP3    H140265   2.031   6.166  15.185 -0.5634  1.8011 -0.7121
 6258TIP3    H240266   2.126   6.185  15.302 -0.2200 -2.0736 -0.2575
 6259TIP3   OH240267   1.572   4.719   3.850 -0.3260 -0.0718 -0.2723
 6259TIP3    H140268   1.536   4.633   3.869  0.3377  0.1823  2.5267
 6259TIP3    H240269   1.571   4.766   3.934 -1.5724  3.0399 -1.8535
 6260TIP3   OH240270   4.933   3.128  13.132  0.5646 -0.0384  0.0978
 6260TIP3    H140271   4.901   3.184  13.060  0.1107  0.1441  0.4348
 6260TIP3    H240272   4.888   3.045  13.119  0.2554  0.0914  0.3457
 6261TIP3   OH240273   4.715   1.260  13.140  0.0165  0.0309 -0.0605
 6261TIP3    H140274   4.794   1.307  13.168 -0.6144  0.3286  1.3347
 6261TIP3    H240275   4.735   1.228  13.053  0.7813  2.2509 -0.7750
 6262TIP3   OH240276   2.160   4.849  11.091 -0.2198 -0.1781 -0.2054
 6262TIP3    H140277   2.180   4.916  11.156 -0.1285 -1.7037  1.3960
 6262TIP3    H240278   2.219   4.870  11.017  0.3569  1.0268  0.5545
 6263TIP3   OH240279   4.415   6.616  13.696  0.8832 -0.2988 -0.1178
 6263TIP3    H140280   4.454   6.618  13.608  0.3905  1.1224 -0.3260
 6263TIP3    H240281   4.437   6.701  13.733 -1.9390  0.5787 -0.2179
 6264TIP3   OH240282   5.822   4.773  13.961 -0.2629 -0.2974 -0.0739
 6264TIP3    H140283   5.817   4.793  13.867  0.4252 -1.4296 -0.3726
 6264TIP3    H240284   5.916   4.774  13.980 -0.3572 -0.7842  0.4331
 6265TIP3   OH240285   3.067   0.100   3.179 -0.1032 -0.2621  0.4244
 6265TIP3    H140286   3.037   0.019   3.220  0.2339 -0.4650  0.2745
 6265TIP3    H240287   3.105   0.151   3.251 -0.5777 -0.1072  0.5712
 6266TIP3   OH240288   3.434   3.117  13.458 -0.4936 -0.1001 -0.3408
 6266TIP3    H140289   3.348   3.111  13.417 -0.5789 -1.6631  0.0147
 6266TIP3    H240290   3.435   3.046  13.522  1.0551 -0.0994 -0.3359
 6267TIP3   OH240291   3.398   5.577  12.590 -0.2510 -0.0205 -0.3019
 6267TIP3    H140292   3.469   5.531  12.545  0.3428 -0.2849  0.8633
 6267TIP3    H240293   3.391   5.533  12.674 -2.0366 -0.2190 -0.5111
 6268TIP3   OH240294   2.617   6.091  14.861 -0.2918  0.3768  0.0170
 6268TIP3    H140295   2.607   6.051  14.947 -0.2481 -1.1844 -0.6667
 6268TIP3    H240296   2.573   6.175  14.868  1.2153  1.0847  2.0721
 6269TIP3   OH240297   0.721   2.352  11.659 -0.3475  0.1483  0.9626
 6269TIP3    H140298   0.765   2.437  11.654  0.4318 -0.3040 -0.0941
 6269TIP3    H240299   0.735   2.313  11.573  0.3920 -1.5891  1.8321
 6270TIP3   OH240300   3.136   1.626   5.193 -0.0057 -0.0399 -0.4338
 6270TIP3    H140301   3.228   1.643   5.214 -0.5068  1.0845  1.0515
 6270TIP3    H240302   3.095   1.608   5.278 -1.6754  2.1965 -0.6626
 6271TIP3   OH240303   4.410   5.896  15.546 -0.1165  0.0957 -0.1499
 6271TIP3    H140304   4.405   5.907  15.641  0.0055  1.0195 -0.2372
 6271TIP3    H240305   4.491   5.846  15.532 -0.4155 -0.5196  0.2549
 6272TIP3   OH240306   6.334   4.722   3.953  0.2470  0.6751  0.2509
 6272TIP3    H140307   6.370   4.810   3.963 -0.9167  1.1582  0.2411
 6272TIP3    H240308   6.271   4.713   4.024  0.1898 -0.0811  0.1177
 6273TIP3   OH240309   5.634   0.746  11.696 -0.3683 -0.0277  0.1408
 6273TIP3    H140310   5.690   0.823  11.696 -0.9219  0.4099  1.4711
 6273TIP3    H240311   5.548   0.779  11.722 -0.0567 -1.4141  3.3518
 6274TIP3   OH240312   4.333   3.865  13.064  0.2275  0.0695  0.5534
 6274TIP3    H140313   4.309   3.932  13.128 -0.2175  1.5393 -1.0781
 6274TIP3    H240314   4.278   3.789  13.087  1.1836 -0.0211  2.8068
 6275TIP3   OH240315   4.998   2.866   6.272 -0.3988 -0.5537  0.1304
 6275TIP3    H140316   4.930   2.847   6.336 -1.7154  2.5357 -0.1643
 6275TIP3    H240317   4.950   2.886   6.192  0.5330  3.5083  0.3665
 6276TIP3   OH240318   0.259   0.436  11.335  0.3371  0.0710 -0.4069
 6276TIP3    H140319   0.240   0.370  11.401 -1.2435  0.6813 -0.1921
 6276TIP3    H240320   0.267   0.387  11.253 -2.2668 -0.3423 -0.5064
 6277TIP3   OH240321   6.471   0.616   3.389  0.0708 -0.1140 -0.2354
 6277TIP3    H140322   6.479   0.611   3.484  0.0619  0.9464 -0.1595
 6277TIP3    H240323   6.547   0.668   3.361  0.1990 -0.6072 -0.8363
 6278TIP3   OH240324   0.242   5.634  11.344  0.1828  0.0885  0.2471
 6278TIP3    H140325   0.303   5.651  11.272 -0.2697 -0.3813 -0.2604
 6278TIP3    H240326   0.241   5.538  11.351  1.3997  0.1530  1.9118
 6279TIP3   OH240327   4.728   3.895  16.484 -0.2596  0.3752 -0.0050
 6279TIP3    H140328   4.701   3.848  16.563 -0.8632  0.9591  0.1411
 6279TIP3    H240329   4.696   3.984  16.497 -0.6129  0.4064 -1.0348
 6280TIP3   OH240330   1.167   3.859   0.470 -0.0322  0.5015  0.5246
 6280TIP3    H140331   1.110   3.934   0.455  0.7068  1.4958  2.2897
 6280TIP3    H240332   1.252   3.898   0.494  1.2271 -0.9162 -1.3156
 6281TIP3   OH240333   5.203   4.025   0.311  0.4269  0.4144 -0.1396
 6281TIP3    H140334   5.265   4.036   0.383  0.1238  0.7456  0.0700
 6281TIP3    H240335   5.118   4.044   0.349 -0.0481 -1.8036  0.0423
 6282TIP3   OH240336   4.385   0.103  15.030 -0.0405 -0.5128 -0.2160
 6282TIP3    H140337   4.353   0.014  15.020  0.2216 -0.4521 -1.7791
 6282TIP3    H240338   4.325   0.156  14.977  0.7522  0.0141 -0.6035
 6283TIP3   OH240339   6.125   5.459   3.092  0.5697 -0.0272 -0.2253
 6283TIP3    H140340   6.142   5.426   3.181 -2.9795  1.1592  1.0522
 6283TIP3    H240341   6.139   5.554   3.099 -2.5363  0.5047 -0.0043
 6284TIP3   OH240342   0.704   4.529   5.308  0.0909  0.2674  0.2533
 6284TIP3    H140343   0.694   4.582   5.387 -1.3026 -2.3773  1.9787
 6284TIP3    H240344   0.664   4.445   5.329 -0.1285 -0.6764 -3.2150
 6285TIP3   OH240345   0.010   6.747   5.233 -0.0565  0.2609 -0.9587
 6285TIP3    H140346  -0.058   6.679   5.241  1.6381 -1.6402 -1.7545
 6285TIP3    H240347   0.007   6.793   5.317 -1.0883 -0.9923 -0.2633
 6286TIP3   OH240348   0.070   6.648  13.771  0.2648 -0.2638 -0.0605
 6286TIP3    H140349   0.052   6.555  13.763 -2.2811  0.1755 -0.0580
 6286TIP3    H240350   0.029   6.674  13.853  1.7497  0.7069  0.4161
 6287TIP3   OH240351   4.864   0.095  15.869  0.1341 -0.6145 -0.3315
 6287TIP3    H140352   4.806   0.128  15.938 -0.1986 -2.5556  0.4081
 6287TIP3    H240353   4.951   0.126  15.894 -0.2493  0.3471 -0.1425
 6288TIP3   OH240354   3.416   5.357  12.765  0.5059  0.4183  0.3066
 6288TIP3    H140355   3.380   5.394  12.846 -0.7355 -0.8075  0.3460
 6288TIP3    H240356   3.478   5.290  12.795 -1.0997 -1.1220  0.2889
 6289TIP3   OH240357   4.327   0.602  15.015 -0.0974 -0.0039  0.2028
 6289TIP3    H140358   4.420   0.581  15.027 -0.4504 -0.8654  1.5853
 6289TIP3    H240359   4.301   0.550  14.939  0.5383  0.2762 -0.2245
 6290TIP3   OH240360   6.729   3.982  11.854  0.7279 -0.5452 -0.0556
 6290TIP3    H140361   6.684   3.899  11.835  2.6575 -1.6631  0.0076
 6290TIP3    H240362   6.726   4.030  11.771 -2.3945  0.4082  0.4758
 6291TIP3   OH240363   5.619   0.932  13.617  0.1317  0.3057  0.0771
 6291TIP3    H140364   5.707   0.936  13.579  0.0510  0.7880 -0.0690
 6291TIP3    H240365   5.562   0.906  13.544  0.0380  0.8111 -0.0362
 6292TIP3   OH240366   1.051   0.560   0.325 -0.0177 -0.1490 -0.5721
 6292TIP3    H140367   1.018   0.645   0.353 -0.8997 -0.9355  0.8487
 6292TIP3    H240368   1.113   0.581   0.255 -0.8154  1.6005 -0.8139
 6293TIP3   OH240369   3.780   2.959   1.069  0.7097  0.3017  0.2518
 6293TIP3    H140370   3.870   2.965   1.103  1.1994 -1.7447 -0.4856
 6293TIP3    H240371   3.783   3.004   0.985  1.8481 -2.0114 -1.0526
 6294TIP3   OH240372   0.193   5.884  11.855 -0.3842  0.2617 -0.4779
 6294TIP3    H140373   0.262   5.913  11.795 -0.3886  1.4953  0.0855
 6294TIP3    H240374   0.111   5.910  11.813 -0.4765 -0.3689 -0.7043
 6295TIP3   OH240375   3.714   5.620   4.904 -0.0356 -0.2124  0.1198
 6295TIP3    H140376   3.625   5.653   4.895 -0.0558 -0.2650  0.1278
 6295TIP3    H240377   3.704   5.531   4.937 -0.0464 -0.7762 -1.3170
 6296TIP3   OH240378   3.186   3.723  16.924 -0.5481  0.3008  0.3228
 6296TIP3    H140379   3.095   3.695  16.912 -0.1206 -2.8453  3.1036
 6296TIP3    H240380   3.195   3.733  17.019  1.2998  3.5994 -0.0590
 6297TIP3   OH240381   1.909   5.983  15.641  0.4735 -0.7243 -0.2875
 6297TIP3    H140382   1.843   5.939  15.588  1.4018 -0.3670 -1.7893
 6297TIP3    H240383   1.938   6.057  15.588  2.4261 -1.1528  0.0974
 6298TIP3   OH240384   5.805   6.188  16.741 -0.8000  0.4745  0.5708
 6298TIP3    H140385   5.878   6.151  16.790 -0.7845 -0.4230 -0.0949
 6298TIP3    H240386   5.730   6.133  16.763 -0.6334 -0.4371 -0.9415
 6299TIP3   OH240387   0.225   2.542  12.908 -1.1850 -0.5443 -0.0926
 6299TIP3    H140388   0.282   2.514  12.980 -0.4724 -0.8306 -0.7445
 6299TIP3    H240389   0.243   2.635  12.897  0.9792 -1.0686 -1.8073
 6300TIP3   OH240390   5.802   5.777  14.215  0.6539  0.8327 -0.0845
 6300TIP3    H140391   5.783   5.789  14.308  0.6529 -0.1777  0.0530
 6300TIP3    H240392   5.719   5.798  14.171  0.4430  0.5904  0.1965
 6301TIP3   OH240393   3.654   4.170   3.476 -0.0781 -0.3937  0.0066
 6301TIP3    H140394   3.609   4.088   3.494 -1.0510 -0.0581 -0.8227
 6301TIP3    H240395   3.704   4.153   3.396 -1.5892  0.2661 -1.1385
 6302TIP3   OH240396   6.203   0.438   6.182 -0.4448  0.3611 -0.1677
 6302TIP3    H140397   6.223   0.356   6.228  0.7163 -0.1147 -1.4556
 6302TIP3    H240398   6.277   0.495   6.202 -1.2419  1.1265  0.7100
 6303TIP3   OH240399   3.293   6.545  11.321 -0.1639 -0.5259 -0.9073
 6303TIP3    H140400   3.346   6.584  11.390 -0.0823 -1.8398 -0.1974
 6303TIP3    H240401   3.340   6.565  11.240  0.2253  0.2353 -0.5022
 6304TIP3   OH240402   1.743   3.550  11.376  0.3619  0.3246  0.2343
 6304TIP3    H140403   1.720   3.466  11.416 -0.7578  0.8597  0.7563
 6304TIP3    H240404   1.688   3.555  11.297  1.2870  0.0535 -0.4392
 6305TIP3   OH240405   6.451   5.294  15.564  0.7273  0.5638  0.3466
 6305TIP3    H140406   6.499   5.259  15.490 -0.3049  2.2615 -1.1998
 6305TIP3    H240407   6.505   5.366  15.596 -0.0228  1.4805 -0.4128
 6306TIP3   OH240408   4.941   4.572   1.998 -0.0600 -0.1274 -0.0719
 6306TIP3    H140409   4.904   4.489   2.027  0.8438  0.0634  1.7464
 6306TIP3    H240410   5.034   4.566   2.018  0.0646  1.2180 -0.1556
 6307TIP3   OH240411   2.962   4.435  12.271  0.1392 -0.5122 -0.0534
 6307TIP3    H140412   2.943   4.526  12.247 -2.5045 -0.2464  2.4532
 6307TIP3    H240413   2.900   4.383  12.220 -0.6032 -0.5817  0.9030
 6308TIP3   OH240414   6.726   0.091   4.694 -0.1303  0.2553  0.3931
 6308TIP3    H140415   6.774   0.048   4.766  0.9336  2.1174  0.8641
 6308TIP3    H240416   6.783   0.081   4.618  0.1801  0.9057  0.5330
 6309TIP3   OH240417   3.979   0.612   2.190 -0.2704  0.0014 -0.0689
 6309TIP3    H140418   3.902   0.659   2.223  1.1141  0.3433  2.9872
 6309TIP3    H240419   3.983   0.533   2.244  1.3659 -0.1368 -0.3516
 6310TIP3   OH240420   5.076   5.380  15.105  0.4013  0.3834 -0.0254
 6310TIP3    H140421   5.095   5.434  15.029  1.0904 -0.2491 -0.3173
 6310TIP3    H240422   4.981   5.375  15.109  0.3357  1.5073 -0.0623
 6311TIP3   OH240423   2.188   2.306  16.080  0.3434  0.1471  0.0895
 6311TIP3    H140424   2.193   2.370  16.009  1.4582 -0.3401 -0.2949
 6311TIP3    H240425   2.217   2.354  16.157 -2.2377  1.0978  0.5771
 6312TIP3   OH240426   1.777   0.667  14.811 -0.1865 -0.1040  0.4243
 6312TIP3    H140427   1.713   0.691  14.879 -1.4334 -1.2073 -0.3248
 6312TIP3    H240428   1.741   0.702  14.730  1.3402  1.2813  0.2915
 6313TIP3   OH240429   3.333   5.369  17.188  0.1135 -0.0500  0.7055
 6313TIP3    H140430   3.253   5.402  17.227  1.1853  0.0716  2.9693
 6313TIP3    H240431   3.388   5.344  17.262  1.3787 -2.1197 -0.7856
 6314TIP3   OH240432   0.128   2.345  13.758 -0.1969  0.4672  0.0425
 6314TIP3    H140433   0.051   2.398  13.734 -1.6423 -1.0458  1.0598
 6314TIP3    H240434   0.126   2.271  13.698 -0.5289 -0.4246  1.1174
 6315TIP3   OH240435   4.082   6.178   5.663 -0.1713 -0.3435  0.0238
 6315TIP3    H140436   4.019   6.220   5.721  0.5303  0.8488 -0.0384
 6315TIP3    H240437   4.064   6.084   5.671  0.5899 -0.3250  2.9634
 6316TIP3   OH240438   1.320   6.006  15.065  0.2141 -0.4553 -0.0964
 6316TIP3    H140439   1.309   6.089  15.019 -0.4720  0.1932  1.2097
 6316TIP3    H240440   1.232   5.969  15.070  0.1435 -0.1507  1.3379
 6317TIP3   OH240441   1.008   6.204  13.685 -0.0544  0.1374  0.1763
 6317TIP3    H140442   1.007   6.236  13.775  0.2014  0.6896 -0.0139
 6317TIP3    H240443   1.079   6.252  13.643 -1.0800  0.9452 -0.6932
 6318TIP3   OH240444   2.019   2.672  14.996 -0.0668 -0.7520  0.0047
 6318TIP3    H140445   2.100   2.693  14.949 -0.8336 -0.7210 -1.3617
 6318TIP3    H240446   1.983   2.758  15.019 -0.0281 -0.7426  0.0295
 6319TIP3   OH240447   5.113   2.929   3.864 -0.0202 -0.3017  0.7060
 6319TIP3    H140448   5.020   2.948   3.877 -0.3797 -2.6012  1.8572
 6319TIP3    H240449   5.147   2.911   3.951  0.7977 -2.3762  0.0167
 6320TIP3   OH240450   2.138   2.093   3.405 -0.0050  0.1362 -0.2407
 6320TIP3    H140451   2.118   2.095   3.312 -2.3035 -0.9433  0.1607
 6320TIP3    H240452   2.153   2.000   3.425 -1.9882 -0.0128  0.8571
 6321TIP3   OH240453   5.071   4.350  14.825 -0.2980  0.3004 -0.5497
 6321TIP3    H140454   4.997   4.339  14.885 -1.2782  1.7037 -1.4277
 6321TIP3    H240455   5.069   4.272  14.769 -0.3461 -0.2608  0.2236
 6322TIP3   OH240456   1.161   0.809   4.522  0.3367 -0.3420  0.3261
 6322TIP3    H140457   1.122   0.738   4.472 -0.6773  0.4979 -0.1081
 6322TIP3    H240458   1.097   0.829   4.590 -0.1508  1.2143 -0.5409
 6323TIP3   OH240459   4.631   4.881  15.215  0.3116 -0.5401 -0.3150
 6323TIP3    H140460   4.710   4.923  15.248 -0.2194 -0.3235  0.7057
 6323TIP3    H240461   4.566   4.951  15.211  0.3290 -0.5639 -1.7851
 6324TIP3   OH240462   3.614   0.033  10.975 -0.0136  0.0815 -0.5825
 6324TIP3    H140463   3.701  -0.006  10.971  0.7237  1.7368 -1.8427
 6324TIP3    H240464   3.580   0.029  10.886 -0.0041  2.0040 -0.7233
 6325TIP3   OH240465   4.556   0.971  13.345  0.2264 -0.4955  0.0778
 6325TIP3    H140466   4.649   0.970  13.369  0.2995  0.0199 -0.1729
 6325TIP3    H240467   4.535   1.064  13.335 -0.6967 -0.5121  1.5684
 6326TIP3   OH240468   0.470   1.606  13.054  0.3014 -0.4546  0.1056
 6326TIP3    H140469   0.464   1.697  13.085  0.8473 -0.6244  0.7261
 6326TIP3    H240470   0.562   1.594  13.033 -0.2030 -0.0207 -2.6688
 6327TIP3   OH240471   6.163   1.650  11.867  0.1689  0.1760 -0.7651
 6327TIP3    H140472   6.170   1.716  11.798 -0.2933  1.9437  0.7950
 6327TIP3    H240473   6.086   1.676  11.918  1.5828  0.1242  1.5584
 6328TIP3   OH240474   2.933   2.020   3.389 -0.0719 -0.0329  0.1911
 6328TIP3    H140475   2.945   1.974   3.472 -0.6365 -0.0450  0.2663
 6328TIP3    H240476   2.910   2.109   3.414 -1.7973 -0.4163  0.0744
 6329TIP3   OH240477   0.440   1.166  12.759 -0.0553  0.2543 -0.2050
 6329TIP3    H140478   0.517   1.200  12.805 -0.5047 -0.7227  1.3680
 6329TIP3    H240479   0.465   1.163  12.667  1.8074 -0.1368  0.2888
 6330TIP3   OH240480   5.044   0.528  10.468 -0.1747 -0.2509 -0.0597
 6330TIP3    H140481   5.088   0.472  10.405 -0.3177  0.0196 -0.4016
 6330TIP3    H240482   5.105   0.532  10.542  0.1695 -0.2510 -0.3377
 6331TIP3   OH240483   1.422   2.708  14.131 -0.1383 -0.0051 -0.0580
 6331TIP3    H140484   1.464   2.702  14.046 -1.1354  0.5323 -0.5975
 6331TIP3    H240485   1.375   2.625  14.141 -0.6476  0.2407 -0.3770
 6332TIP3   OH240486   1.320   2.916  12.827 -0.1906  0.0679  0.2112
 6332TIP3    H140487   1.229   2.910  12.798 -0.3179  0.9239  0.3910
 6332TIP3    H240488   1.356   2.989  12.777 -0.3705  1.4912  2.0494
 6333TIP3   OH240489   2.518   6.571   0.839  0.6123 -1.0447  0.2008
 6333TIP3    H140490   2.611   6.552   0.830  0.4544 -1.2378 -1.2024
 6333TIP3    H240491   2.514   6.667   0.845  0.8169 -0.9096 -1.3361
 6334TIP3   OH240492   2.525   3.446   0.485  0.1949 -0.3245  0.3836
 6334TIP3    H140493   2.439   3.478   0.513 -0.8495 -2.3005 -0.3875
 6334TIP3    H240494   2.565   3.413   0.566 -0.1451 -0.2191  0.5966
 6335TIP3   OH240495   0.783   4.831   2.671  0.5169 -0.0625  0.1539
 6335TIP3    H140496   0.853   4.881   2.628 -0.7984 -0.2526 -2.3955
 6335TIP3    H240497   0.742   4.893   2.730  1.5375  0.6510  0.1345
 6336TIP3   OH240498   2.931   5.941   2.697  0.3113  0.2096 -0.1444
 6336TIP3    H140499   2.963   5.855   2.723  1.2975  0.2133 -1.2768
 6336TIP3    H240500   2.847   5.950   2.742 -0.3505 -1.8226 -0.8748
 6337TIP3   OH240501   6.334   0.930  15.759 -0.2866  0.2089  0.0673
 6337TIP3    H140502   6.246   0.909  15.727 -0.6599  2.5507 -0.6681
 6337TIP3    H240503   6.380   0.964  15.682  0.9990 -0.1624  0.6423
 6338TIP3   OH240504   4.571   2.226  12.211 -0.4266  0.1662 -0.5584
 6338TIP3    H140505   4.617   2.303  12.176  2.8061 -1.5914 -0.5077
 6338TIP3    H240506   4.552   2.249  12.302 -0.5155  1.3156 -0.8489
 6339TIP3   OH240507   6.499   2.085  12.950 -0.1746  0.0022 -0.2351
 6339TIP3    H140508   6.456   2.072  13.034 -0.9349  0.3953 -0.5532
 6339TIP3    H240509   6.506   1.997  12.912  2.2583 -0.5161  1.1970
 6340TIP3   OH240510   2.501   5.949  15.354  0.3874  0.9669 -0.3710
 6340TIP3    H140511   2.420   5.920  15.395  0.7170 -0.4374 -0.6504
 6340TIP3    H240512   2.558   5.972  15.428 -0.2412  1.9220 -0.1758
 6341TIP3   OH240513   2.928   5.469   2.991 -0.0065 -0.0186  0.1812
 6341TIP3    H140514   2.838   5.501   2.978 -0.0568  0.6049  1.7265
 6341TIP3    H240515   2.920   5.374   2.990 -0.6344  0.0287 -0.0051
 6342TIP3   OH240516   2.837   0.857  12.271  0.3438  0.5452  0.4692
 6342TIP3    H140517   2.925   0.852  12.233 -0.7247 -1.0245 -2.0199
 6342TIP3    H240518   2.816   0.951  12.269  1.3787  0.7801 -0.3307
 6343TIP3   OH240519   5.782   0.856   6.468 -0.0176  0.2324 -0.5871
 6343TIP3    H140520   5.806   0.811   6.387  2.0136  0.2171 -0.0291
 6343TIP3    H240521   5.824   0.941   6.462 -1.4821  0.9909 -0.3833
 6344TIP3   OH240522   6.377   1.281   5.472 -0.1306 -0.4495 -0.2853
 6344TIP3    H140523   6.338   1.227   5.404 -0.0943 -0.0183 -0.6502
 6344TIP3    H240524   6.327   1.363   5.470 -1.1661 -0.9926  1.2615
 6345TIP3   OH240525   1.099   4.002   1.279  0.3159  0.1990 -0.2203
 6345TIP3    H140526   1.166   3.945   1.318  0.6236  0.8942  0.3036
 6345TIP3    H240527   1.128   4.091   1.301  0.4679  0.6259 -2.0097
 6346TIP3   OH240528   2.842   5.319  10.295  0.3305 -0.3879 -0.1811
 6346TIP3    H140529   2.927   5.277  10.301 -0.3217 -1.6561  0.6067
 6346TIP3    H240530   2.800   5.279  10.218  0.5815  0.5365 -0.8215
 6347TIP3   OH240531   3.141   6.734  12.634 -0.0322  0.1955 -0.1637
 6347TIP3    H140532   3.146   6.697  12.722 -1.5385  0.6463  0.1436
 6347TIP3    H240533   3.200   6.810  12.636 -0.0663  0.2087  0.4598
 6348TIP3   OH240534   3.910   5.679  12.494  1.1597 -0.6749 -0.2864
 6348TIP3    H140535   3.950   5.724  12.568 -1.4270 -1.0185  1.4390
 6348TIP3    H240536   3.930   5.735  12.418  0.9913  1.5445  1.2079
 6349TIP3   OH240537   5.416   6.309  17.030  0.4440 -0.1639  0.4065
 6349TIP3    H140538   5.401   6.214  17.039  2.4126 -0.5624  0.0632
 6349TIP3    H240539   5.489   6.326  17.090  0.4418  1.0362  0.0766
 6350TIP3   OH240540   1.009   4.635   0.081  0.9538  0.1096  0.1032
 6350TIP3    H140541   0.933   4.692   0.091  0.7578  0.0996 -1.1927
 6350TIP3    H240542   1.003   4.575   0.155 -1.2072 -0.9015 -0.7826
 6351TIP3   OH240543   0.619   0.976  10.321 -0.3005 -0.1178 -0.2564
 6351TIP3    H140544   0.608   0.934  10.236 -1.9694  0.1032 -0.1689
 6351TIP3    H240545   0.701   1.025  10.313 -0.4593 -0.0661 -1.7342
 6352TIP3   OH240546   0.501   4.719  11.028  0.1538 -0.2773 -0.3994
 6352TIP3    H140547   0.439   4.781  10.990 -0.1530 -1.3134 -1.6257
 6352TIP3    H240548   0.500   4.643  10.970  1.9565 -0.6684 -0.0050
 6353TIP3   OH240549   3.794   0.164   0.521  0.2869  0.2166  0.2496
 6353TIP3    H140550   3.740   0.096   0.563  1.0315 -0.4251  0.1829
 6353TIP3    H240551   3.732   0.233   0.500 -0.4785 -0.4082  0.3890
 6354TIP3   OH240552   3.293   1.019  13.012  0.0782  0.2200  0.3271
 6354TIP3    H140553   3.294   0.986  13.101  0.6572 -0.8759 -0.0708
 6354TIP3    H240554   3.335   0.950  12.960  0.1610  1.0328 -0.7206
 6355TIP3   OH240555   6.255   1.811  16.634 -0.0472 -0.5580 -0.6254
 6355TIP3    H140556   6.230   1.903  16.623  0.8264 -0.1352  0.7020
 6355TIP3    H240557   6.174   1.767  16.660 -0.9769 -0.6308 -3.3595
 6356TIP3   OH240558   0.716   2.080  14.457  0.0776  0.0821 -0.1468
 6356TIP3    H140559   0.769   2.057  14.381 -0.6983 -0.9328 -0.4091
 6356TIP3    H240560   0.698   1.996  14.500 -0.0114  0.5768  0.8091
 6357TIP3   OH240561   4.597   2.452  12.771 -0.3968  0.4421  0.6439
 6357TIP3    H140562   4.655   2.497  12.832 -1.0198  0.0285  1.5605
 6357TIP3    H240563   4.548   2.523  12.729 -0.0602  0.7269  0.7290
 6358TIP3   OH240564   3.295   2.646   4.186  0.3058 -0.5555  0.0028
 6358TIP3    H140565   3.271   2.717   4.245 -1.7871 -0.7130 -0.5704
 6358TIP3    H240566   3.226   2.581   4.198  1.9866 -2.3761  0.2725
 6359TIP3   OH240567   0.575   0.938   3.325  0.3250  0.0823 -0.4603
 6359TIP3    H140568   0.662   0.929   3.365  0.5055 -0.3620 -0.9389
 6359TIP3    H240569   0.523   0.986   3.390  1.0750  0.8162 -0.3825
 6360TIP3   OH240570   6.752   0.361  11.167 -0.1631 -0.1987  0.6297
 6360TIP3    H140571   6.708   0.339  11.249  0.3527  0.8094  1.2080
 6360TIP3    H240572   6.750   0.457  11.164 -0.2767 -0.2229 -0.5978
 6361TIP3   OH240573   4.932   5.261   4.593 -0.2222 -0.1858 -0.0172
 6361TIP3    H140574   4.901   5.192   4.534  1.8873 -0.0550 -1.3896
 6361TIP3    H240575   4.961   5.214   4.671 -2.6078 -0.4026  0.8380
 6362TIP3   OH240576   2.555   4.957  13.730 -0.6987 -0.3291 -0.5982
 6362TIP3    H140577   2.483   5.018  13.748 -0.3527 -0.0087 -0.2976
 6362TIP3    H240578   2.512   4.873  13.712 -1.0661 -0.7987  2.0738
 6363TIP3   OH240579   3.489   1.411  12.519 -0.1759 -0.0667 -0.0940
 6363TIP3    H140580   3.515   1.319  12.521 -2.5737 -0.8264 -0.2514
 6363TIP3    H240581   3.571   1.460  12.515  1.1666 -2.1673  0.6194
 6364TIP3   OH240582   3.333   4.276   4.770 -0.0606 -0.1255  0.6343
 6364TIP3    H140583   3.364   4.255   4.682  0.3169  0.9089  0.4996
 6364TIP3    H240584   3.402   4.246   4.828  0.6396  1.0017  0.4207
 6365TIP3   OH240585   3.456   5.362  16.256  0.0099  0.3002 -0.8793
 6365TIP3    H140586   3.420   5.420  16.323 -1.1925 -0.3566 -0.9414
 6365TIP3    H240587   3.397   5.372  16.181  0.3563 -0.2755 -1.2382
 6366TIP3   OH240588   5.400   5.650   4.083  0.6111 -0.1222 -0.1389
 6366TIP3    H140589   5.492   5.641   4.110  0.1748 -3.8421  0.5477
 6366TIP3    H240590   5.354   5.672   4.164  0.7987  1.6808 -0.4720
 6367TIP3   OH240591   5.014   2.523  16.173 -0.6805 -0.5255 -0.4507
 6367TIP3    H140592   4.965   2.502  16.252 -1.4300  0.2363 -0.6956
 6367TIP3    H240593   4.956   2.580  16.123  0.6335  0.8090 -0.5383
 6368TIP3   OH240594   1.560   5.803   1.303 -0.1251 -0.1367 -0.1615
 6368TIP3    H140595   1.629   5.834   1.361 -0.9005  0.3357  0.5181
 6368TIP3    H240596   1.566   5.707   1.308 -0.8278 -0.1156  1.4954
 6369TIP3   OH240597   5.799   0.058  14.942 -0.0806  0.1583  0.3106
 6369TIP3    H140598   5.893   0.078  14.952  0.0090 -0.0660 -0.0724
 6369TIP3    H240599   5.783   0.065  14.848 -0.0583 -1.5339  0.1514
 6370TIP3   OH240600   6.786   0.113  16.047 -0.5442 -0.4334 -0.5477
 6370TIP3    H140601   6.825   0.057  15.980 -1.3500  0.3226 -1.6870
 6370TIP3    H240602   6.693   0.117  16.023 -0.4483  1.6426 -0.7125
 6371TIP3   OH240603   4.394   5.868   0.984 -0.8467  0.1064 -0.3121
 6371TIP3    H140604   4.361   5.897   1.069  0.7760  0.3590  0.2597
 6371TIP3    H240605   4.411   5.774   0.995 -1.6211 -0.0908 -0.7019
 6372TIP3   OH240606   0.189   5.322  14.401  0.5087 -0.2245  0.3208
 6372TIP3    H140607   0.156   5.343  14.488  1.8482 -0.4546  0.9090
 6372TIP3    H240608   0.255   5.390  14.384 -0.6194  0.5963 -1.0789
 6373TIP3   OH240609   3.602   4.653  14.110  0.6731 -0.2825  0.0267
 6373TIP3    H140610   3.557   4.587  14.162  1.8126 -0.3183  1.0305
 6373TIP3    H240611   3.690   4.616  14.096  0.8292  0.3447 -0.7209
 6374TIP3   OH240612   3.251   0.555   2.717 -0.7903 -0.5573 -0.2559
 6374TIP3    H140613   3.213   0.481   2.764 -0.6620 -0.2827  0.2926
 6374TIP3    H240614   3.318   0.589   2.776  0.4147 -1.1250 -1.2789
 6375TIP3   OH240615   6.347   0.811  14.620 -0.2727 -0.6921 -0.1732
 6375TIP3    H140616   6.302   0.821  14.536 -1.6248  0.0834  0.5917
 6375TIP3    H240617   6.396   0.893  14.631  0.3335 -1.0158 -0.4396
 6376TIP3   OH240618   3.094   1.136   1.199 -0.1406 -0.0330 -0.1681
 6376TIP3    H140619   3.082   1.123   1.293  2.5747  1.2475  0.4601
 6376TIP3    H240620   3.016   1.182   1.170 -0.3535  0.9044  1.7974
 6377TIP3   OH240621   0.725   2.115   1.954  0.2049 -0.4802  0.3777
 6377TIP3    H140622   0.652   2.140   2.011  0.3640  1.3484 -0.1309
 6377TIP3    H240623   0.688   2.050   1.894 -0.5314 -0.8485  1.2153
 6378TIP3   OH240624   0.504   3.029  10.938 -0.2403 -0.2777  0.0788
 6378TIP3    H140625   0.551   3.078  10.871 -1.3514  0.0946 -0.4485
 6378TIP3    H240626   0.422   3.002  10.896 -0.6806 -0.5781  1.0872
 6379TIP3   OH240627   5.508   3.947   3.676  0.1466 -0.0153  0.4584
 6379TIP3    H140628   5.430   3.993   3.710 -0.4731 -1.4553  1.0553
 6379TIP3    H240629   5.579   3.976   3.734  0.1364  1.4973 -0.2350
 6380TIP3   OH240630   1.961   1.218   6.051  0.0896  0.1378 -0.0240
 6380TIP3    H140631   1.908   1.267   6.113 -1.3513 -0.7034 -0.5439
 6380TIP3    H240632   1.898   1.169   5.998  0.6890  3.8439 -5.0158
 6381TIP3   OH240633   6.404   6.676   0.258 -0.2579 -0.4279 -0.3089
 6381TIP3    H140634   6.325   6.622   0.267 -0.0882 -0.6903 -0.3743
 6381TIP3    H240635   6.456   6.655   0.335 -0.6538  0.4230  0.2019
 6382TIP3   OH240636   0.140   3.184  14.134  0.2598 -0.6452  0.0612
 6382TIP3    H140637   0.226   3.155  14.163  1.1474  2.3214  0.8214
 6382TIP3    H240638   0.158   3.244  14.061 -1.4011 -1.9174 -1.4941
 6383TIP3   OH240639   5.229   0.171  14.655 -0.6496  0.0087 -0.0403
 6383TIP3    H140640   5.212   0.182  14.749 -0.0444  3.8333 -0.2392
 6383TIP3    H240641   5.302   0.110  14.651  0.2651  0.8619  2.1061
 6384TIP3   OH240642   1.200   5.378  11.572 -0.7474 -0.3438 -0.0026
 6384TIP3    H140643   1.159   5.349  11.490 -0.7739 -1.4456  0.3859
 6384TIP3    H240644   1.181   5.472  11.576 -1.1735 -0.3727 -1.0117
 6385TIP3   OH240645   4.051   3.290   3.135  0.8425 -0.1845 -0.4425
 6385TIP3    H140646   4.047   3.379   3.100 -2.1190 -0.3374 -0.7278
 6385TIP3    H240647   4.066   3.302   3.229  0.6265  0.6090 -0.5001
 6386TIP3   OH240648   1.482   1.915   1.196  0.2245 -0.1607 -0.7139
 6386TIP3    H140649   1.480   1.826   1.233 -0.6722 -0.7942 -2.2168
 6386TIP3    H240650   1.397   1.952   1.218  0.3373  0.0885 -0.6948
 6387TIP3   OH240651   5.453   4.013   1.063  0.0941  0.3607  0.0070
 6387TIP3    H140652   5.408   3.946   1.011  3.1503 -1.7360 -0.1650
 6387TIP3    H240653   5.396   4.027   1.138 -1.6909 -0.7847 -1.0581
 6388TIP3   OH240654   2.965   5.540  15.254 -0.2224 -0.1721  0.2493
 6388TIP3    H140655   2.990   5.448  15.255 -2.0198 -0.7004  1.0394
 6388TIP3    H240656   2.931   5.556  15.166  0.4792 -0.1365 -0.0191
 6389TIP3   OH240657   3.610   6.274  13.296 -0.0566 -0.0217  0.2385
 6389TIP3    H140658   3.606   6.184  13.327  0.3887 -0.1566 -0.0898
 6389TIP3    H240659   3.664   6.271  13.218  0.2323  0.5803  0.4055
 6390TIP3   OH240660   2.613   1.414  15.596 -0.2847  0.2815  0.1073
 6390TIP3    H140661   2.633   1.343  15.535  1.3701 -0.2482  1.2111
 6390TIP3    H240662   2.616   1.493  15.543  1.6589 -0.1084 -0.4196
 6391TIP3   OH240663   4.761   5.892  14.471  0.1203 -0.1720  0.5194
 6391TIP3    H140664   4.836   5.950  14.484  0.5210 -0.9772  1.9766
 6391TIP3    H240665   4.786   5.837  14.397  1.3984 -1.0676  1.5842
 6392TIP3   OH240666   3.660   4.085  11.546  0.0586  0.1874  0.4784
 6392TIP3    H140667   3.709   4.018  11.499 -1.5085 -1.0510  0.5550
 6392TIP3    H240668   3.674   4.064  11.638 -0.8491 -0.3589  0.4976
 6393TIP3   OH240669   3.754   1.895  17.276  0.5085  0.3380  0.3178
 6393TIP3    H140670   3.678   1.914  17.220 -0.9654 -0.4811  1.9458
 6393TIP3    H240671   3.815   1.850  17.218 -1.4624 -1.5700 -0.4357
 6394TIP3   OH240672   1.804   3.303  16.492  0.0989  0.3274  0.2676
 6394TIP3    H140673   1.728   3.280  16.545 -0.5941  1.0141 -0.4063
 6394TIP3    H240674   1.768   3.350  16.417  1.1694  0.4650 -0.1807
 6395TIP3   OH240675   0.996   3.620  16.195 -0.1378 -0.0840  0.6309
 6395TIP3    H140676   1.053   3.589  16.265  1.4887  2.3061  0.5056
 6395TIP3    H240677   1.055   3.667  16.135 -1.6809 -0.8493 -1.6290
 6396TIP3   OH240678   6.690   0.469  12.622 -0.0560 -0.5893  0.2680
 6396TIP3    H140679   6.754   0.463  12.551  0.0625 -3.8246  0.5121
 6396TIP3    H240680   6.608   0.494  12.579  1.0296  2.6493 -0.1737
 6397TIP3   OH240681   4.737   5.351  12.428  0.9615 -0.1433 -0.6487
 6397TIP3    H140682   4.754   5.351  12.333  1.6768  0.8815 -0.5290
 6397TIP3    H240683   4.674   5.422  12.441 -0.3061 -1.2460 -0.5315
 6398TIP3   OH240684   1.985   3.132  15.167  0.3236 -0.3606 -0.2193
 6398TIP3    H140685   1.942   3.046  15.162  1.5853 -0.9992 -0.6732
 6398TIP3    H240686   2.067   3.114  15.213  0.4670  0.6734 -0.0582
 6399TIP3   OH240687   2.810   0.841  13.369 -0.8056  0.1996 -0.3099
 6399TIP3    H140688   2.766   0.795  13.297 -3.1907  1.6472  0.0934
 6399TIP3    H240689   2.902   0.817  13.360 -1.5421 -2.6244 -1.5675
 6400TIP3   OH240690   5.315   4.888  16.558  0.1892 -0.5397  0.5932
 6400TIP3    H140691   5.303   4.811  16.503  1.5923  0.2780 -0.9204
 6400TIP3    H240692   5.329   4.852  16.646 -0.8207 -1.9195  0.2263
 6401TIP3   OH240693   3.824   0.417   5.073 -0.4190 -0.6024 -0.1068
 6401TIP3    H140694   3.779   0.363   5.008  0.5008 -0.8000 -0.5963
 6401TIP3    H240695   3.791   0.506   5.058  0.2280 -0.5412 -1.2552
 6402TIP3   OH240696   4.057   0.652  14.356  0.0893  0.7299 -0.1448
 6402TIP3    H140697   4.027   0.736  14.391 -1.7591  0.0645 -0.0432
 6402TIP3    H240698   3.978   0.598  14.351  1.4817 -1.6914  1.6477
 6403TIP3   OH240699   2.210   4.272   4.857 -0.1349  0.2040 -0.1858
 6403TIP3    H140700   2.277   4.313   4.911 -0.7131  1.6840 -0.5159
 6403TIP3    H240701   2.253   4.197   4.816  2.0846  2.4212 -2.2188
 6404TIP3   OH240702   5.444   4.125  13.817  0.0862  0.1177  0.4125
 6404TIP3    H140703   5.412   4.036  13.835 -1.3623  0.9284  2.1289
 6404TIP3    H240704   5.486   4.151  13.899 -0.5990  1.4652  0.3485
 6405TIP3   OH240705   0.732   2.233   4.997 -0.3266 -0.7243  0.0728
 6405TIP3    H140706   0.780   2.302   4.951 -0.5625  1.5371  2.9962
 6405TIP3    H240707   0.642   2.264   5.001 -0.1720 -0.3959  2.6792
 6406TIP3   OH240708   2.879   3.886  14.661  0.0822 -0.1182 -0.3090
 6406TIP3    H140709   2.943   3.889  14.732 -0.3411 -0.7367  0.1111
 6406TIP3    H240710   2.797   3.913  14.702 -0.1350 -0.3346 -0.5981
 6407TIP3   OH240711   1.886   6.746   4.611 -0.2251  0.3027 -0.4126
 6407TIP3    H140712   1.927   6.700   4.539  2.1099 -0.6501  1.3895
 6407TIP3    H240713   1.811   6.692   4.635  0.3337 -0.6042 -0.6658
 6408TIP3   OH240714   0.732   2.894  11.798  0.6843 -0.3820 -0.5204
 6408TIP3    H140715   0.753   2.809  11.836  0.8665 -0.4891 -0.8602
 6408TIP3    H240716   0.636   2.899  11.801  0.5766 -1.2863 -1.9860
 6409TIP3   OH240717   0.942   1.403  14.604  0.2241  0.2636  0.3645
 6409TIP3    H140718   0.995   1.411  14.525 -0.7725  0.1241 -0.3513
 6409TIP3    H240719   0.925   1.309  14.612 -0.3998  0.3535  0.2229
 6410TIP3   OH240720   0.804   2.348   0.413 -0.7491  0.8909 -0.0068
 6410TIP3    H140721   0.734   2.369   0.474 -1.3231  1.4868 -0.8492
 6410TIP3    H240722   0.773   2.380   0.328  0.7503  1.6316 -0.3145
 6411TIP3   OH240723   4.858   5.684  14.316 -0.6448  0.4909  0.4167
 6411TIP3    H140724   4.844   5.611  14.376 -0.6865 -0.0035 -0.1816
 6411TIP3    H240725   4.923   5.651  14.253  0.2854  1.4048  0.8684
 6412TIP3   OH240726   0.503   6.016   2.298  0.2151  0.5066 -0.8218
 6412TIP3    H140727   0.499   6.097   2.347 -2.0349 -1.4149  2.5784
 6412TIP3    H240728   0.447   6.031   2.222 -1.7432  1.6239  0.7591
 6413TIP3   OH240729   6.628   4.503  14.776  0.2932 -0.2518 -0.0569
 6413TIP3    H140730   6.544   4.494  14.732  1.2492  0.4368 -2.1438
 6413TIP3    H240731   6.680   4.429  14.744  1.0268  0.2730 -0.1027
 6414TIP3   OH240732   2.956   4.519  11.045 -0.2627  0.1599 -0.4193
 6414TIP3    H140733   2.933   4.562  10.963 -0.6159  1.7749  0.4844
 6414TIP3    H240734   3.052   4.515  11.044 -0.2967 -1.5111 -1.6915
 6415TIP3   OH240735   0.828   1.766   3.558 -0.1914 -0.2130  0.0896
 6415TIP3    H140736   0.815   1.860   3.543 -1.8405 -0.5887 -1.1569
 6415TIP3    H240737   0.785   1.749   3.641 -0.7003 -0.0252 -0.1330
 6416TIP3   OH240738   3.268   5.724  15.572 -0.1305 -0.6814 -0.0542
 6416TIP3    H140739   3.250   5.632  15.551 -0.2869 -1.1511  1.9392
 6416TIP3    H240740   3.181   5.763  15.583 -0.0541 -0.7066  0.6779
 6417TIP3   OH240741   0.194   0.834  15.849  0.0191  0.0295  0.0931
 6417TIP3    H140742   0.244   0.915  15.841 -0.7393  0.3295 -2.5706
 6417TIP3    H240743   0.172   0.828  15.942  1.4320  2.0209  0.6186
 6418TIP3   OH240744   6.655   6.511   6.614  0.1937  0.0393 -0.0216
 6418TIP3    H140745   6.742   6.481   6.640  0.2337  0.0450 -0.1455
 6418TIP3    H240746   6.658   6.511   6.518  0.1901  0.4177 -0.0262
 6419TIP3   OH240747   2.945   4.887   4.612  0.5387  0.2656 -0.1049
 6419TIP3    H140748   2.872   4.945   4.632  0.6254  0.4367 -0.2784
 6419TIP3    H240749   2.990   4.875   4.696 -0.7808 -1.3885  0.4217
 6420TIP3   OH240750   4.694   2.894  12.052 -0.1752 -0.2896 -0.1837
 6420TIP3    H140751   4.652   2.915  11.968 -0.7498  3.2776  0.8517
 6420TIP3    H240752   4.652   2.813  12.080 -1.9735 -0.0809 -2.0462
 6421TIP3   OH240753   1.010   1.923   2.621  0.3765 -0.0761  0.1763
 6421TIP3    H140754   1.031   1.847   2.676 -2.5857 -2.8792 -2.1387
 6421TIP3    H240755   1.065   1.913   2.544 -1.7150 -1.5089 -1.2558
 6422TIP3   OH240756   2.268   5.317  11.908  1.2552 -0.0619 -0.4789
 6422TIP3    H140757   2.206   5.356  11.970  3.4925  4.4777 -0.6755
 6422TIP3    H240758   2.212   5.277  11.841 -1.3110  0.4545  1.1807
 6423TIP3   OH240759   0.806   0.886  11.789 -0.6157 -0.2506  0.0777
 6423TIP3    H140760   0.775   0.808  11.743 -3.2878  1.4632 -1.3112
 6423TIP3    H240761   0.787   0.868  11.881  1.5033 -2.3021  0.2090
 6424TIP3   OH240762   0.314   0.091  15.880  0.8047  0.0762 -0.0176
 6424TIP3    H140763   0.351   0.037  15.950  2.5433 -0.2522 -1.1358
 6424TIP3    H240764   0.285   0.028  15.814  3.4210  0.4055 -1.6156
 6425TIP3   OH240765   1.990   0.313  14.541  0.7971 -0.3561 -0.1378
 6425TIP3    H140766   2.055   0.251  14.506  0.7314  0.2682 -1.4148
 6425TIP3    H240767   1.918   0.258  14.570  1.7947 -1.0488  1.1182
 6426TIP3   OH240768   2.094   4.807  17.244 -0.5525 -0.5542  0.5459
 6426TIP3    H140769   2.098   4.715  17.217 -2.0520 -0.1760 -1.2184
 6426TIP3    H240770   2.048   4.851  17.172 -1.9406  1.1792  2.3594
 6427TIP3   OH240771   3.009   3.975   0.153  0.6829  0.2801  0.3022
 6427TIP3    H140772   3.072   3.963   0.224  0.6660  0.6814  0.3906
 6427TIP3    H240773   2.955   3.896   0.154 -0.2796  0.9385  1.7117
 6428TIP3   OH240774   2.959   2.161  14.435  0.3338  0.1086 -0.5488
 6428TIP3    H140775   3.009   2.106  14.495 -2.0004 -1.4061  0.1404
 6428TIP3    H240776   3.015   2.171  14.358  2.2254 -0.3025  0.7208
 6429TIP3   OH240777   0.746   0.876  14.136  0.1385 -0.0595  0.0619
 6429TIP3    H140778   0.800   0.869  14.057  1.3753 -0.0794  0.8771
 6429TIP3    H240779   0.790   0.942  14.190 -0.5172 -0.2472  0.8501
 6430TIP3   OH240780   5.402   2.347   6.046 -0.0318  0.1576 -0.7379
 6430TIP3    H140781   5.464   2.274   6.054  0.2453  0.4768  0.1916
 6430TIP3    H240782   5.339   2.333   6.116  0.1189  0.8890 -0.4394
 6431TIP3   OH240783   5.479   0.920   1.641 -0.2738 -0.2456  0.0397
 6431TIP3    H140784   5.396   0.967   1.649 -1.1988 -2.0376  2.0972
 6431TIP3    H240785   5.453   0.830   1.619  1.2915 -0.3476 -1.5956
 6432TIP3   OH240786   0.681   4.412   6.021  0.3945 -0.7145  0.2573
 6432TIP3    H140787   0.719   4.328   5.999  0.6744 -0.2174 -1.2715
 6432TIP3    H240788   0.742   4.450   6.084  2.3465 -0.0828 -1.8698
 6433TIP3   OH240789   6.027   4.577  15.521  0.1829 -0.1152  0.7455
 6433TIP3    H140790   6.122   4.586  15.533  0.5934 -2.5451 -0.0042
 6433TIP3    H240791   6.017   4.542  15.432 -1.4218 -0.0123  0.8500
 6434TIP3   OH240792   6.677   2.267  11.373 -0.4850  0.4240 -0.2607
 6434TIP3    H140793   6.749   2.215  11.407  0.2013  1.2243 -0.4607
 6434TIP3    H240794   6.711   2.308  11.293 -0.6577  1.9223  0.3873
 6435TIP3   OH240795   3.333   4.474  11.800 -0.2956 -0.0302  0.0031
 6435TIP3    H140796   3.290   4.539  11.745 -2.4167 -1.3770 -0.0210
 6435TIP3    H240797   3.372   4.413  11.737 -1.9917 -1.1033 -0.0391
 6436TIP3   OH240798   1.008   3.938  15.422  0.0380  0.0897  0.2599
 6436TIP3    H140799   1.010   3.847  15.451 -0.3418 -0.4804 -1.3638
 6436TIP3    H240800   1.095   3.972  15.442 -0.2540 -0.1546  2.1854
 6437TIP3   OH240801   0.830   0.577  16.803 -1.0520 -0.2464 -0.0602
 6437TIP3    H140802   0.860   0.501  16.853 -0.0481 -0.7796 -1.4076
 6437TIP3    H240803   0.803   0.640  16.869 -0.6397 -1.2749  1.1285
 6438TIP3   OH240804   6.085   1.829   3.671  0.0346  0.7902  0.1867
 6438TIP3    H140805   6.057   1.835   3.763 -0.0792 -1.4002  0.3695
 6438TIP3    H240806   6.006   1.844   3.620 -0.5387 -0.7345  0.5705
 6439TIP3   OH240807   0.150   6.015  14.726 -0.2946  0.2473 -0.5138
 6439TIP3    H140808   0.111   5.935  14.690  1.0857 -0.0843 -1.3361
 6439TIP3    H240809   0.148   6.078  14.654  0.7488  0.1945 -0.6044
 6440TIP3   OH240810   6.005   0.625  15.043  0.1290  0.2539  0.0039
 6440TIP3    H140811   5.923   0.614  15.092  0.2216  0.5294  0.2238
 6440TIP3    H240812   6.030   0.536  15.017  0.0610  0.1076  0.4306
 6441TIP3   OH240813   3.920   4.439   5.196  0.8058 -1.0138 -0.2238
 6441TIP3    H140814   3.829   4.466   5.208  0.6679 -1.0487 -1.1208
 6441TIP3    H240815   3.951   4.419   5.284  0.1371 -0.3985  0.1635
 6442TIP3   OH240816   3.445   4.465  12.287  0.2521  0.2073 -0.4992
 6442TIP3    H140817   3.399   4.408  12.348 -0.5019 -0.2716 -1.4928
 6442TIP3    H240818   3.408   4.552  12.303 -0.2640  0.0059 -0.5770
 6443TIP3   OH240819   0.615   5.164   6.413 -0.5733  0.0972 -0.3582
 6443TIP3    H140820   0.655   5.077   6.414  0.9626  0.7826  0.5753
 6443TIP3    H240821   0.678   5.220   6.458 -1.8851  1.5490 -0.2582
 6444TIP3   OH240822   4.008   1.636   4.090 -0.4815  0.0434 -0.6066
 6444TIP3    H140823   4.073   1.566   4.095 -1.7194 -1.0421  1.4977
 6444TIP3    H240824   3.945   1.605   4.025 -0.7217 -0.5591 -0.0992
 6445TIP3   OH240825   6.588   0.637   0.821  0.1205  0.7023  0.8621
 6445TIP3    H140826   6.579   0.722   0.779 -2.8942  0.2939  0.4722
 6445TIP3    H240827   6.543   0.646   0.905 -0.2036 -0.4919  0.8340
 6446TIP3   OH240828   2.902   0.477  15.232  0.2291 -0.5635 -0.2909
 6446TIP3    H140829   2.827   0.434  15.275  0.1824 -1.2853 -1.0680
 6446TIP3    H240830   2.943   0.407  15.181  0.8045  0.0806 -0.7202
 6447TIP3   OH240831   6.170   5.270   1.652 -1.2756  0.1987 -0.3351
 6447TIP3    H140832   6.225   5.206   1.606 -1.1432  0.4819 -0.5722
 6447TIP3    H240833   6.084   5.227   1.658 -1.1932  0.0053 -0.5103
 6448TIP3   OH240834   2.290   5.778  13.389  0.1207  0.7577 -0.2324
 6448TIP3    H140835   2.323   5.803  13.476  0.6918 -1.1920  0.1595
 6448TIP3    H240836   2.357   5.809  13.328 -0.7693  3.0579 -0.1235
 6449TIP3   OH240837   4.362   0.468  10.820  0.1468  0.5265  0.1516
 6449TIP3    H140838   4.331   0.531  10.755  1.1010 -0.6713 -1.5484
 6449TIP3    H240839   4.306   0.391  10.807  1.2410 -0.2225 -0.2558
 6450TIP3   OH240840   4.829   5.636   3.274 -0.4602 -0.1737  0.0074
 6450TIP3    H140841   4.781   5.711   3.239 -0.2598  0.9240  1.9399
 6450TIP3    H240842   4.907   5.674   3.315  1.0715 -1.7242 -1.3036
 6451TIP3   OH240843   5.070   0.836   0.245  0.7786 -0.8320 -0.4008
 6451TIP3    H140844   5.052   0.804   0.334 -1.0774  0.7493 -0.1210
 6451TIP3    H240845   5.117   0.918   0.259  1.5094 -1.1621 -0.9265
 6452TIP3   OH240846   3.104   5.327   5.099  0.3867  0.3125 -0.0777
 6452TIP3    H140847   3.045   5.338   5.173  1.5460  0.2570  0.8750
 6452TIP3    H240848   3.056   5.364   5.025 -0.9830 -0.0766  0.5897
 6453TIP3   OH240849   1.975   5.577   4.713 -1.1652 -0.0958 -0.1650
 6453TIP3    H140850   1.947   5.562   4.803 -0.4854  0.0131  0.0718
 6453TIP3    H240851   2.070   5.589   4.719 -1.0627 -0.4296 -0.9365
 6454TIP3   OH240852   6.275   0.262   0.937  0.5228  0.0901  0.6563
 6454TIP3    H140853   6.211   0.327   0.967 -0.0167 -0.3512  0.4792
 6454TIP3    H240854   6.283   0.279   0.843 -1.2551 -1.4724  0.1807
 6455TIP3   OH240855   4.270   0.496  15.439  0.6264  0.0130  0.2802
 6455TIP3    H140856   4.279   0.545  15.521 -0.2117 -0.1396  0.4742
 6455TIP3    H240857   4.208   0.425  15.460  0.1199  0.1904 -0.5765
 6456TIP3   OH240858   3.665   3.424  14.634 -0.1351  0.5110 -0.0251
 6456TIP3    H140859   3.657   3.434  14.539  0.7815 -0.7329 -0.2636
 6456TIP3    H240860   3.738   3.363  14.645 -2.0098 -1.6740  1.3377
 6457TIP3   OH240861   5.971   5.988   5.294  0.4233  0.5116  0.6107
 6457TIP3    H140862   5.897   5.930   5.277 -0.5265  1.5210  1.1724
 6457TIP3    H240863   6.044   5.929   5.315 -0.3141 -0.4794  0.4526
 6458TIP3   OH240864   1.200   3.340  16.657  0.0944 -0.4082  0.3540
 6458TIP3    H140865   1.199   3.410  16.722  0.7061  0.0079 -0.0818
 6458TIP3    H240866   1.242   3.378  16.580  2.1313 -1.7652  0.7133
 6459TIP3   OH240867   5.119   0.622   4.015  0.6863 -0.1302 -0.6119
 6459TIP3    H140868   5.089   0.620   3.924 -2.6757  1.9606  0.2880
 6459TIP3    H240869   5.067   0.556   4.059  0.5621  0.4909  0.1976
 6460TIP3   OH240870   1.159   4.045  16.482  0.0845 -0.5621  0.2437
 6460TIP3    H140871   1.204   3.977  16.432  1.9787  0.4280  0.5198
 6460TIP3    H240872   1.223   4.075  16.546 -0.5293  1.7769 -0.1359
 6461TIP3   OH240873   2.545   6.204   3.632 -0.3375  0.0483  0.0159
 6461TIP3    H140874   2.563   6.298   3.634 -2.5339  0.5532 -0.9186
 6461TIP3    H240875   2.489   6.192   3.555  1.9245 -2.4604 -1.4316
 6462TIP3   OH240876   5.358   3.536  12.859  0.2423 -0.0258 -0.0105
 6462TIP3    H140877   5.330   3.449  12.887  0.4286  0.0764  0.5067
 6462TIP3    H240878   5.438   3.520  12.808  0.9821 -0.0638  1.1355
 6463TIP3   OH240879   5.074   0.912  16.291  0.3492 -0.3081 -0.1210
 6463TIP3    H140880   5.103   0.821  16.282  3.8740  0.8806 -2.7524
 6463TIP3    H240881   5.040   0.935  16.205  1.1454  1.3209 -0.0427
 6464TIP3   OH240882   1.813   4.547   4.717  0.6507 -0.5506  0.2147
 6464TIP3    H140883   1.893   4.497   4.732  1.5763  0.4477 -1.1160
 6464TIP3    H240884   1.809   4.559   4.622 -0.2725  0.7000  0.3753
 6465TIP3   OH240885   3.890   0.227  12.948  0.2805  0.3690 -0.0198
 6465TIP3    H140886   3.823   0.222  13.017 -1.0392  0.9492 -1.2246
 6465TIP3    H240887   3.893   0.139  12.911  0.5378  0.2206  0.3473
 6466TIP3   OH240888   5.233   4.661   1.529  0.1296 -0.8806  0.3985
 6466TIP3    H140889   5.231   4.614   1.613 -1.4686 -1.1540  0.2447
 6466TIP3    H240890   5.154   4.715   1.530  0.5240 -0.2508 -0.5933
 6467TIP3   OH240891   4.844   5.008   6.377  0.0969 -0.2738 -0.1825
 6467TIP3    H140892   4.790   4.956   6.435  0.7197  0.6355  1.2684
 6467TIP3    H240893   4.915   5.041   6.432 -0.2747  2.1107 -1.0108
 6468TIP3   OH240894   4.946   3.321  16.886 -0.2135 -0.5349 -0.4797
 6468TIP3    H140895   4.960   3.233  16.853 -1.5997 -0.5055 -1.2385
 6468TIP3    H240896   4.865   3.350  16.844 -0.0117  0.9473  0.0684
 6469TIP3   OH240897   4.715   5.042  12.989  0.2515 -0.0417  0.0220
 6469TIP3    H140898   4.806   5.063  13.008  0.2293  0.0898 -0.0162
 6469TIP3    H240899   4.717   4.998  12.904 -0.2223  4.6460 -2.7392
 6470TIP3   OH240900   4.455   5.510   4.924  0.3261  0.2536 -0.5638
 6470TIP3    H140901   4.475   5.442   4.988 -0.8843  1.4157  1.1507
 6470TIP3    H240902   4.381   5.476   4.874 -0.9416  0.6365  0.9591
 6471TIP3   OH240903   4.385   1.501  15.783 -0.1741 -0.5527  0.1219
 6471TIP3    H140904   4.327   1.554  15.838 -1.0939 -1.8879  0.4770
 6471TIP3    H240905   4.424   1.564  15.722 -1.7236  0.4388  0.0976
 6472TIP3   OH240906   0.643   3.202  16.867  0.3474 -0.5739  0.1878
 6472TIP3    H140907   0.578   3.189  16.798 -0.4716 -0.4400  0.9092
 6472TIP3    H240908   0.592   3.202  16.948  1.0712  0.8662  0.6855
 6473TIP3   OH240909   3.498   2.777  16.703 -0.5053  0.1992 -0.5136
 6473TIP3    H140910   3.591   2.801  16.714 -0.2610 -0.0676 -1.8945
 6473TIP3    H240911   3.488   2.700  16.759 -0.7952  2.1395  2.3634
 6474TIP3   OH240912   3.493   3.411  13.444 -0.2421 -0.5177  0.5960
 6474TIP3    H140913   3.450   3.326  13.434  0.6000 -0.9748  0.7414
 6474TIP3    H240914   3.467   3.441  13.531 -0.6016 -0.5876  0.5152
 6475TIP3   OH240915   6.071   5.856   2.976 -0.2465 -0.1559  0.5838
 6475TIP3    H140916   6.044   5.922   2.913  2.7112 -0.2239 -0.9116
 6475TIP3    H240917   6.035   5.774   2.942 -0.5342  0.1153  0.2261
 6476TIP3   OH240918   3.982   1.441  15.652  0.3355  0.2493  0.5263
 6476TIP3    H140919   3.922   1.454  15.579  0.3782 -0.4238  0.3632
 6476TIP3    H240920   3.931   1.461  15.730  0.2615  0.8750  0.3239
 6477TIP3   OH240921   5.091   0.418  14.935 -0.6010  0.0182  0.4303
 6477TIP3    H140922   5.126   0.448  15.019  1.0874  2.1848 -0.9215
 6477TIP3    H240923   5.014   0.366  14.958 -0.7238  1.2694  3.2554
 6478TIP3   OH240924   1.513   2.415  16.381 -0.4801  0.1184 -0.4488
 6478TIP3    H140925   1.450   2.454  16.320 -1.7950 -0.7838  0.2614
 6478TIP3    H240926   1.461   2.352  16.431  0.6991  0.3194  1.1194
 6479TIP3   OH240927   3.334   5.028   1.367 -0.1144 -0.2363  0.3366
 6479TIP3    H140928   3.383   5.016   1.286 -0.3718 -1.1593  0.3039
 6479TIP3    H240929   3.400   5.053   1.432  0.0874  0.5115 -0.1562
 6480TIP3   OH240930   5.387   4.576   2.542 -0.0497  0.2326  0.1104
 6480TIP3    H140931   5.350   4.557   2.628  0.1406  2.2616  0.6843
 6480TIP3    H240932   5.322   4.633   2.500  1.0744  1.4656  0.0009
 6481TIP3   OH240933   4.785   3.239  14.474  0.4715 -0.3903 -0.6021
 6481TIP3    H140934   4.724   3.174  14.438  1.1520 -1.6021  0.3316
 6481TIP3    H240935   4.797   3.213  14.566  2.0745  0.0274 -0.6535
 6482TIP3   OH240936   2.065   6.006  13.912  0.1144 -0.0875  0.0222
 6482TIP3    H140937   1.998   6.055  13.960 -0.8405 -0.5570 -0.8047
 6482TIP3    H240938   2.072   5.922  13.958 -1.9550 -1.1793 -1.5261
 6483TIP3   OH240939   2.108   6.084   4.967  0.2017  0.2668 -0.0705
 6483TIP3    H140940   2.112   6.091   5.062 -0.0114  1.9457 -0.1456
 6483TIP3    H240941   2.179   6.024   4.944  0.7735  0.4647  1.0842
 6484TIP3   OH240942   4.241   0.722   4.447  0.0302  0.1523  0.0390
 6484TIP3    H140943   4.177   0.792   4.431  2.0784  2.3534  0.9764
 6484TIP3    H240944   4.240   0.709   4.541 -0.4531 -1.2944 -0.1351
 6485TIP3   OH240945   3.061   5.382   1.074 -0.6271  0.2150 -0.2013
 6485TIP3    H140946   3.137   5.340   1.115 -0.0620  0.1321 -1.3181
 6485TIP3    H240947   3.071   5.475   1.093 -0.6949  0.1104  0.3641
 6486TIP3   OH240948   2.099   2.040   1.478 -0.0484  0.2336  0.2062
 6486TIP3    H140949   2.057   2.122   1.451  0.5013  0.1237 -1.0839
 6486TIP3    H240950   2.032   1.994   1.528 -1.6202 -0.0401 -1.9909
 6487TIP3   OH240951   1.951   1.407  14.967 -0.4169 -0.3778  0.3143
 6487TIP3    H140952   1.976   1.407  15.059  0.9344 -1.9416  0.0081
 6487TIP3    H240953   1.954   1.499  14.941 -3.0220  0.3908  2.3227
 6488TIP3   OH240954   3.103   4.372  12.856 -0.7116  0.0576  0.3293
 6488TIP3    H140955   3.183   4.423  12.867 -0.1459 -0.7366 -0.0037
 6488TIP3    H240956   3.047   4.399  12.929 -0.5141  1.2951  0.0403
 6489TIP3   OH240957   5.066   0.950  17.150  0.1369 -0.1640 -0.0657
 6489TIP3    H140958   5.128   0.948  17.222  0.2632 -0.6404 -0.1849
 6489TIP3    H240959   4.980   0.937  17.191  0.1675 -0.0330  0.0400
 6490TIP3   OH240960   5.166   2.468  14.912 -0.0578 -0.6671  0.4238
 6490TIP3    H140961   5.149   2.554  14.873  1.1488 -0.6842 -0.1758
 6490TIP3    H240962   5.108   2.465  14.988 -0.3002  0.5769  0.3168
 6491TIP3   OH240963   2.747   4.059   4.074 -0.1334 -0.7174  0.4139
 6491TIP3    H140964   2.781   4.030   4.159  0.8852 -1.7291 -0.3030
 6491TIP3    H240965   2.758   3.983   4.017 -2.8529 -0.7953 -0.1079
 6492TIP3   OH240966   4.342   5.547   6.031  0.2784  0.3790 -0.2192
 6492TIP3    H140967   4.269   5.606   6.048  0.8499  0.5882  1.7177
 6492TIP3    H240968   4.377   5.526   6.117  0.3730 -2.4915 -0.8735
 6493TIP3   OH240969   5.381   0.499  16.921  0.5218 -0.2181 -0.3448
 6493TIP3    H140970   5.431   0.546  16.988  1.0045  0.7092 -1.3119
 6493TIP3    H240971   5.409   0.408  16.929 -0.6724 -0.4615  1.7985
 6494TIP3   OH240972   2.665   4.545   3.245 -0.0198 -0.2481 -0.5221
 6494TIP3    H140973   2.746   4.576   3.204  0.3202 -0.2547  0.1202
 6494TIP3    H240974   2.668   4.450   3.236  0.7467 -0.3657  0.7274
 6495TIP3   OH240975   5.958   0.501   5.538  0.1758 -0.0286 -1.2497
 6495TIP3    H140976   5.970   0.407   5.523  0.5949 -0.2508  0.2988
 6495TIP3    H240977   5.896   0.506   5.611 -0.4938  0.9260 -1.8575
 6496TIP3   OH240978   6.154   0.429   3.932  0.3570  0.1163  0.4270
 6496TIP3    H140979   6.230   0.470   3.973  0.2240  0.0848  0.7097
 6496TIP3    H240980   6.085   0.496   3.935  0.2914  0.0490  0.4249
 6497TIP3   OH240981   0.981   5.169   2.638  0.1092 -0.3078 -0.1996
 6497TIP3    H140982   0.905   5.208   2.595 -0.6778  0.6274  1.8868
 6497TIP3    H240983   1.007   5.098   2.580 -1.2549  0.4596 -1.8567
 6498TIP3   OH240984   3.436   6.660   1.443 -0.2118 -0.5009  0.2780
 6498TIP3    H140985   3.415   6.677   1.535 -2.0147 -0.6653 -0.0676
 6498TIP3    H240986   3.378   6.717   1.394 -0.4813 -1.6246 -0.7678
 6499TIP3   OH240987   3.623   3.753  11.615  0.1989 -0.0138 -0.4148
 6499TIP3    H140988   3.643   3.660  11.610  0.0584 -0.0211 -0.9159
 6499TIP3    H240989   3.704   3.797  11.590 -0.2641 -0.0381 -2.0884
 6500TIP3   OH240990   6.802   1.033   3.077  0.3765  0.4431 -0.3528
 6500TIP3    H140991   6.769   1.093   3.011  1.0849 -0.8720 -1.9710
 6500TIP3    H240992   6.730   1.024   3.140 -0.8581  0.6146 -1.6995
 6501TIP3   OH240993   2.898   1.667  15.955  0.1983  0.0382  0.1312
 6501TIP3    H140994   2.832   1.722  15.913 -0.6720 -0.0485  1.3407
 6501TIP3    H240995   2.941   1.622  15.883 -0.3742  0.8599 -0.7479
 6502TIP3   OH240996   5.825   6.314  16.049 -0.2037 -0.2627 -0.1282
 6502TIP3    H140997   5.786   6.267  15.975 -0.2973 -2.6446  1.3571
 6502TIP3    H240998   5.919   6.302  16.038 -0.2430 -1.1374  0.4504
 6503TIP3   OH240999   2.555   2.797  13.335 -0.0876 -0.3896  0.0878
 6503TIP3    H141000   2.470   2.840  13.336 -0.9354 -1.9876  1.2983
 6503TIP3    H241001   2.538   2.710  13.370  2.1714 -0.5354  0.9623
 6504TIP3   OH241002   5.427   5.673   4.835 -0.8175 -0.3206 -0.6609
 6504TIP3    H141003   5.471   5.736   4.777  1.2031 -0.9000  0.1696
 6504TIP3    H241004   5.459   5.587   4.806  0.4723 -0.6092  1.4211
 6505TIP3   OH241005   3.890   6.623  12.377  0.0215 -0.2265 -0.4284
 6505TIP3    H141006   3.961   6.626  12.441  0.1377  0.8574 -0.5850
 6505TIP3    H241007   3.904   6.541  12.330  2.2649  0.7380 -1.6520
 6506TIP3   OH241008   0.390   6.676  16.686 -0.1328  0.0585 -0.6421
 6506TIP3    H141009   0.313   6.661  16.741 -0.6771 -1.1597 -1.6831
 6506TIP3    H241010   0.462   6.685  16.748 -1.2720  2.7544  0.4603
 6507TIP3   OH241011   0.410   4.348  11.837  0.1100  0.3010 -0.7674
 6507TIP3    H141012   0.388   4.306  11.920  1.3221  0.4908 -0.3317
 6507TIP3    H241013   0.341   4.414  11.825 -0.9126 -0.7151 -0.6785
 6508TIP3   OH241014   5.964   2.552  12.825 -0.2152  0.3540  0.3867
 6508TIP3    H141015   5.955   2.480  12.763  0.5983  0.5832 -0.0184
 6508TIP3    H241016   6.055   2.581  12.815  0.0585  0.1390  1.9719
 6509TIP3   OH241017   1.428   1.279   1.159  1.1944  0.4859  0.1837
 6509TIP3    H141018   1.478   1.337   1.102  0.0912 -0.0081 -1.3456
 6509TIP3    H241019   1.431   1.194   1.115  1.1019 -0.1606  1.3637
 6510TIP3   OH241020   2.213   3.650  14.652  0.2392  0.1798  0.1174
 6510TIP3    H141021   2.185   3.668  14.742 -1.4420  1.6654 -0.6529
 6510TIP3    H241022   2.133   3.624  14.607  1.1141 -0.7986 -0.9082
 6511TIP3   OH241023   0.243   5.283  15.179 -0.0780 -0.3064 -0.5202
 6511TIP3    H141024   0.282   5.196  15.190  0.2638 -0.0726  0.1459
 6511TIP3    H241025   0.251   5.300  15.085 -2.0403 -1.8604 -1.0210
 6512TIP3   OH241026   2.123   5.136  14.447 -0.2361  0.4004  0.4255
 6512TIP3    H141027   2.159   5.173  14.367 -0.4971  3.9234  1.7708
 6512TIP3    H241028   2.033   5.169  14.450 -0.8899 -1.3401  1.2267
 6513TIP3   OH241029   6.280   5.662   0.249  0.0839  0.0204  0.2000
 6513TIP3    H141030   6.235   5.578   0.255 -0.8145  0.4256 -0.5049
 6513TIP3    H241031   6.373   5.640   0.250 -0.1341 -0.9350  0.5424
 6514TIP3   OH241032   4.864   4.566  13.866  0.5169 -0.1556  0.1674
 6514TIP3    H141033   4.900   4.497  13.810  0.1274 -2.4603  2.5322
 6514TIP3    H241034   4.779   4.587  13.826  0.4835 -1.3176 -0.4329
 6515TIP3   OH241035   4.957   4.131   2.956 -0.0976 -0.2036  0.2071
 6515TIP3    H141036   4.881   4.162   3.005 -0.9762 -2.1847  0.2068
 6515TIP3    H241037   4.986   4.207   2.906 -1.7320  0.7614  0.6390
 6516TIP3   OH241038   2.945   4.690   3.258 -0.0634 -0.3933  0.0066
 6516TIP3    H141039   2.934   4.700   3.353 -0.3624 -0.3712 -0.0288
 6516TIP3    H241040   3.038   4.708   3.243 -0.4820  2.1474 -0.0300
 6517TIP3   OH241041   0.826   0.183  13.154 -0.0914  0.0289  0.4506
 6517TIP3    H141042   0.792   0.268  13.185 -0.0039 -0.6998  2.7320
 6517TIP3    H241043   0.778   0.118  13.205  1.4776 -1.2168  0.4161
 6518TIP3   OH241044   5.722   1.504   4.476 -0.0114  0.4459  0.3130
 6518TIP3    H141045   5.661   1.440   4.441  2.5087 -0.7193 -2.3770
 6518TIP3    H241046   5.704   1.584   4.427 -1.6802  1.2505  2.1118
 6519TIP3   OH241047   3.370   5.192  11.841  0.0162 -0.1273  0.5494
 6519TIP3    H141048   3.331   5.278  11.826  0.3785 -0.1912 -0.9162
 6519TIP3    H241049   3.440   5.208  11.905 -0.6131  0.4686  1.0970
 6520TIP3   OH241050   5.215   6.526  10.478 -0.3938 -0.1137 -0.8416
 6520TIP3    H141051   5.266   6.521  10.558  0.5092  1.4784 -1.2883
 6520TIP3    H241052   5.230   6.441  10.435 -1.0782 -1.0787  0.7352
 6521TIP3   OH241053   4.198   0.340  15.734 -0.0048  0.1913  0.2373
 6521TIP3    H141054   4.217   0.394  15.811  1.2362 -0.7804  0.6477
 6521TIP3    H241055   4.211   0.250  15.764 -1.7854 -0.3482 -0.5079
 6522TIP3   OH241056   5.827   1.268   3.552 -0.0121 -0.3937  0.1600
 6522TIP3    H141057   5.764   1.335   3.527 -0.2151 -0.7156 -0.1862
 6522TIP3    H241058   5.774   1.189   3.565  0.3367 -0.7011 -0.2792
 6523TIP3   OH241059   1.990   2.390  14.606 -0.2330  0.6536  0.6958
 6523TIP3    H141060   1.949   2.425  14.527 -0.4052 -0.1469  0.4224
 6523TIP3    H241061   2.062   2.450  14.624  1.1544 -0.3022 -1.3021
 6524TIP3   OH241062   0.148   5.751   5.954 -0.3492  0.4246 -0.2583
 6524TIP3    H141063   0.101   5.669   5.938  0.3961 -0.3015  1.0998
 6524TIP3    H241064   0.086   5.805   6.003 -0.8688  0.7323 -1.2217
 6525TIP3   OH241065   2.482   4.402  16.666  0.5205 -0.3862 -0.4854
 6525TIP3    H141066   2.487   4.431  16.757  1.3144  0.4274 -0.7681
 6525TIP3    H241067   2.469   4.308  16.672  2.2644 -0.6113  0.4984
 6526TIP3   OH241068   1.316   5.994  16.623 -0.5281 -0.5333  0.4757
 6526TIP3    H141069   1.387   5.951  16.671  0.1814 -2.1125 -1.8315
 6526TIP3    H241070   1.355   6.075  16.589 -0.0737 -0.9676 -0.0511
 6527TIP3   OH241071   1.929   2.015  11.487  0.2240  0.1071  0.3759
 6527TIP3    H141072   1.932   1.982  11.397 -0.6712 -2.9080  1.3083
 6527TIP3    H241073   2.020   2.010  11.517  0.2709 -0.5536  0.1421
 6528TIP3   OH241074   0.728   6.770  12.871  0.5419  0.2604 -0.0981
 6528TIP3    H141075   0.800   6.718  12.907  1.0901  1.4181  0.5103
 6528TIP3    H241076   0.649   6.728  12.905  0.8824 -1.0879 -0.8560
 6529TIP3   OH241077   0.594   3.247   4.599 -0.1626 -0.0369  0.1755
 6529TIP3    H141078   0.569   3.192   4.673  1.8081 -1.5607 -0.2030
 6529TIP3    H241079   0.681   3.279   4.622 -0.4827  1.3548 -0.4901
 6530TIP3   OH241080   4.188   2.487   4.896  0.0262  0.1608  0.1726
 6530TIP3    H141081   4.149   2.569   4.867  1.0649  0.2944 -0.9155
 6530TIP3    H241082   4.139   2.419   4.850 -0.6320  0.1654  0.8407
 6531TIP3   OH241083   4.983   0.719   2.621 -0.4760 -0.4630 -0.1371
 6531TIP3    H141084   4.937   0.792   2.580 -2.3455 -0.8089  1.2714
 6531TIP3    H241085   4.931   0.642   2.600 -0.5313 -0.8846  1.4154
 6532TIP3   OH241086   3.443   1.978  16.036 -0.9706 -0.3092  0.1840
 6532TIP3    H141087   3.352   2.008  16.038 -1.1536 -0.6566 -1.5576
 6532TIP3    H241088   3.477   2.010  15.952  0.0219 -1.5884  0.0698
 6533TIP3   OH241089   2.265   0.353   2.836 -0.3443 -0.1653  0.8159
 6533TIP3    H141090   2.253   0.414   2.763 -1.1918 -0.3042  0.8372
 6533TIP3    H241091   2.187   0.363   2.889  0.3365  0.0442  1.8104
 6534TIP3   OH241092   2.426   1.430   3.745 -0.4533 -0.5045  0.2696
 6534TIP3    H141093   2.409   1.424   3.839 -0.5890  0.0758  0.2846
 6534TIP3    H241094   2.511   1.389   3.733 -0.3701 -0.4433  0.6657
 6535TIP3   OH241095   4.834   5.056   2.039  0.5138  0.5364 -0.1006
 6535TIP3    H141096   4.888   5.008   2.102  0.0902  1.0424  0.6683
 6535TIP3    H241097   4.744   5.034   2.062  0.3453 -1.1230 -2.0282
 6536TIP3   OH241098   4.055   2.677   5.224 -0.5313 -0.2955  1.0110
 6536TIP3    H141099   4.016   2.755   5.262 -0.5249 -0.5849  1.6244
 6536TIP3    H241100   3.984   2.614   5.220 -0.7652  0.0277 -0.3408
 6537TIP3   OH241101   5.704   3.525   4.143  0.3338  0.6708  0.0156
 6537TIP3    H141102   5.759   3.596   4.178  0.1616  0.5736  0.4941
 6537TIP3    H241103   5.705   3.459   4.212  1.2769 -0.2153 -0.8213
 6538TIP3   OH241104   3.448   0.275  11.004 -0.3965 -0.2238  0.4565
 6538TIP3    H141105   3.494   0.191  11.009  0.9731  0.5341  1.2778
 6538TIP3    H241106   3.484   0.317  10.925 -1.6040 -0.6884 -0.3571
 6539TIP3   OH241107   0.183   5.615  16.351  0.3197 -0.3171  0.4577
 6539TIP3    H141108   0.142   5.689  16.306  0.2876 -0.0649  0.8980
 6539TIP3    H241109   0.275   5.639  16.356  0.4347 -0.6392 -0.0477
 6540TIP3   OH241110   5.666   5.872   3.635  0.5812 -0.0266  0.6792
 6540TIP3    H141111   5.645   5.949   3.582 -0.6161 -0.2034  0.8854
 6540TIP3    H241112   5.718   5.906   3.708  2.6823  0.1590 -0.8234
 6541TIP3   OH241113   3.818   2.170  13.195  0.3264  0.0673 -0.2352
 6541TIP3    H141114   3.736   2.144  13.152  0.0730  0.1072  0.2163
 6541TIP3    H241115   3.799   2.256  13.231 -0.0945 -0.7539  1.5908
 6542TIP3   OH241116   0.042   6.067   3.408 -0.5222  0.3668  0.1474
 6542TIP3    H141117   0.089   5.990   3.439 -0.6725  0.3770  0.3960
 6542TIP3    H241118   0.017   6.045   3.318 -0.3391  0.2289  0.1287
 6543TIP3   OH241119   3.047   0.824   0.751 -0.1362  0.5354  0.0252
 6543TIP3    H141120   3.108   0.882   0.796  0.5042 -0.8740  1.0425
 6543TIP3    H241121   3.016   0.764   0.819 -1.5667  0.3058 -0.7820
 6544TIP3   OH241122   6.484   0.016  11.792 -0.4915  0.8518  0.1024
 6544TIP3    H141123   6.421   0.002  11.720 -0.7827  0.3520  0.4491
 6544TIP3    H241124   6.429   0.023  11.870 -0.0765 -0.7920  0.5854
 6545TIP3   OH241125   4.140   5.560  14.850 -0.0390 -0.2421 -0.0312
 6545TIP3    H141126   4.200   5.630  14.825  1.6427 -0.4143  2.9989
 6545TIP3    H241127   4.057   5.604  14.866 -0.3065  0.2851 -2.5880
 6546TIP3   OH241128   4.875   3.968   0.127  0.1886 -0.0801 -0.5023
 6546TIP3    H141129   4.962   3.933   0.106  0.5260  0.0937  0.5417
 6546TIP3    H241130   4.892   4.044   0.183 -0.6076  0.6370 -1.1971
 6547TIP3   OH241131   5.894   6.625  15.281 -0.1984  0.2224  0.9606
 6547TIP3    H141132   5.963   6.562  15.262 -1.5503 -0.7944 -0.9885
 6547TIP3    H241133   5.930   6.681  15.349  0.9566 -2.8943  3.1494
 6548TIP3   OH241134   4.602   4.337  14.297 -0.0355  0.4910  0.1141
 6548TIP3    H141135   4.610   4.315  14.204 -2.7737 -1.5096  0.2563
 6548TIP3    H241136   4.567   4.426  14.297  1.0405  0.9409 -0.7112
 6549TIP3   OH241137   3.799   5.171  11.329 -0.4280  0.4578  0.2864
 6549TIP3    H141138   3.765   5.083  11.341 -1.3941  0.6889 -0.5259
 6549TIP3    H241139   3.799   5.184  11.234  0.4221  1.0598  0.3571
 6550TIP3   OH241140   6.026   2.583  15.082 -0.4727 -0.7003 -0.1834
 6550TIP3    H141141   5.947   2.579  15.137 -1.5383  3.7798 -0.9793
 6550TIP3    H241142   6.083   2.645  15.128  0.3951 -0.0693 -2.0423
 6551TIP3   OH241143   5.950   0.631  13.697 -0.3160 -0.2574  0.2820
 6551TIP3    H141144   5.892   0.702  13.668 -0.8908 -1.0765 -0.6588
 6551TIP3    H241145   5.947   0.567  13.626  0.1457 -1.2542  1.1227
 6552TIP3   OH241146   1.879   2.474  11.134 -0.8133 -0.1885  0.5188
 6552TIP3    H141147   1.931   2.539  11.087  1.1280 -0.4772  2.1445
 6552TIP3    H241148   1.813   2.526  11.180 -1.2106  0.3069 -0.5618
 6553TIP3   OH241149   0.165   0.304   2.278 -0.7295 -0.4245  0.7831
 6553TIP3    H141150   0.158   0.303   2.183  0.3999 -0.8708  0.6921
 6553TIP3    H241151   0.199   0.391   2.299  1.5595 -1.2050  0.5470
 6554TIP3   OH241152   2.606   2.607  16.580 -0.6645  0.2566  0.0052
 6554TIP3    H141153   2.584   2.522  16.618 -1.9371  0.3496 -0.4817
 6554TIP3    H241154   2.694   2.595  16.543 -0.6890 -0.7350  0.2404
 6555TIP3   OH241155   2.197   2.044   6.160 -0.2117 -0.2084 -0.1809
 6555TIP3    H141156   2.224   2.004   6.243 -1.1502  0.2896  0.3845
 6555TIP3    H241157   2.142   1.978   6.118  1.7881 -1.2302 -1.3411
 6556TIP3   OH241158   5.940   6.360   5.846 -0.1567  0.0307 -0.5107
 6556TIP3    H141159   5.892   6.441   5.828 -1.3720 -0.1650  1.4892
 6556TIP3    H241160   6.023   6.370   5.801 -0.2043  2.4798 -0.1548
 6557TIP3   OH241161   0.359   4.682  15.397  0.2779  0.6184 -0.2337
 6557TIP3    H141162   0.373   4.700  15.304  1.2494 -1.4110 -0.5231
 6557TIP3    H241163   0.429   4.730  15.441 -0.2471  1.6739 -0.5028
 6558TIP3   OH241164   3.251   5.412   4.679 -0.4695  0.0644  0.2602
 6558TIP3    H141165   3.208   5.327   4.678 -1.4621  0.5113  1.7305
 6558TIP3    H241166   3.339   5.393   4.713 -0.7544 -0.3623  0.7822
 6559TIP3   OH241167   2.966   2.231  12.647 -0.0512 -0.5648  0.0934
 6559TIP3    H141168   2.990   2.266  12.561 -0.3263  0.1010  0.2759
 6559TIP3    H241169   3.046   2.188  12.678  0.6561  0.7962  0.2791
 6560TIP3   OH241170   0.970   5.859   5.854 -0.1747 -0.6573 -0.2171
 6560TIP3    H141171   0.935   5.797   5.917 -1.6833 -1.4796 -1.7906
 6560TIP3    H241172   1.041   5.903   5.901 -2.3517  0.0749  2.6610
 6561TIP3   OH241173   3.264   6.695  14.840  0.4710  0.1253  0.4187
 6561TIP3    H141174   3.245   6.625  14.778  0.0034  0.1369  0.5470
 6561TIP3    H241175   3.286   6.650  14.921  1.4221  0.1027  0.1552
 6562TIP3   OH241176   0.030   6.111  16.772 -0.7445 -0.0065 -0.0384
 6562TIP3    H141177  -0.064   6.127  16.758 -0.4097 -0.1112 -3.0581
 6562TIP3    H241178   0.070   6.132  16.688  1.9263 -0.3808  1.0550
 6563TIP3   OH241179   0.895   5.368  15.876  0.5576  0.2296 -0.4429
 6563TIP3    H141180   0.956   5.376  15.950  0.4528 -1.9205 -0.0633
 6563TIP3    H241181   0.830   5.436  15.891 -0.3302 -1.0815  2.3423
 6564TIP3   OH241182   1.458   0.160   3.767 -0.0530 -0.1714  0.0883
 6564TIP3    H141183   1.468   0.255   3.761  0.2380 -0.2291 -0.3941
 6564TIP3    H241184   1.528   0.125   3.713  0.3511 -0.6818  0.9168
 6565TIP3   OH241185   1.803   6.151  10.800  0.4130 -0.4388 -0.0633
 6565TIP3    H141186   1.860   6.118  10.730  0.0440 -0.7427 -0.2256
 6565TIP3    H241187   1.846   6.124  10.881 -0.2149 -1.9253 -0.1936
 6566TIP3   OH241188   5.355   6.811  10.434  0.6921  0.1058  0.3627
 6566TIP3    H141189   5.408   6.758  10.493  0.0327 -2.2675 -1.0580
 6566TIP3    H241190   5.399   6.805  10.350  0.3117  1.4434  0.0404
 6567TIP3   OH241191   6.048   2.220   0.571  0.3277 -0.2888 -0.2467
 6567TIP3    H141192   5.993   2.151   0.532 -0.3774  0.1110  0.0196
 6567TIP3    H241193   5.990   2.264   0.633  0.0149  2.0379 -2.0553
 6568TIP3   OH241194   5.668   1.397   1.125 -0.4223  0.3863 -0.1739
 6568TIP3    H141195   5.606   1.464   1.153  0.2227  1.0902 -0.3919
 6568TIP3    H241196   5.741   1.446   1.087 -0.2777 -0.4661 -1.0366
 6569TIP3   OH241197   2.868   6.502   2.762  0.5953 -0.2753  0.2498
 6569TIP3    H141198   2.935   6.457   2.814 -0.1648 -1.3660  0.3273
 6569TIP3    H241199   2.787   6.489   2.812 -0.1481 -1.3176 -1.1772
 6570TIP3   OH241200   5.509   6.585  14.067  0.1266 -0.2477  0.1087
 6570TIP3    H141201   5.600   6.562  14.050  0.5716  1.4343 -0.0253
 6570TIP3    H241202   5.463   6.502  14.071  1.1882 -1.0507 -2.5301
 6571TIP3   OH241203   3.737   1.849   2.590 -0.7708 -0.4304  0.3869
 6571TIP3    H141204   3.739   1.944   2.602 -0.4987 -0.5504  1.3520
 6571TIP3    H241205   3.654   1.833   2.544 -0.2814  0.3732 -0.8220
 6572TIP3   OH241206   1.374   4.843   3.104  0.3381 -0.0585 -0.1235
 6572TIP3    H141207   1.281   4.823   3.113  0.6046 -1.0016  0.8213
 6572TIP3    H241208   1.392   4.903   3.176  0.4391  0.2338 -0.3899
 6573TIP3   OH241209   4.519   5.586  12.095 -0.4944 -0.4791 -0.1647
 6573TIP3    H141210   4.426   5.571  12.076 -0.8878  0.7018  0.6707
 6573TIP3    H241211   4.530   5.681  12.085  0.4893 -0.5306  0.3319
 6574TIP3   OH241212   5.406   2.003  16.908  0.1317 -0.4893  0.1736
 6574TIP3    H141213   5.476   2.029  16.969  1.0059 -1.6919 -0.2797
 6574TIP3    H241214   5.365   2.086  16.882 -0.9035  0.0280  3.0719
 6575TIP3   OH241215   6.453   2.129  13.318  0.5416  0.0785 -0.3977
 6575TIP3    H141216   6.446   2.224  13.325  1.5504  0.1449  0.0110
 6575TIP3    H241217   6.370   2.095  13.350  0.8828  0.7757  1.3404
 6576TIP3   OH241218   3.009   1.137   2.092 -0.0930  0.4256  0.1543
 6576TIP3    H141219   3.059   1.110   2.015  1.1377 -0.1032  1.0941
 6576TIP3    H241220   3.029   1.230   2.101 -0.1425  0.4622 -0.0937
 6577TIP3   OH241221   6.045   3.553  14.586  0.1025  0.4936  0.4718
 6577TIP3    H141222   6.096   3.494  14.530 -0.3137  1.4332 -0.9485
 6577TIP3    H241223   6.013   3.497  14.657 -0.4567 -1.0446 -0.9327
 6578TIP3   OH241224   0.437   5.266   4.828  0.8143 -0.5791 -0.2486
 6578TIP3    H141225   0.444   5.229   4.740 -0.0781  2.0479 -1.5300
 6578TIP3    H241226   0.525   5.301   4.846  0.9567 -0.9829 -0.1500
 6579TIP3   OH241227   5.102   1.716   1.810  0.1184  0.3378  0.2084
 6579TIP3    H141228   5.065   1.710   1.722 -0.7805  1.2191  0.5056
 6579TIP3    H241229   5.179   1.771   1.800  0.9063 -0.8317 -0.2806
 6580TIP3   OH241230   4.323   5.022  10.961 -0.6277  0.5112 -0.0665
 6580TIP3    H141231   4.361   5.010  11.048 -0.0350 -1.7789 -0.5682
 6580TIP3    H241232   4.230   5.003  10.973 -0.1634 -2.3989 -0.2917
 6581TIP3   OH241233   1.379   0.456  16.551 -0.3586 -0.5178 -0.1060
 6581TIP3    H141234   1.471   0.481  16.559 -0.9564  1.4458  1.1564
 6581TIP3    H241235   1.355   0.481  16.462  0.0759 -0.1500 -0.1233
 6582TIP3   OH241236   6.001   2.948   2.772 -0.1007 -0.0763 -0.3213
 6582TIP3    H141237   5.933   2.881   2.780  0.4216 -0.6683 -0.7858
 6582TIP3    H241238   6.012   2.961   2.678  0.1738  0.2953 -0.2417
 6583TIP3   OH241239   1.513   0.019   1.902  0.1232  0.0459 -0.4283
 6583TIP3    H141240   1.472  -0.009   1.820 -2.1075  0.5781  0.4525
 6583TIP3    H241241   1.597   0.057   1.874 -0.6052  0.2997 -2.4736
 6584TIP3   OH241242   5.469   2.150  14.579  0.3574 -0.0845  0.1265
 6584TIP3    H141243   5.408   2.136  14.506  0.3357 -1.4669  0.3811
 6584TIP3    H241244   5.432   2.224  14.627  0.5600  1.0906 -1.4386
 6585TIP3   OH241245   0.184   4.574  15.665  0.0857  0.1450 -0.0434
 6585TIP3    H141246   0.224   4.542  15.584 -0.7607 -1.2601  0.0481
 6585TIP3    H241247   0.113   4.512  15.683 -1.7125  2.1368  0.1629
 6586TIP3   OH241248   1.090   2.019  11.122 -0.0538 -0.2298  0.0266
 6586TIP3    H141249   1.146   2.078  11.173  0.1140  0.2675 -0.7094
 6586TIP3    H241250   1.004   2.060  11.125  0.1005  0.1665 -0.6318
 6587TIP3   OH241251   3.566   4.748  13.855 -0.2563  0.5590  0.2055
 6587TIP3    H141252   3.656   4.755  13.825  0.0040  0.5691  0.9956
 6587TIP3    H241253   3.572   4.710  13.942 -0.9621  1.4021  0.6304
 6588TIP3   OH241254   6.119   2.750  14.585  0.2216 -0.3299 -0.6304
 6588TIP3    H141255   6.056   2.701  14.637  1.1350  0.1511  0.9999
 6588TIP3    H241256   6.080   2.755  14.498 -0.6929 -2.3910 -0.3915
 6589TIP3   OH241257   5.587   3.116  15.175 -0.2194  0.0817 -0.5646
 6589TIP3    H141258   5.518   3.084  15.232 -0.2713 -0.4136 -0.8987
 6589TIP3    H241259   5.605   3.043  15.116  0.7852  0.1155 -0.3024
 6590TIP3   OH241260   6.232   0.495  16.430 -0.7149  0.3177 -0.0223
 6590TIP3    H141261   6.197   0.406  16.428 -1.8552  0.7528 -0.1290
 6590TIP3    H241262   6.294   0.498  16.358 -0.6863 -0.3927 -0.0278
 6591TIP3   OH241263   4.749   0.552  14.348  0.0319 -0.1378 -0.2898
 6591TIP3    H141264   4.754   0.643  14.319  2.2917 -0.1515 -0.0930
 6591TIP3    H241265   4.717   0.557  14.438  0.6135  0.5060 -0.1141
 6592TIP3   OH241266   0.370   0.114   4.083  0.4752 -0.0212 -0.5263
 6592TIP3    H141267   0.366   0.205   4.113  1.5974 -0.6246  1.6438
 6592TIP3    H241268   0.432   0.071   4.142 -1.3320 -2.6205 -0.3157
 6593TIP3   OH241269   1.432   3.053  15.689  0.2409 -0.2464  0.4009
 6593TIP3    H141270   1.488   3.081  15.617 -1.4134 -0.9112 -1.2396
 6593TIP3    H241271   1.370   2.991  15.648 -1.7040  0.4950  2.0547
 6594TIP3   OH241272   6.253   2.731  12.306  0.3579 -0.1619  0.2049
 6594TIP3    H141273   6.340   2.722  12.346  0.3065  0.8048  0.5345
 6594TIP3    H241274   6.256   2.671  12.231  2.1249  1.5152 -1.1546
 6595TIP3   OH241275   1.110   5.970   0.042 -0.1601 -0.1232 -0.4917
 6595TIP3    H141276   1.108   5.983  -0.053  0.6811  2.8742 -0.2191
 6595TIP3    H241277   1.165   6.041   0.075 -2.7138  0.7559  2.4800
 6596TIP3   OH241278   3.414   1.903   6.591 -0.0954 -0.2168 -0.3006
 6596TIP3    H141279   3.468   1.931   6.665 -0.4344  0.8474 -0.4445
 6596TIP3    H241280   3.474   1.906   6.516  0.6641 -2.7193  0.1083
 6597TIP3   OH241281   3.494   4.985   0.482  0.2664  0.0062 -0.1728
 6597TIP3    H141282   3.428   4.983   0.551 -0.9470  1.3382 -1.2133
 6597TIP3    H241283   3.457   5.044   0.416  0.8071 -2.1105 -2.5337
 6598TIP3   OH241284   4.550   6.145  15.344  0.1337  0.2434  0.1049
 6598TIP3    H141285   4.482   6.106  15.289  0.0005 -0.2437  0.6193
 6598TIP3    H241286   4.502   6.195  15.410  0.2951  0.7122 -0.1210
 6599TIP3   OH241287   0.798   0.882   1.811  0.0823  0.4408 -0.2438
 6599TIP3    H141288   0.784   0.970   1.775  2.4697  1.4902  1.1326
 6599TIP3    H241289   0.835   0.832   1.738 -0.6827  0.7487 -0.8584
 6600TIP3   OH241290   1.544   5.942  16.746  0.5710 -0.1959 -0.4086
 6600TIP3    H141291   1.616   5.897  16.702  0.5857  0.3093 -0.9091
 6600TIP3    H241292   1.586   5.998  16.810  0.5075 -1.8018  1.1223
 6601TIP3   OH241293   0.423   3.691   6.324  0.3989  0.3979  0.0958
 6601TIP3    H141294   0.426   3.596   6.327  0.8335  0.4090  0.0902
 6601TIP3    H241295   0.504   3.719   6.368 -0.6726  0.7895  1.9615
 6602TIP3   OH241296   2.755   1.130  10.883 -0.2996 -0.2621  0.1480
 6602TIP3    H141297   2.776   1.119  10.790  2.3395  0.6162  0.5545
 6602TIP3    H241298   2.818   1.075  10.929  0.0258  1.1367  1.4709
 6603TIP3   OH241299   1.528   2.325   4.090 -0.3313 -0.8143  1.0015
 6603TIP3    H141300   1.482   2.260   4.037  0.2304 -1.0967  0.8485
 6603TIP3    H241301   1.569   2.384   4.026  0.7447 -1.4322  1.0855
 6604TIP3   OH241302   0.611   0.179   0.348  0.5178  0.2277  0.1577
 6604TIP3    H141303   0.605   0.248   0.282  0.2509  0.0722  0.0165
 6604TIP3    H241304   0.701   0.183   0.379  0.2315  1.3859  0.9523
 6605TIP3   OH241305   6.277   6.094  13.089 -0.0683 -0.2014  0.0563
 6605TIP3    H141306   6.234   6.078  13.005  0.0092 -0.3676  0.0478
 6605TIP3    H241307   6.323   6.177  13.076  0.9001 -0.7953 -0.4521
 6606TIP3   OH241308   3.210   3.103  13.302  0.2552 -0.2842 -0.1461
 6606TIP3    H141309   3.141   3.164  13.278 -1.1355 -1.3467  1.0010
 6606TIP3    H241310   3.253   3.083  13.219 -1.8828 -0.8464 -1.1913
 6607TIP3   OH241311   1.479   1.611   2.886  0.6531  0.0536 -0.5874
 6607TIP3    H141312   1.570   1.625   2.913  0.8833  1.5020 -1.9977
 6607TIP3    H241313   1.433   1.689   2.918 -0.1919 -0.8215  0.4021
 6608TIP3   OH241314   1.824   6.141  13.005  0.0351  0.5480  0.1144
 6608TIP3    H141315   1.834   6.046  12.992 -1.9108  0.4355 -0.9141
 6608TIP3    H241316   1.841   6.153  13.099 -0.9892 -1.0576  0.5643
 6609TIP3   OH241317   4.679   1.430  16.663 -0.0485  0.1890  0.1036
 6609TIP3    H141318   4.766   1.398  16.638 -0.7645 -1.1401 -0.8321
 6609TIP3    H241319   4.664   1.396  16.751  0.0288 -0.3371 -0.0844
 6610TIP3   OH241320   2.760   5.588   0.323 -0.1108 -0.1336 -0.2615
 6610TIP3    H141321   2.708   5.629   0.254  0.4576  0.0704 -0.5834
 6610TIP3    H241322   2.848   5.626   0.312 -0.1802  0.4844  1.0517
 6611TIP3   OH241323   4.625   1.968   1.503  0.5307  0.1278 -0.3046
 6611TIP3    H141324   4.553   1.911   1.532  0.4248 -0.6501 -1.9818
 6611TIP3    H241325   4.687   1.966   1.575  0.1942 -1.5593 -0.0151
 6612TIP3   OH241326   3.628   5.100  12.311 -0.0423  0.1749 -0.2024
 6612TIP3    H141327   3.600   5.027  12.366  1.4548 -0.6770 -0.5040
 6612TIP3    H241328   3.710   5.070  12.272  0.1285  1.6713 -1.0658
 6613TIP3   OH241329   2.264   1.679  16.827 -0.2678 -0.2039 -0.0239
 6613TIP3    H141330   2.237   1.651  16.914 -2.4930  0.4490 -0.4296
 6613TIP3    H241331   2.209   1.627  16.767  0.3998  0.1727 -0.9940
 6614TIP3   OH241332   6.767   0.629  14.686 -0.1781 -0.1705 -0.0181
 6614TIP3    H141333   6.693   0.671  14.730 -0.8954 -1.7629  0.3599
 6614TIP3    H241334   6.769   0.540  14.721  0.7396 -0.7440 -1.4358
 6615TIP3   OH241335   0.354   2.365  13.933 -0.6755 -0.0899  0.6469
 6615TIP3    H141336   0.307   2.285  13.954 -0.1362 -0.6476 -0.2293
 6615TIP3    H241337   0.329   2.385  13.843  0.0389  0.1221  0.4902
 6616TIP3   OH241338   5.075   5.685  12.504  0.1655 -0.2992  0.6095
 6616TIP3    H141339   5.045   5.603  12.544 -2.5998 -0.2156 -1.0179
 6616TIP3    H241340   5.170   5.677  12.500  0.0268 -3.1967  0.9590
 6617TIP3   OH241341   4.012   4.281  12.658  0.1605  0.2155 -0.0112
 6617TIP3    H141342   3.934   4.319  12.699 -0.1124 -0.0845 -0.2473
 6617TIP3    H241343   4.007   4.188  12.680  1.9527  0.5933  2.4142
 6618TIP3   OH241344   4.940   2.033  16.799 -0.1159 -1.1698 -0.0099
 6618TIP3    H141345   4.881   2.101  16.764  0.2486 -2.6881 -4.1204
 6618TIP3    H241346   5.021   2.080  16.819  0.5726 -0.3292 -3.9578
 6619TIP3   OH241347   0.192   4.037  12.518 -0.2984  0.2380 -0.0607
 6619TIP3    H141348   0.162   3.991  12.439 -2.9981  0.4372  0.7744
 6619TIP3    H241349   0.211   3.967  12.580  3.3091 -0.0257 -1.1836
 6620TIP3   OH241350   0.230   5.368   0.272 -0.3862 -0.4129 -0.3500
 6620TIP3    H141351   0.164   5.337   0.334 -0.9536  0.4217 -0.5171
 6620TIP3    H241352   0.256   5.454   0.305 -0.1046 -0.3051 -0.8340
 6621TIP3   OH241353   0.644   1.346  16.272  0.5355  0.2263 -0.5631
 6621TIP3    H141354   0.729   1.317  16.237 -0.4030  0.0779 -2.8823
 6621TIP3    H241355   0.605   1.267  16.308  1.2169  0.2258  0.2087
 6622TIP3   OH241356   2.384   4.782  16.483  0.1483  0.3440  0.0247
 6622TIP3    H141357   2.292   4.757  16.492  0.4444 -0.4080  1.1833
 6622TIP3    H241358   2.432   4.699  16.490  1.0303  0.9416  1.5160
 6623TIP3   OH241359   0.823   2.438   3.953  0.4495 -0.8043 -0.1965
 6623TIP3    H141360   0.816   2.493   3.874  0.5341 -0.2511  0.1734
 6623TIP3    H241361   0.917   2.427   3.966  0.5154  0.6546  0.8592
 6624TIP3   OH241362   6.798   1.972   2.066  0.1883 -0.1970  0.1336
 6624TIP3    H141363   6.764   1.897   2.017  2.5279 -1.3231  0.0872
 6624TIP3    H241364   6.785   1.949   2.157 -0.3534 -0.0048  0.1099
 6625TIP3   OH241365   2.927   4.420   1.557  0.0797 -0.4406  0.2198
 6625TIP3    H141366   2.955   4.404   1.466 -2.3923 -1.6336 -0.4118
 6625TIP3    H241367   2.984   4.364   1.610  0.3101 -1.2122 -0.8018
 6626TIP3   OH241368   3.129   0.506  12.778 -1.0190 -0.0079  0.0045
 6626TIP3    H141369   3.090   0.419  12.783 -1.8132  0.3059 -0.6592
 6626TIP3    H241370   3.085   0.549  12.705  0.5161  0.3887 -0.7458
 6627TIP3   OH241371   1.587   4.425   2.203 -0.3298  0.0001  0.1210
 6627TIP3    H141372   1.535   4.360   2.156 -0.2165  0.6199 -0.9020
 6627TIP3    H241373   1.607   4.384   2.287 -0.8234 -1.0116 -0.2367
 6628TIP3   OH241374   5.386   3.053   6.944  0.1596  0.3499  0.2953
 6628TIP3    H141375   5.426   3.130   6.985  0.6119 -0.2861  1.0612
 6628TIP3    H241376   5.426   2.978   6.989 -0.4811 -0.3292 -0.2509
 6629TIP3   OH241377   6.737   0.011   3.842 -0.1958 -0.1259 -0.3941
 6629TIP3    H141378   6.819   0.036   3.885 -0.5839  0.7804 -0.1748
 6629TIP3    H241379   6.679  -0.015   3.914 -1.1584  2.2611 -0.2294
 6630TIP3   OH241380   3.901   3.990   3.509 -0.2282 -0.2655  0.3735
 6630TIP3    H141381   3.991   3.958   3.506 -0.2035 -0.1529 -1.5091
 6630TIP3    H241382   3.853   3.935   3.446 -1.5838 -0.5923  1.6409
 6631TIP3   OH241383   3.308   0.001  13.981  0.0671 -0.1520 -0.0299
 6631TIP3    H141384   3.380   0.042  14.028 -1.9771  1.4678  1.9036
 6631TIP3    H241385   3.338  -0.089  13.965  2.1798  0.2340  1.3951
 6632TIP3   OH241386   1.589   6.524   3.843  0.4836 -0.1287  0.5790
 6632TIP3    H141387   1.670   6.477   3.861  1.1120  0.7359  0.0957
 6632TIP3    H241388   1.560   6.489   3.758  0.0979 -0.7558  0.9590
 6633TIP3   OH241389   1.924   3.754   2.360  0.0582 -0.1876  0.1608
 6633TIP3    H141390   1.922   3.722   2.450 -0.6568 -0.2423  0.1272
 6633TIP3    H241391   1.892   3.843   2.365  0.6150  0.0268  0.0393
 6634TIP3   OH241392   3.527   2.092  11.442  0.1759  0.3433 -0.4480
 6634TIP3    H141393   3.555   2.029  11.509  0.0035 -0.5780 -1.2288
 6634TIP3    H241394   3.484   2.162  11.492  1.1480  0.2972  0.5092
 6635TIP3   OH241395   5.839   5.749   4.749 -0.3857  0.2121 -0.8503
 6635TIP3    H141396   5.804   5.787   4.829  0.6949 -1.6499  0.5970
 6635TIP3    H241397   5.934   5.748   4.763 -0.1243  0.4464 -2.4444
 6636TIP3   OH241398   2.896   1.740  12.436  0.1082  0.6600 -0.3503
 6636TIP3    H141399   2.857   1.788  12.363  1.4012  0.4192 -1.2111
 6636TIP3    H241400   2.925   1.657  12.399 -0.5293 -0.0972  0.7647
 6637TIP3   OH241401   2.653   4.495   5.199 -0.1837 -0.3030 -0.5110
 6637TIP3    H141402   2.743   4.521   5.182 -0.4962  0.2073 -1.4923
 6637TIP3    H241403   2.601   4.570   5.171 -0.8352  0.4295  2.3201
 6638TIP3   OH241404   1.064   4.503   0.342 -0.4694  0.6102 -0.2111
 6638TIP3    H141405   1.153   4.537   0.347  0.2914 -1.4602  2.0226
 6638TIP3    H241406   1.011   4.568   0.388  0.8397 -0.6397  3.3733
 6639TIP3   OH241407   2.667   1.741   5.058 -0.3084  0.1245 -0.3330
 6639TIP3    H141408   2.685   1.653   5.092  0.4282  0.6195  0.6051
 6639TIP3    H241409   2.700   1.800   5.126 -4.0010  1.1594  0.7505
 6640TIP3   OH241410   6.430   1.164   4.393 -0.3488 -0.5657 -0.1842
 6640TIP3    H141411   6.457   1.250   4.363  0.9456 -1.2750 -1.1311
 6640TIP3    H241412   6.469   1.103   4.331 -1.7463 -1.8184  0.1121
 6641TIP3   OH241413   5.021   6.132  16.117  0.7991 -0.3634 -0.2905
 6641TIP3    H141414   5.075   6.166  16.189 -1.5314 -1.3198  2.0965
 6641TIP3    H241415   4.972   6.060  16.157 -2.5424  0.7006 -2.1375
 6642TIP3   OH241416   3.718   0.732   3.107 -0.0249  0.3819  0.5635
 6642TIP3    H141417   3.784   0.685   3.157  0.4349  0.2889 -0.1232
 6642TIP3    H241418   3.703   0.813   3.157 -0.0365  0.0064  1.1768
 6643TIP3   OH241419   1.946   2.793  16.132  0.5581 -0.6711 -0.7430
 6643TIP3    H141420   1.992   2.742  16.065  1.1156  0.4247 -1.2261
 6643TIP3    H241421   2.012   2.806  16.201  0.5121 -0.3821 -0.7508
 6644TIP3   OH241422   4.437   2.383  16.914 -0.4959  0.3127 -0.1591
 6644TIP3    H141423   4.361   2.392  16.971 -2.6547 -0.8856 -2.6695
 6644TIP3    H241424   4.506   2.349  16.971 -2.3780 -0.4066  1.8048
 6645TIP3   OH241425   2.880   0.064  12.024 -0.1912 -0.1679 -0.4090
 6645TIP3    H141426   2.806   0.123  12.008 -0.4752 -0.2410  0.5943
 6645TIP3    H241427   2.941   0.083  11.953 -0.8458  0.4170 -0.8315
 6646TIP3   OH241428   6.422   4.510   1.998  0.0022  0.6579  0.4474
 6646TIP3    H141429   6.432   4.427   2.045 -0.7910  0.6311  0.5691
 6646TIP3    H241430   6.509   4.526   1.961 -0.0309 -0.6383 -0.2504
 6647TIP3   OH241431   3.917   3.894  11.214 -0.2272 -0.2941 -0.1428
 6647TIP3    H141432   3.964   3.852  11.142 -1.5721 -0.8453 -0.7404
 6647TIP3    H241433   3.962   3.977  11.229 -0.6831  0.4435 -2.5178
 6648TIP3   OH241434   1.021   5.291   1.999 -0.3400 -0.1342 -0.2491
 6648TIP3    H141435   0.934   5.307   1.963 -0.8049  0.4810  1.0794
 6648TIP3    H241436   1.011   5.305   2.093  1.0702 -0.6164 -0.0072
 6649TIP3   OH241437   6.025   6.033   6.494  0.1814 -0.2588  0.1972
 6649TIP3    H141438   6.053   6.111   6.447 -2.1873  1.3465  1.2220
 6649TIP3    H241439   5.933   6.022   6.470  0.8940 -4.0594 -1.5391
 6650TIP3   OH241440   2.941   5.563  10.384  0.1870 -0.1511  0.0719
 6650TIP3    H141441   2.909   5.478  10.351  1.7522 -0.9343  0.4870
 6650TIP3    H241442   3.034   5.564  10.361  0.1840  1.4864  0.0537
 6651TIP3   OH241443   3.477   5.769   3.594  0.2804 -0.0005  0.0461
 6651TIP3    H141444   3.478   5.827   3.518  1.4138 -0.6689 -0.4717
 6651TIP3    H241445   3.504   5.684   3.561 -0.5537 -0.6443  0.9529
 6652TIP3   OH241446   2.624   6.168   2.198  0.0768  0.6823 -0.0169
 6652TIP3    H141447   2.612   6.254   2.240 -1.1665  0.3404  0.3738
 6652TIP3    H241448   2.547   6.118   2.225  1.3380 -0.9550  0.6840
 6653TIP3   OH241449   4.338   0.574  12.016 -0.3847 -0.6682 -0.2228
 6653TIP3    H141450   4.316   0.667  12.025  3.7556  0.3412  1.8688
 6653TIP3    H241451   4.288   0.531  12.086  0.1292  0.5663  0.9467
 6654TIP3   OH241452   6.315   4.217  16.937  0.0993 -0.2955  0.3721
 6654TIP3    H141453   6.271   4.158  16.875 -1.2488  0.5134  0.5132
 6654TIP3    H241454   6.272   4.301  16.923 -0.9901 -0.3105  3.1217
 6655TIP3   OH241455   3.500   4.948  13.499 -0.2977  0.2969  0.1416
 6655TIP3    H141456   3.467   5.019  13.554 -3.0282 -0.1858 -0.7473
 6655TIP3    H241457   3.556   4.992  13.434 -0.2275  1.3454  0.8829
 6656TIP3   OH241458   3.649   6.327   5.809 -0.0526  0.4207 -0.2253
 6656TIP3    H141459   3.584   6.391   5.836  0.6786  1.0669  0.0550
 6656TIP3    H241460   3.605   6.274   5.743 -1.2346  0.0890  0.7904
 6657TIP3   OH241461   4.066   1.935   4.105 -0.2450 -0.4700  0.1060
 6657TIP3    H141462   4.131   1.868   4.083  0.0075  0.3812 -1.9904
 6657TIP3    H241463   4.041   1.973   4.021 -1.1604  1.3553  1.1315
 6658TIP3   OH241464   4.037   5.473   3.035 -0.0957 -0.5328 -0.2074
 6658TIP3    H141465   4.031   5.484   2.940  0.2122 -2.0481 -0.4204
 6658TIP3    H241466   4.005   5.556   3.070  1.7186  0.8698 -1.6487
 6659TIP3   OH241467   3.181   1.282   2.890  0.1190  0.3177 -0.4581
 6659TIP3    H141468   3.245   1.220   2.925  1.0792  0.2264 -2.2466
 6659TIP3    H241469   3.230   1.364   2.883 -1.0309  1.2473  1.5200
 6660TIP3   OH241470   2.545   5.846   4.940  0.7349  0.0094 -0.2589
 6660TIP3    H141471   2.567   5.790   5.015  1.5305 -0.2133 -0.6471
 6660TIP3    H241472   2.584   5.801   4.865 -0.2375  0.1200 -0.8480
 6661TIP3   OH241473   0.779   2.350  16.197 -0.4610 -0.0069  0.0741
 6661TIP3    H141474   0.703   2.297  16.221 -0.8736  0.8435  0.6882
 6661TIP3    H241475   0.846   2.326  16.261 -1.4177  1.9336  1.9284
 6662TIP3   OH241476   4.254   5.140  13.787  0.5557 -0.6655 -0.5761
 6662TIP3    H141477   4.176   5.100  13.747  0.6328  1.8329 -3.6359
 6662TIP3    H241478   4.219   5.208  13.844  0.4674 -0.1958 -1.1832
 6663TIP3   OH241479   5.768   0.734   5.670 -0.7202 -0.1199 -0.1565
 6663TIP3    H141480   5.784   0.685   5.750  0.8574  1.9335  0.8798
 6663TIP3    H241481   5.675   0.758   5.675 -0.8620 -0.7627  0.5770
 6664TIP3   OH241482   5.086   3.765  11.719  0.5493  0.9278  0.1133
 6664TIP3    H141483   5.165   3.797  11.762  1.8806  0.4386 -1.8176
 6664TIP3    H241484   5.118   3.715  11.644 -1.6012  0.7797 -0.7851
 6665TIP3   OH241485   2.478   4.112  13.758 -0.6561 -0.4225 -0.4135
 6665TIP3    H141486   2.401   4.065  13.791 -1.4989  1.3052  0.1992
 6665TIP3    H241487   2.519   4.148  13.836  0.0794 -0.2817 -0.8571
 6666TIP3   OH241488   5.643   5.883   3.231 -0.5362 -0.3878 -0.4846
 6666TIP3    H141489   5.680   5.810   3.281  0.0569 -0.5076 -1.0955
 6666TIP3    H241490   5.632   5.849   3.143 -0.4682  0.1969 -0.7201
 6667TIP3   OH241491   0.003   4.672   4.928 -0.1403 -0.1734  0.6158
 6667TIP3    H141492  -0.022   4.645   4.839  0.5563  1.2633 -0.0419
 6667TIP3    H241493   0.066   4.605   4.955  0.5431  0.0097 -0.4482
 6668TIP3   OH241494   4.499   0.266   1.440 -0.4618  0.4028 -0.1707
 6668TIP3    H141495   4.475   0.241   1.351  1.2925  1.0438 -0.8648
 6668TIP3    H241496   4.579   0.318   1.430  1.2631 -1.5819  1.9301
 6669TIP3   OH241497   0.277   6.512   1.069 -0.1682 -0.0345 -0.4707
 6669TIP3    H141498   0.332   6.473   1.137  0.1229 -1.2541 -1.3695
 6669TIP3    H241499   0.336   6.569   1.020 -0.4665  1.1475  0.5072
 6670TIP3   OH241500   3.062   5.297   5.649 -0.1717  0.0096  0.2720
 6670TIP3    H141501   2.994   5.278   5.584 -0.7754  2.0907  0.2191
 6670TIP3    H241502   3.016   5.302   5.732 -0.4314  2.7046  0.0750
 6671TIP3   OH241503   2.434   2.538   3.919  0.2077 -0.4422  0.0707
 6671TIP3    H141504   2.501   2.562   3.855 -1.1510  0.2868 -1.1458
 6671TIP3    H241505   2.445   2.601   3.990 -0.9910  1.6015 -1.4413
 6672TIP3   OH241506   1.393   3.881   3.861 -0.0472  0.6321  0.1097
 6672TIP3    H141507   1.423   3.856   3.948 -1.0239  1.5467  0.7245
 6672TIP3    H241508   1.298   3.881   3.866 -0.1166  2.4578 -0.4132
 6673TIP3   OH241509   6.675   5.400   1.022  0.1064  0.2190 -0.3708
 6673TIP3    H141510   6.641   5.422   1.109  0.6857  0.5916 -0.2347
 6673TIP3    H241511   6.759   5.444   1.017  1.0356 -1.4640 -0.3235
 6674TIP3   OH241512   0.101   1.733   0.163 -0.1722  0.6105 -0.1541
 6674TIP3    H141513   0.021   1.756   0.210 -0.5610 -0.8012 -0.0746
 6674TIP3    H241514   0.116   1.640   0.184  1.3244  0.7636 -0.3995
 6675TIP3   OH241515   3.403   2.886   6.363  0.1721 -0.6159 -0.7774
 6675TIP3    H141516   3.406   2.966   6.311  0.8332 -1.7633 -2.5952
 6675TIP3    H241517   3.327   2.897   6.420 -0.4561  0.7899 -1.8376
 6676TIP3   OH241518   1.640   3.386  17.150  0.1433  0.2779  0.5906
 6676TIP3    H141519   1.601   3.429  17.227 -0.8005 -2.0326  1.5129
 6676TIP3    H241520   1.670   3.301  17.183  0.3765 -0.4842 -1.4478
 6677TIP3   OH241521   5.995   2.989  12.863 -0.0009 -0.0072 -0.3750
 6677TIP3    H141522   5.957   2.913  12.908 -1.8443  1.8219  1.3885
 6677TIP3    H241523   5.947   2.993  12.780 -0.1183 -0.5871 -0.3417
 6678TIP3   OH241524   6.650   4.837   3.058 -0.2247  0.1150 -0.1326
 6678TIP3    H141525   6.745   4.852   3.053 -0.3326  0.5762 -0.8949
 6678TIP3    H241526   6.623   4.885   3.136  0.0498  0.6374 -0.3535
 6679TIP3   OH241527   0.097   2.185  17.266  0.9372 -0.1948 -0.0642
 6679TIP3    H141528   0.021   2.166  17.322  0.3017  0.6803 -0.6016
 6679TIP3    H241529   0.066   2.252  17.206  1.6309 -1.0725 -1.4435
 6680TIP3   OH241530   3.400   5.808  11.314  0.2707  0.1131  0.6180
 6680TIP3    H141531   3.427   5.874  11.250 -2.1332  1.6056  1.0052
 6680TIP3    H241532   3.398   5.727  11.264 -0.0238  0.9648 -0.8390
 6681TIP3   OH241533   3.370   3.865  14.730 -0.5001 -0.4817 -0.2519
 6681TIP3    H141534   3.410   3.883  14.814 -0.6850  0.3006 -0.3203
 6681TIP3    H241535   3.276   3.855  14.749 -0.6008  0.0998 -0.4065
 6682TIP3   OH241536   2.330   5.174  16.631  0.1776  0.3723  0.1368
 6682TIP3    H141537   2.347   5.258  16.589  0.0881  0.6325  0.6238
 6682TIP3    H241538   2.417   5.138  16.648  0.2169  0.4949  0.1922
 6683TIP3   OH241539   1.559   4.666  12.097  0.3547  0.3535 -0.3232
 6683TIP3    H141540   1.587   4.624  12.178 -1.0795  1.4677  0.8208
 6683TIP3    H241541   1.534   4.594  12.039  3.3507 -0.5654 -0.6221
 6684TIP3   OH241542   6.782   0.349   6.795  0.2826 -0.0731  0.2054
 6684TIP3    H141543   6.716   0.380   6.734  0.1996 -1.3384 -0.3941
 6684TIP3    H241544   6.861   0.397   6.772 -0.0050  0.1975 -0.2258
 6685TIP3   OH241545   0.857   0.109  11.911 -0.0223 -0.2721  0.6897
 6685TIP3    H141546   0.880   0.136  12.000 -0.8619  2.5359  0.1722
 6685TIP3    H241547   0.897   0.175  11.855 -0.5793 -1.2533 -0.9332
 6686TIP3   OH241548   1.267   5.242   3.420 -0.0239  0.1326 -0.0065
 6686TIP3    H141549   1.256   5.311   3.486 -0.9080 -0.7965  0.8530
 6686TIP3    H241550   1.228   5.278   3.341  0.7649  1.1488  0.0533
 6687TIP3   OH241551   0.795   0.654   1.135  0.4993 -0.0064  0.0803
 6687TIP3    H141552   0.831   0.568   1.113 -2.5456 -1.9622  1.9543
 6687TIP3    H241553   0.756   0.685   1.054  2.4437  0.1562 -0.8606
 6688TIP3   OH241554   3.588   0.730   3.644 -0.0843  0.2036 -0.3492
 6688TIP3    H141555   3.660   0.667   3.657 -0.5027 -0.1966  0.0425
 6688TIP3    H241556   3.632   0.809   3.612  0.6711  0.3159  0.8759
 6689TIP3   OH241557   0.847   1.376   2.878  0.3528 -0.4708 -0.6977
 6689TIP3    H141558   0.760   1.374   2.919  1.3558  0.7599  1.6292
 6689TIP3    H241559   0.883   1.289   2.894 -0.4881 -1.1079 -1.9635
 6690TIP3   OH241560   0.957   2.037   4.201 -0.3348  0.2606 -0.6038
 6690TIP3    H141561   0.983   2.106   4.140 -2.4999  0.8983 -0.8836
 6690TIP3    H241562   0.891   2.078   4.257 -0.5564 -1.1566  0.2121
 6691TIP3   OH241563   1.592   2.648   4.021  0.1632 -0.1869  0.3243
 6691TIP3    H141564   1.571   2.665   4.113  0.7072  0.3782  0.3508
 6691TIP3    H241565   1.564   2.558   4.006 -0.2963 -0.1467  0.9353
 6692TIP3   OH241566   0.366   5.093   5.041 -0.3593  0.1967 -1.0165
 6692TIP3    H141567   0.392   5.007   5.009 -1.3123  0.0767 -1.5196
 6692TIP3    H241568   0.405   5.155   4.978 -1.6531 -0.0066 -2.0790
 6693TIP3   OH241569   3.176   2.101   5.823  0.0830 -0.0853  0.7718
 6693TIP3    H141570   3.110   2.032   5.820  0.5401 -0.7352  3.4793
 6693TIP3    H241571   3.172   2.135   5.912  3.5845 -0.4129  1.2017
 6694TIP3   OH241572   6.071   6.310   1.988 -0.8795  0.2643 -0.6219
 6694TIP3    H141573   6.067   6.222   1.950 -0.6800 -0.5546  1.1477
 6694TIP3    H241574   6.020   6.304   2.068 -1.7235  2.0703 -0.9762
 6695TIP3   OH241575   4.829   4.500  12.383 -0.1908 -0.2219  0.0531
 6695TIP3    H141576   4.879   4.513  12.302  0.9025  1.3317  0.9056
 6695TIP3    H241577   4.782   4.418  12.370  0.3495 -0.2637 -1.9502
 6696TIP3   OH241578   3.939   2.453   5.790  0.3642  0.5158  0.1365
 6696TIP3    H141579   3.989   2.431   5.869 -0.9491 -1.0784  0.5858
 6696TIP3    H241580   3.849   2.424   5.810 -0.4983  2.2167 -1.0777
 6697TIP3   OH241581   6.237   4.676   2.454  0.2028 -0.4983 -0.2742
 6697TIP3    H141582   6.267   4.702   2.367 -0.0065  0.0721 -0.1775
 6697TIP3    H241583   6.145   4.652   2.441  0.0096  0.1476 -0.1004
 6698TIP3   OH241584   6.527   4.073   3.760  0.2103 -0.1050 -0.7310
 6698TIP3    H141585   6.510   4.120   3.841  0.1308 -1.6795  0.2064
 6698TIP3    H241586   6.623   4.065   3.756  0.1656 -0.8923 -0.2735
 6699TIP3   OH241587   6.254   6.209   0.667 -0.6041 -0.1627 -0.2031
 6699TIP3    H141588   6.292   6.251   0.744 -0.5833 -0.4815 -0.0395
 6699TIP3    H241589   6.288   6.259   0.593 -0.1864 -0.1990 -0.0375
 6700TIP3   OH241590   0.021   5.155  12.282 -0.2508 -0.5179  0.1122
 6700TIP3    H141591   0.093   5.217  12.293 -0.9581  0.5109 -0.8170
 6700TIP3    H241592   0.057   5.085  12.228 -0.0013  0.0733 -0.4904
 6701TIP3   OH241593   3.130   5.831   6.615 -0.1880 -0.0445  0.5702
 6701TIP3    H141594   3.125   5.735   6.607 -0.6566  0.0315 -0.1307
 6701TIP3    H241595   3.162   5.860   6.529  1.1709  0.3449  1.1727
 6702TIP3   OH241596   6.294   5.688   2.438 -0.1664 -0.0690  0.4540
 6702TIP3    H141597   6.335   5.714   2.356  0.3151  1.7641  1.2216
 6702TIP3    H241598   6.360   5.637   2.484 -0.6780 -1.7204 -0.5310
 6703TIP3   OH241599   5.809   4.454   0.976 -0.0326 -0.2137  0.5230
 6703TIP3    H141600   5.765   4.526   0.931 -0.0124 -0.8637 -0.5920
 6703TIP3    H241601   5.874   4.423   0.912  3.1015  1.6012  2.5697
 6704TIP3   OH241602   2.153   3.008  16.530  0.0638 -0.5957  0.3998
 6704TIP3    H141603   2.104   2.933  16.564 -1.8762  1.1600  1.7321
 6704TIP3    H241604   2.109   3.084  16.567  0.9173  1.3097 -2.2001
 6705TIP3   OH241605   2.550   4.096  16.339 -0.1113 -0.0392  0.3910
 6705TIP3    H141606   2.505   4.107  16.423  0.0904  0.1396  0.4767
 6705TIP3    H241607   2.613   4.026  16.356  1.0140  1.0470  0.8360
 6706TIP3   OH241608   1.785   0.510  13.902 -0.2995  0.0725 -0.3253
 6706TIP3    H141609   1.877   0.495  13.877 -0.1575 -1.1772  0.8810
 6706TIP3    H241610   1.784   0.601  13.934  0.5032  0.1177 -0.4054
 6707TIP3   OH241611   6.233   0.314   2.033  0.4901 -0.2593  0.0629
 6707TIP3    H141612   6.252   0.381   1.967  2.3945 -2.5047 -1.8221
 6707TIP3    H241613   6.191   0.243   1.985  0.8397 -1.4811  1.4819
 6708TIP3   OH241614   1.736   0.982   1.536  0.2471 -0.0212 -0.3166
 6708TIP3    H141615   1.688   1.056   1.499  1.1168 -0.0440 -1.5405
 6708TIP3    H241616   1.759   0.928   1.461 -0.3466 -1.5522  0.5437
 6709TIP3   OH241617   4.361   1.539   4.077 -0.1467  0.1575  0.7938
 6709TIP3    H141618   4.425   1.467   4.082 -1.3517 -0.9522  0.8499
 6709TIP3    H241619   4.281   1.502   4.115 -1.1120  1.1699 -0.1719
 6710TIP3   OH241620   0.058   3.478  13.978 -0.1839  0.1407 -0.2633
 6710TIP3    H141621   0.125   3.485  14.046  1.3320 -0.9575 -1.5612
 6710TIP3    H241622  -0.005   3.547  13.999  1.4554  1.3509  0.9173
 6711TIP3   OH241623   1.993   1.305   4.525  0.3455  0.3613  0.2891
 6711TIP3    H141624   2.029   1.216   4.530  0.9159  0.5762  0.0982
 6711TIP3    H241625   2.006   1.341   4.613 -0.6125 -0.0129  0.5940
 6712TIP3   OH241626   0.506   0.980   0.806  0.5004  0.0809 -0.0410
 6712TIP3    H141627   0.457   0.956   0.727 -0.3378  0.0656  0.4721
 6712TIP3    H241628   0.445   1.033   0.857  0.8818 -0.2699  0.8038
 6713TIP3   OH241629   4.585   2.609   0.609  0.8352  0.2948  0.2553
 6713TIP3    H141630   4.529   2.589   0.684  1.7775 -1.2123  0.6142
 6713TIP3    H241631   4.535   2.578   0.533 -0.6479  2.9199  0.0584
 6714TIP3   OH241632   0.310   0.203  15.108 -0.3446 -0.4018  0.0627
 6714TIP3    H141633   0.399   0.182  15.079 -0.0981 -0.3963  0.7825
 6714TIP3    H241634   0.253   0.155  15.048  0.1700 -1.3242  0.2975
 6715TIP3   OH241635   0.584   0.124  13.332 -0.5975  0.2298 -0.0623
 6715TIP3    H141636   0.525   0.064  13.286 -0.4278 -1.5347  1.8766
 6715TIP3    H241637   0.529   0.200  13.352 -1.5808 -0.3974 -0.2880
 6716TIP3   OH241638   3.979   4.061  16.634  0.2741  0.5428  0.3702
 6716TIP3    H141639   4.006   4.140  16.586 -0.8577 -0.0159 -1.2878
 6716TIP3    H241640   3.889   4.080  16.661 -0.4197 -0.5635 -1.0385
 6717TIP3   OH241641   0.360   3.495  15.705 -0.3556 -0.5036  0.4060
 6717TIP3    H141642   0.446   3.465  15.675 -0.4481 -0.5018  0.1423
 6717TIP3    H241643   0.300   3.471  15.635 -0.3702  0.6853 -0.0156
 6718TIP3   OH241644   4.701   2.553   2.925  0.6645  0.2197 -0.2760
 6718TIP3    H141645   4.683   2.516   2.838  0.1294  1.5894 -0.7788
 6718TIP3    H241646   4.622   2.536   2.975  1.5420 -1.9878  0.5151
 6719TIP3   OH241647   0.509   2.896   0.305 -0.3261 -0.2053  0.2142
 6719TIP3    H141648   0.470   2.865   0.387 -2.2694 -0.2161 -0.6524
 6719TIP3    H241649   0.457   2.972   0.281  2.3908  1.9565  0.6923
 6720TIP3   OH241650   5.982   6.552  15.828  0.1634 -0.4091 -0.3752
 6720TIP3    H141651   6.060   6.499  15.840  0.1736 -0.5061 -0.8479
 6720TIP3    H241652   5.963   6.547  15.734  1.2605  1.9640 -0.7976
 6721TIP3   OH241653   4.612   2.829   1.211  0.1315  0.5463  0.4214
 6721TIP3    H141654   4.623   2.917   1.174  0.9530  1.0967  1.8932
 6721TIP3    H241655   4.595   2.773   1.135 -1.6467  2.1487 -0.4443
 6722TIP3   OH241656   4.230   2.195  12.924 -0.1665  0.4558 -0.2965
 6722TIP3    H141657   4.219   2.283  12.959 -0.2929  0.2864  0.0943
 6722TIP3    H241658   4.279   2.148  12.991  3.0589  1.1674 -1.9652
 6723TIP3   OH241659   5.959   0.599  17.072  0.0383  0.2583 -0.0909
 6723TIP3    H141660   6.015   0.624  17.145 -1.1507  0.1800  0.8669
 6723TIP3    H241661   6.006   0.631  16.994  1.9110 -0.6990  0.5760
 6724TIP3   OH241662   4.895   1.468  11.504  0.3551 -0.0773 -0.0177
 6724TIP3    H141663   4.917   1.544  11.451  1.0361 -2.4401 -3.5101
 6724TIP3    H241664   4.978   1.420  11.513 -0.2388 -0.9496  1.1877
 6725TIP3   OH241665   4.398   2.785  15.201  0.2351 -0.0103 -0.3173
 6725TIP3    H141666   4.462   2.722  15.234  0.1513 -0.4513 -0.9846
 6725TIP3    H241667   4.330   2.786  15.268 -0.1708 -1.2624 -0.6834
 6726TIP3   OH241668   6.300   2.857  11.974 -0.4445 -0.4005 -0.4893
 6726TIP3    H141669   6.262   2.771  11.993 -2.6662  0.4044 -0.9890
 6726TIP3    H241670   6.394   2.841  11.970 -0.7454 -2.6792  0.0639
 6727TIP3   OH241671   5.137   4.875   6.793 -0.5729 -0.4137 -0.5670
 6727TIP3    H141672   5.193   4.948   6.818  0.5107 -1.8075  1.2915
 6727TIP3    H241673   5.057   4.887   6.844 -0.7054 -0.1278 -0.8388
 6728TIP3   OH241674   6.581   4.665  16.474  0.0368 -1.0581  0.1804
 6728TIP3    H141675   6.609   4.696  16.388 -0.6439 -0.7137  0.0754
 6728TIP3    H241676   6.611   4.733  16.535 -0.7706 -0.5623  0.0399
 6729TIP3   OH241677   0.267   6.078  10.328 -0.0638  0.0774 -0.0307
 6729TIP3    H141678   0.337   6.044  10.384  0.0406 -0.6322 -0.5809
 6729TIP3    H241679   0.249   6.007  10.266 -1.0942  0.3460 -0.0621
 6730TIP3   OH241680   6.384   5.561  11.221  0.9757 -0.2949  0.7351
 6730TIP3    H141681   6.435   5.540  11.142 -0.0755 -0.7587  0.1622
 6730TIP3    H241682   6.317   5.493  11.225 -0.2606  0.8983  0.8707
 6731TIP3   OH241683   5.893   0.884  13.532  0.3757 -0.7513  0.3412
 6731TIP3    H141684   5.943   0.936  13.595 -0.5599  0.8874 -0.1910
 6731TIP3    H241685   5.942   0.891  13.450  0.5818 -1.2580  0.4192
 6732TIP3   OH241686   1.990   5.952   6.636 -0.0433  0.7578 -0.1843
 6732TIP3    H141687   2.025   5.940   6.548  1.1772  1.0689  0.2430
 6732TIP3    H241688   1.935   6.030   6.629 -2.2579 -0.7892 -1.2975
 6733TIP3   OH241689   3.140   3.989  12.034 -0.0227  0.1635  0.2011
 6733TIP3    H141690   3.197   4.064  12.014  1.6014 -0.7032  1.3305
 6733TIP3    H241691   3.172   3.956  12.118  0.0831 -2.4575 -0.7551
 6734TIP3   OH241692   1.283   3.435   2.679 -0.3772 -0.4222 -0.6716
 6734TIP3    H141693   1.238   3.397   2.755  0.0571 -1.4075 -0.8883
 6734TIP3    H241694   1.213   3.477   2.629 -0.4475  1.7284  1.0893
 6735TIP3   OH241695   3.583   3.275  17.232 -0.3118 -0.5701  0.1810
 6735TIP3    H141696   3.489   3.290  17.224 -0.5054 -1.3540  0.8437
 6735TIP3    H241697   3.600   3.200  17.175 -0.5276 -1.9279  1.8136
 6736TIP3   OH241698   2.694   3.580  13.405 -0.5211  0.6817 -0.0384
 6736TIP3    H141699   2.712   3.644  13.336 -1.6365  0.9772 -0.0701
 6736TIP3    H241700   2.686   3.497  13.359  1.0271  0.4728  0.0130
 6737TIP3   OH241701   6.658   0.496   3.148 -0.1385 -0.5307 -0.5749
 6737TIP3    H141702   6.732   0.497   3.209  1.7106 -0.9939 -2.6537
 6737TIP3    H241703   6.635   0.588   3.136  1.4600 -0.1952 -1.3647
 6738TIP3   OH241704   0.301   2.339   3.961 -0.0289  0.3921 -0.3645
 6738TIP3    H141705   0.287   2.433   3.945 -1.9905  0.5000  1.5052
 6738TIP3    H241706   0.389   2.334   3.998  0.7505  1.2456 -1.9754
 6739TIP3   OH241707   3.423   2.849   5.231  0.2237 -0.4045  0.7060
 6739TIP3    H141708   3.507   2.804   5.243  1.0829  0.6834 -0.9506
 6739TIP3    H241709   3.368   2.785   5.185  1.4928  0.1496 -1.7776
 6740TIP3   OH241710   0.213   3.272   6.621 -0.1614  0.1379  0.2802
 6740TIP3    H141711   0.213   3.361   6.585 -0.7525  0.1884  0.3915
 6740TIP3    H241712   0.299   3.237   6.599 -0.2599  0.4166 -0.5683
 6741TIP3   OH241713   5.372   3.119   3.515  0.3495 -0.4367  0.3138
 6741TIP3    H141714   5.452   3.144   3.561  0.5694 -0.0227 -0.2739
 6741TIP3    H241715   5.403   3.061   3.445  0.4514  1.4373 -1.2969
 6742TIP3   OH241716   4.118   6.801  16.816 -0.2088  0.0985  0.0802
 6742TIP3    H141717   4.137   6.891  16.841 -0.5346  0.0609  0.4734
 6742TIP3    H241718   4.118   6.752  16.899  1.1012 -0.4854 -0.2338
 6743TIP3   OH241719   4.025   4.033   2.028  0.2511  0.1734  0.2282
 6743TIP3    H141720   3.935   4.001   2.036  0.0394  0.1049 -1.8512
 6743TIP3    H241721   4.038   4.088   2.105 -1.2854 -0.4620  0.9851
 6744TIP3   OH241722   2.364   0.205  14.119  0.0578 -0.1955  0.3477
 6744TIP3    H141723   2.315   0.129  14.088 -1.2489  0.6381  0.2973
 6744TIP3    H241724   2.406   0.240  14.040  0.5007 -0.7360  0.3380
 6745TIP3   OH241725   4.039   3.708  15.737 -0.4438  0.5545 -0.5673
 6745TIP3    H141726   4.024   3.669  15.651 -1.2698 -1.0545  0.2555
 6745TIP3    H241727   3.989   3.653  15.797  0.9535  1.0090  1.0852
 6746TIP3   OH241728   2.272   3.363  17.017  0.4079  0.2051  0.1553
 6746TIP3    H141729   2.294   3.377  16.925  3.5578 -1.8128  0.4742
 6746TIP3    H241730   2.334   3.418  17.065 -1.0143  1.0085  1.1438
 6747TIP3   OH241731   6.717   3.061  14.048  0.0944 -0.2974  0.0753
 6747TIP3    H141732   6.712   2.992  14.115  1.0170  0.8406  1.3933
 6747TIP3    H241733   6.810   3.087  14.048 -0.3036  1.2397 -0.0494
 6748TIP3   OH241734   2.985   6.051  14.148  0.5283 -0.2214 -0.3218
 6748TIP3    H141735   2.960   6.129  14.198  1.1705 -0.0632 -0.2405
 6748TIP3    H241736   2.995   5.982  14.214 -0.3733 -0.4694 -0.4275
 6749TIP3   OH241737   4.073   4.974  11.079  0.0256 -0.1143  0.5086
 6749TIP3    H141738   4.001   5.032  11.103  0.0889  0.5625 -0.8347
 6749TIP3    H241739   4.037   4.885  11.088 -0.7708  0.1970  0.4489
 6750TIP3   OH241740   6.546   4.397   4.862 -0.1899 -0.2445  0.1785
 6750TIP3    H141741   6.639   4.375   4.861 -0.3277 -0.9333  1.3081
 6750TIP3    H241742   6.522   4.403   4.770  0.7283 -1.1294 -0.1362
 6751TIP3   OH241743   1.955   3.498  12.137  0.5319  0.3138 -0.0947
 6751TIP3    H141744   1.878   3.550  12.160  0.5307  0.4339 -0.3577
 6751TIP3    H241745   1.923   3.434  12.073  0.6904  0.5063 -0.3701
 6752TIP3   OH241746   6.235   5.475   3.491  0.1989  0.5821  0.4997
 6752TIP3    H141747   6.299   5.410   3.520 -0.0415  0.9118  1.8020
 6752TIP3    H241748   6.161   5.422   3.458 -0.2180  0.1573  2.0343
 6753TIP3   OH241749   6.373   2.146  14.595 -0.3760 -0.0259  0.0716
 6753TIP3    H141750   6.418   2.219  14.552  0.1381 -1.8778 -2.7824
 6753TIP3    H241751   6.429   2.070  14.580 -1.4013 -1.2735  2.0208
 6754TIP3   OH241752   3.373   4.890   2.968  0.1413  0.4825  0.5748
 6754TIP3    H141753   3.451   4.921   2.921  0.0290  0.8906  0.6474
 6754TIP3    H241754   3.301   4.903   2.906  0.3320 -1.3423 -0.0675
 6755TIP3   OH241755   0.674   6.338  13.179 -0.2147 -0.1449  0.3971
 6755TIP3    H141756   0.750   6.313  13.127 -0.5045 -0.1840 -0.0154
 6755TIP3    H241757   0.615   6.262  13.174 -0.0749 -0.3099  1.1189
 6756TIP3   OH241758   2.135   2.654  12.138 -0.5183 -0.2332  0.4822
 6756TIP3    H141759   2.215   2.699  12.163 -0.2091 -0.3986 -0.2045
 6756TIP3    H241760   2.072   2.679  12.206 -0.0348  0.3054  0.7442
 6757TIP3   OH241761   4.892   0.256  11.409  0.1174 -0.5183 -0.0800
 6757TIP3    H141762   4.873   0.336  11.360  1.3561 -1.0937 -1.6195
 6757TIP3    H241763   4.830   0.256  11.481 -1.2922  0.7782 -1.2295
 6758TIP3   OH241764   3.476   0.438   5.184 -0.3424 -0.3371  0.3957
 6758TIP3    H141765   3.474   0.468   5.093  2.6015 -1.0148  0.0097
 6758TIP3    H241766   3.406   0.486   5.227  0.1001  2.2558 -1.5792
 6759TIP3   OH241767   3.469   0.122   1.180  0.3506 -0.6262 -0.0831
 6759TIP3    H141768   3.400   0.069   1.219  2.0587 -1.6928  1.6829
 6759TIP3    H241769   3.475   0.199   1.237 -0.3659  0.2514 -1.1379
 6760TIP3   OH241770   3.842   5.509   1.453 -0.4558  0.2569 -0.0248
 6760TIP3    H141771   3.903   5.578   1.479 -1.3301  1.5367 -1.2203
 6760TIP3    H241772   3.888   5.460   1.385  0.5663 -1.0459  1.5352
 6761TIP3   OH241773   1.149   6.431  10.603 -0.3394 -0.1327  0.0248
 6761TIP3    H141774   1.124   6.340  10.619 -0.9173 -0.1739 -1.0115
 6761TIP3    H241775   1.084   6.483  10.650  1.5984 -0.1868  3.0232
 6762TIP3   OH241776   5.898   2.704  15.568  0.5548 -0.1293 -0.1108
 6762TIP3    H141777   5.984   2.738  15.592  1.1320 -0.4046 -1.6775
 6762TIP3    H241778   5.861   2.771  15.511  1.6541 -1.8703 -3.1324
 6763TIP3   OH241779   5.332   4.226  15.974  0.1077 -0.0075 -0.1078
 6763TIP3    H141780   5.398   4.223  16.043  0.4978  0.4175 -0.4566
 6763TIP3    H241781   5.366   4.290  15.911 -0.7701  0.4333 -0.1506
 6764TIP3   OH241782   0.040   1.996  11.758 -0.0975  0.3993 -1.0773
 6764TIP3    H141783   0.123   2.039  11.737  0.3850  0.8935  1.4773
 6764TIP3    H241784   0.062   1.903  11.763  0.9698  0.7122  1.9207
 6765TIP3   OH241785   3.389   0.327  17.148 -0.3338  1.0675 -0.4049
 6765TIP3    H141786   3.356   0.416  17.132  0.0483  1.1591 -0.7174
 6765TIP3    H241787   3.484   0.339  17.160 -0.3962  0.8046  0.3935
 6766TIP3   OH241788   3.937   0.989  11.929 -0.6494 -0.1456  0.0945
 6766TIP3    H141789   3.952   1.033  11.845 -1.3775 -1.1348 -0.5734
 6766TIP3    H241790   3.849   1.018  11.956 -0.1919  0.6210  0.8194
 6767TIP3   OH241791   2.313   1.755   1.785 -0.3829 -0.2600 -0.0559
 6767TIP3    H141792   2.294   1.848   1.770  0.5168 -0.0897 -0.1806
 6767TIP3    H241793   2.331   1.748   1.878 -1.9094 -0.5887  0.2414
 6768TIP3   OH241794   2.388   5.563  11.157  0.8145  0.4856  0.2424
 6768TIP3    H141795   2.367   5.511  11.080  1.2106 -0.5421  0.8108
 6768TIP3    H241796   2.320   5.630  11.160 -0.4096 -0.7010  0.1375
 6769TIP3   OH241797   4.566   2.971  13.133 -0.5362 -0.5713 -0.3880
 6769TIP3    H141798   4.641   2.952  13.077 -0.6513  0.2717 -0.8389
 6769TIP3    H241799   4.564   2.898  13.195  1.0857 -0.2639  0.0754
 6770TIP3   OH241800   5.729   4.216  16.430  0.1609  0.2821  0.3411
 6770TIP3    H141801   5.672   4.146  16.398  1.5035  0.1510 -1.9538
 6770TIP3    H241802   5.808   4.171  16.459  0.9916  0.7873 -1.0520
 6771TIP3   OH241803   6.728   0.700   3.389 -0.8207  0.2311 -0.4330
 6771TIP3    H141804   6.777   0.633   3.435 -0.7900  1.0140  0.7285
 6771TIP3    H241805   6.789   0.736   3.325  0.9434  2.5617  2.2871
 6772TIP3   OH241806   2.973   2.734   2.333 -0.2578 -0.1189  0.4748
 6772TIP3    H141807   3.061   2.697   2.334 -0.6997 -1.1926  0.7514
 6772TIP3    H241808   2.915   2.658   2.331 -1.1839  0.5745  0.2552
 6773TIP3   OH241809   4.937   0.595  16.174  0.5918 -0.5510  0.2230
 6773TIP3    H141810   4.873   0.597  16.102  0.1910 -0.1374  0.5832
 6773TIP3    H241811   4.899   0.651  16.241  0.4070 -1.8359  1.2286
 6774TIP3   OH241812   6.038   0.375  14.775  0.0597 -0.0533  0.2850
 6774TIP3    H141813   6.085   0.298  14.744 -0.7132 -0.6946  0.6890
 6774TIP3    H241814   6.105   0.443  14.781  0.3932 -0.1057 -2.0251
 6775TIP3   OH241815   3.656   2.887  15.055 -0.1058 -0.5099  0.3720
 6775TIP3    H141816   3.600   2.880  14.977  0.5255 -0.2112 -0.1148
 6775TIP3    H241817   3.701   2.971  15.045 -1.9868  0.8359  2.4040
 6776TIP3   OH241818   5.638   1.624  12.428 -0.3133  0.1701  0.1455
 6776TIP3    H141819   5.601   1.541  12.399 -1.0205  0.4205  0.3024
 6776TIP3    H241820   5.572   1.689  12.403 -0.0642  0.6072  0.6083
 6777TIP3   OH241821   3.069   5.141  12.904 -0.2284  0.0277 -0.4913
 6777TIP3    H141822   3.105   5.159  12.817  0.2233  1.6293 -0.0031
 6777TIP3    H241823   3.085   5.048  12.917  2.4635  0.3493 -0.9137
 6778TIP3   OH241824   4.726   5.272   2.840 -0.3490 -0.2854  0.7113
 6778TIP3    H141825   4.670   5.276   2.917 -0.2580 -0.3265  0.7787
 6778TIP3    H241826   4.685   5.205   2.784 -2.0261  1.6449 -0.5352
 6779TIP3   OH241827   1.832   1.718  14.610  0.0040  0.0142 -0.4342
 6779TIP3    H141828   1.881   1.714  14.527  2.0847 -0.6522  0.7433
 6779TIP3    H241829   1.897   1.745  14.675 -0.5536 -3.0297  1.6212
 6780TIP3   OH241830   4.353   0.036  13.511  0.1368 -0.1001 -0.1259
 6780TIP3    H141831   4.337  -0.052  13.475  0.4736 -0.1384 -0.1836
 6780TIP3    H241832   4.448   0.041  13.521  0.2486  0.8112 -1.4891
 6781TIP3   OH241833   3.629   3.538   4.988  1.1729 -0.5931  0.1742
 6781TIP3    H141834   3.623   3.513   4.895 -0.8457  1.5318 -0.3801
 6781TIP3    H241835   3.565   3.481   5.031 -1.2111  1.3299 -0.5820
 6782TIP3   OH241836   5.887   6.044   2.820  0.0905 -0.2068 -0.2574
 6782TIP3    H141837   5.819   5.976   2.824  1.9014 -2.0914  0.8040
 6782TIP3    H241838   5.839   6.126   2.832 -2.0566 -1.3732 -0.2141
 6783TIP3   OH241839   2.186   3.975  14.394 -0.3914 -0.1183  0.3755
 6783TIP3    H141840   2.153   4.019  14.316  0.8491 -0.0495 -0.1370
 6783TIP3    H241841   2.235   4.043  14.441 -0.2109 -0.4308  0.6457
 6784TIP3   OH241842   3.063   5.655   1.152  0.3794 -0.8230  0.1545
 6784TIP3    H141843   3.152   5.689   1.163  0.3713 -0.7831  0.0926
 6784TIP3    H241844   3.015   5.689   1.228  0.0154  0.4557 -0.6132
 6785TIP3   OH241845   2.595   6.535   5.111 -0.4559  0.0716 -0.1982
 6785TIP3    H141846   2.585   6.627   5.137 -0.8118  0.7699 -2.5309
 6785TIP3    H241847   2.632   6.540   5.022  0.1407 -2.0737 -0.1075
 6786TIP3   OH241848   1.006   1.764  16.462 -0.4234  0.0704  0.1770
 6786TIP3    H141849   0.947   1.702  16.506  1.8199 -2.4593 -0.0789
 6786TIP3    H241850   0.967   1.777  16.375 -1.4954 -0.1342  0.6142
 6787TIP3   OH241851   1.626   1.933  12.958 -0.4585 -0.2594 -0.0451
 6787TIP3    H141852   1.679   1.985  13.018 -0.7629 -0.3450  0.2956
 6787TIP3    H241853   1.624   1.984  12.877  1.7383 -1.0967 -0.7234
 6788TIP3   OH241854   3.615   0.192  12.754 -0.5916  0.1076  0.1655
 6788TIP3    H141855   3.563   0.165  12.830 -0.4438 -1.0105 -0.1109
 6788TIP3    H241856   3.660   0.112  12.726  0.6725  0.8665 -0.0767
 6789TIP3   OH241857   6.652   6.402   0.537  0.6145  0.2368  0.2382
 6789TIP3    H141858   6.725   6.349   0.506  0.1956 -0.0332 -0.2944
 6789TIP3    H241859   6.643   6.472   0.472 -1.1226 -1.0870 -1.0328
 6790TIP3   OH241860   6.374   2.322  12.843  0.1334 -0.0365  0.0994
 6790TIP3    H141861   6.420   2.254  12.892  0.4622 -0.1449 -0.3497
 6790TIP3    H241862   6.441   2.359  12.785 -0.4314 -0.4707 -0.8510
 6791TIP3   OH241863   0.561   6.099  13.123 -0.4856 -0.2403 -0.1921
 6791TIP3    H141864   0.588   6.029  13.063 -0.4416  0.4570 -0.9911
 6791TIP3    H241865   0.471   6.118  13.100 -0.6138 -0.2737  0.2660
 6792TIP3   OH241866   5.611   2.041   1.868  0.1101  0.3435 -0.1600
 6792TIP3    H141867   5.638   1.998   1.787 -1.9604  0.5547 -1.0238
 6792TIP3    H241868   5.614   1.971   1.934  1.0498 -0.0233 -0.5779
 6793TIP3   OH241869   2.271   2.970   3.517 -0.1129 -0.6341  0.5515
 6793TIP3    H141870   2.240   2.941   3.603 -0.6145 -2.0272 -0.0568
 6793TIP3    H241871   2.197   3.018   3.479 -0.5165 -1.4436  0.2687
 6794TIP3   OH241872   0.655   5.049   0.593 -0.4794  0.4142  0.0213
 6794TIP3    H141873   0.574   5.035   0.642 -0.2283  0.4580  0.4534
 6794TIP3    H241874   0.717   4.988   0.631 -0.2438  0.5371 -0.1608
 6795TIP3   OH241875   1.067   2.182  16.836  0.2420  0.2954  0.4416
 6795TIP3    H141876   1.015   2.104  16.814  0.3301  0.7055 -1.4308
 6795TIP3    H241877   1.004   2.244  16.871 -0.1655  0.0509  0.1516
 6796TIP3   OH241878   3.836   1.887  14.992 -0.5172 -0.1855 -0.2974
 6796TIP3    H141879   3.820   1.859  15.082 -0.7056 -1.8372 -0.7975
 6796TIP3    H241880   3.822   1.982  14.993  1.3824  0.1534  1.7950
 6797TIP3   OH241881   0.362   0.100   0.195 -0.6874  0.0945  0.4426
 6797TIP3    H141882   0.355   0.007   0.213 -0.4803  0.1808  0.9983
 6797TIP3    H241883   0.455   0.120   0.205 -0.3932 -0.0119 -1.6046
 6798TIP3   OH241884   2.459   6.609   0.244 -0.4842  0.3821 -0.1074
 6798TIP3    H141885   2.459   6.694   0.201 -0.6217  1.2270  1.4631
 6798TIP3    H241886   2.535   6.611   0.303  0.7239 -1.4005 -1.4811
 6799TIP3   OH241887   0.570   4.830   2.379  0.0713  0.1763  0.0069
 6799TIP3    H141888   0.487   4.819   2.426 -0.4795 -0.1554 -1.0171
 6799TIP3    H241889   0.566   4.918   2.343  0.3473  0.3053  0.2827
 6800TIP3   OH241890   3.002   1.651  14.652 -0.7225  0.1691  0.3308
 6800TIP3    H141891   2.935   1.646  14.583 -1.0934 -2.4304  0.7663
 6800TIP3    H241892   2.961   1.704  14.721 -0.5660  2.3214 -1.1140
 6801TIP3   OH241893   2.564   2.581   3.652  0.8566 -0.5022 -0.7151
 6801TIP3    H141894   2.483   2.610   3.609  0.3294  0.4600  0.8495
 6801TIP3    H241895   2.612   2.533   3.584  0.9633  2.5400 -2.9591
 6802TIP3   OH241896   3.816   0.009  16.760  0.3743 -0.1302  0.5978
 6802TIP3    H141897   3.872  -0.007  16.835 -0.4433 -0.9712  1.0386
 6802TIP3    H241898   3.847   0.093  16.725  2.2954 -0.8421  0.4512
 6803TIP3   OH241899   1.768   5.133   0.533 -0.4031 -0.0860 -0.3488
 6803TIP3    H141900   1.699   5.086   0.486 -0.6978  0.6489 -0.6498
 6803TIP3    H241901   1.847   5.079   0.519 -0.6583 -0.3029 -0.9903
 6804TIP3   OH241902   4.327   4.072  11.837 -0.0117  0.3591  0.0163
 6804TIP3    H141903   4.306   4.147  11.781  1.5933 -0.9568 -2.5770
 6804TIP3    H241904   4.267   4.004  11.809 -0.2144  0.1200  1.0191
 6805TIP3   OH241905   4.967   5.995   4.332  0.2690 -0.7245  0.0301
 6805TIP3    H141906   4.917   6.049   4.394  0.0422 -1.1942  0.2664
 6805TIP3    H241907   4.912   5.917   4.320  0.8579 -1.1571  0.1355
 6806TIP3   OH241908   1.434   2.203  11.763  0.3718  0.6641  0.1588
 6806TIP3    H141909   1.503   2.206  11.697  0.2606  1.1964  0.0622
 6806TIP3    H241910   1.469   2.250  11.838  0.8449 -0.7053  0.8342
 6807TIP3   OH241911   5.528   1.586  12.695 -0.2180 -0.1005 -0.2303
 6807TIP3    H141912   5.449   1.610  12.646  0.3024  2.4839  0.0855
 6807TIP3    H241913   5.529   1.490  12.691 -2.4417 -0.1583 -1.6741
 6808TIP3   OH241914   1.963   1.570   5.863  0.4264  0.2318 -0.1688
 6808TIP3    H141915   1.882   1.552   5.911  1.2059 -1.2438  0.6774
 6808TIP3    H241916   1.939   1.637   5.800 -2.2197 -2.1514 -1.9476
 6809TIP3   OH241917   3.330   4.757   6.360  0.3770 -0.4392  0.0178
 6809TIP3    H141918   3.412   4.772   6.407 -0.8201 -0.1736  2.1425
 6809TIP3    H241919   3.267   4.817   6.400 -0.8125 -0.3659 -1.8085
 6810TIP3   OH241920   5.562   2.862  16.110  0.8282  0.7844 -0.1716
 6810TIP3    H141921   5.565   2.821  16.023  1.5996  1.5883 -0.5438
 6810TIP3    H241922   5.648   2.903  16.119  0.6534  0.9336  0.8703
 6811TIP3   OH241923   5.005   0.169  12.297 -0.1792 -0.2806 -0.0414
 6811TIP3    H141924   5.085   0.194  12.345  0.0551 -1.8241  0.4222
 6811TIP3    H241925   4.957   0.113  12.358 -2.1863  1.4697  0.0908
 6812TIP3   OH241926   3.348   1.832   5.025  0.1419 -0.0902  0.0177
 6812TIP3    H141927   3.406   1.763   5.059 -0.2746 -0.0393  0.8518
 6812TIP3    H241928   3.315   1.796   4.943  0.6217 -0.5208  0.0069
 6813TIP3   OH241929   0.226   5.853   3.481  0.2811 -0.7691 -0.2609
 6813TIP3    H141930   0.248   5.811   3.564 -0.8567  2.5825  1.9860
 6813TIP3    H241931   0.310   5.870   3.439  0.9902 -1.3113  0.8932
 6814TIP3   OH241932   4.872   2.252  15.728  0.1980  0.0738 -0.3940
 6814TIP3    H141933   4.855   2.323  15.789 -0.1078  0.3528 -0.8005
 6814TIP3    H241934   4.917   2.294  15.655  2.4076 -0.5775  0.5093
 6815TIP3   OH241935   0.658   2.334   0.640  0.4579 -0.1417  0.0816
 6815TIP3    H141936   0.587   2.299   0.587 -0.7688  0.6726  1.1171
 6815TIP3    H241937   0.618   2.408   0.687  2.2167  0.8852  0.0436
 6816TIP3   OH241938   5.255   2.027  15.710  0.0218  0.2889  0.5850
 6816TIP3    H141939   5.333   1.975  15.727 -0.9743 -1.4706  0.1262
 6816TIP3    H241940   5.186   1.962  15.693 -1.6794  1.7428  1.5105
 6817TIP3   OH241941   2.377   2.993  10.853  0.3714 -0.0204 -0.0042
 6817TIP3    H141942   2.428   2.987  10.933 -0.2093  1.1523  0.4775
 6817TIP3    H241943   2.311   2.924  10.862  0.4324 -0.0261  0.4254
 6818TIP3   OH241944   2.892   2.273   2.570 -0.1904  0.1462 -0.5531
 6818TIP3    H141945   2.861   2.210   2.636  0.7943 -0.8949 -1.0272
 6818TIP3    H241946   2.814   2.319   2.542 -0.6771  0.4549  1.1687
 6819TIP3   OH241947   0.941   6.116  11.589 -0.0349  0.7461  0.2477
 6819TIP3    H141948   0.919   6.119  11.496 -1.9376 -3.1458  0.3428
 6819TIP3    H241949   1.036   6.102  11.591 -0.0053  0.6068 -1.1356
 6820TIP3   OH241950   2.173   0.271  11.722  0.2348 -0.5094  0.0713
 6820TIP3    H141951   2.127   0.241  11.800  0.5912 -0.2041  0.4028
 6820TIP3    H241952   2.265   0.278  11.749  0.2738  0.1643 -0.2010
 6821TIP3   OH241953   6.771   3.184   1.747 -0.4485 -0.0959 -0.3047
 6821TIP3    H141954   6.748   3.118   1.681  1.1974 -1.1292  0.0597
 6821TIP3    H241955   6.808   3.256   1.697  0.8360 -0.8949 -0.5746
 6822TIP3   OH241956   4.720   4.711  10.426  0.5348 -0.1058 -0.7821
 6822TIP3    H141957   4.798   4.655  10.432  0.7400 -0.1363 -2.8121
 6822TIP3    H241958   4.754   4.800  10.428  0.4207 -0.0719  0.1760
 6823TIP3   OH241959   4.063   5.684  11.837 -0.3255  0.7160  0.3674
 6823TIP3    H141960   3.982   5.686  11.889 -0.1936  0.3248  0.5851
 6823TIP3    H241961   4.098   5.773  11.845 -0.6404  0.8399  0.4149
 6824TIP3   OH241962   3.812   4.959   4.965 -0.5145 -0.1690  0.4637
 6824TIP3    H141963   3.879   5.026   4.975  0.0255 -0.5880 -0.1959
 6824TIP3    H241964   3.836   4.891   5.028  0.2733 -0.7652 -0.4450
 6825TIP3   OH241965   1.088   6.499  11.656 -0.2908 -0.1091 -0.4928
 6825TIP3    H141966   1.176   6.514  11.692 -0.5375 -0.6244  0.3483
 6825TIP3    H241967   1.101   6.501  11.561  0.6041 -0.0280 -0.3801
 6826TIP3   OH241968   4.593   5.926   0.372 -0.8378  0.2895 -0.4339
 6826TIP3    H141969   4.589   5.853   0.433  2.8156  0.1766 -0.0774
 6826TIP3    H241970   4.593   6.004   0.427 -1.8841  0.4324 -0.6218
 6827TIP3   OH241971   1.885   1.796  13.001  0.1025  0.7647  0.3772
 6827TIP3    H141972   1.801   1.836  12.979 -0.4335 -1.5798 -2.6456
 6827TIP3    H241973   1.862   1.714  13.045  0.7359  0.1145 -0.4515
 6828TIP3   OH241974   3.527   0.695  15.258  0.3387 -0.1433  0.1020
 6828TIP3    H141975   3.481   0.619  15.223 -0.0371  0.2118 -0.1788
 6828TIP3    H241976   3.534   0.677  15.352  1.7165 -1.2842 -0.1945
 6829TIP3   OH241977   2.121   2.577   1.611  0.2608 -0.3536 -0.4037
 6829TIP3    H141978   2.176   2.642   1.655 -2.1177  0.2993  1.8905
 6829TIP3    H241979   2.147   2.581   1.519  1.2846  2.7443 -0.0931
 6830TIP3   OH241980   2.096   5.139   4.804 -0.2275  0.1935 -0.2364
 6830TIP3    H141981   2.173   5.083   4.807  0.3908  1.0400  1.2838
 6830TIP3    H241982   2.111   5.203   4.874 -2.1464  0.6001 -0.1415
 6831TIP3   OH241983   5.662   4.795  16.084 -0.2486 -0.4223 -0.3431
 6831TIP3    H141984   5.724   4.850  16.036  0.0740 -0.7333 -0.2853
 6831TIP3    H241985   5.682   4.811  16.176 -1.8818  1.3547 -0.2385
 6832TIP3   OH241986   5.121   2.456  13.972 -0.1523  0.1263 -0.2730
 6832TIP3    H141987   5.160   2.520  14.032  0.3503 -1.0100  0.6482
 6832TIP3    H241988   5.035   2.492  13.952 -0.0083  0.9309  0.4797
 6833TIP3   OH241989   0.054   2.258  15.111 -0.1884  0.1330 -0.4093
 6833TIP3    H141990   0.098   2.318  15.171  0.0581  0.8214 -1.2495
 6833TIP3    H241991   0.106   2.178  15.113 -0.2636  0.0967  0.3880
 6834TIP3   OH241992   1.771   1.751  12.314  0.3372 -0.4288 -0.4461
 6834TIP3    H141993   1.685   1.750  12.273  0.0219 -1.5986  0.2059
 6834TIP3    H241994   1.786   1.842  12.338 -1.6758 -0.5106  1.3791
 6835TIP3   OH241995   0.661   5.178  11.569 -0.5281 -0.8769  0.7101
 6835TIP3    H141996   0.647   5.238  11.642 -1.4256 -2.7798  2.2034
 6835TIP3    H241997   0.612   5.216  11.496 -0.3388  0.6180  1.3281
 6836TIP3   OH241998   3.308   5.503   6.192  0.7054  0.3585  0.4371
 6836TIP3    H141999   3.324   5.576   6.252  0.3000  1.0422 -0.2661
 6836TIP3    H242000   3.230   5.460   6.227  0.2772  0.9529  0.2374
 6837TIP3   OH242001   0.960   0.659  16.342  0.1785 -0.4946 -0.0151
 6837TIP3    H142002   1.030   0.698  16.394 -0.7411  1.1025  0.0824
 6837TIP3    H242003   0.883   0.662  16.399 -0.6641  0.5589 -1.1679
 6838TIP3   OH242004   3.186   2.937  14.145 -0.1501 -0.4236 -0.6179
 6838TIP3    H142005   3.190   3.025  14.107  0.2564 -0.1227  0.1064
 6838TIP3    H242006   3.264   2.893  14.112  1.0552  0.3446  1.0546
 6839TIP3   OH242007   3.296   2.546   5.598  0.7534  0.1370 -0.3694
 6839TIP3    H142008   3.359   2.546   5.526  2.0066  1.6212  0.6479
 6839TIP3    H242009   3.349   2.534   5.677 -0.3834  0.1945  0.4293
 6840TIP3   OH242010   1.092   2.059  15.787 -0.7365 -0.0052 -0.1031
 6840TIP3    H142011   1.108   1.966  15.802 -0.3348  0.4041  2.6077
 6840TIP3    H242012   1.012   2.078  15.835 -0.8042  1.0679 -0.6073
 6841TIP3   OH242013   5.833   3.478  16.658 -0.2418 -0.4641 -0.7860
 6841TIP3    H142014   5.757   3.508  16.608 -0.6683  0.4162  0.3531
 6841TIP3    H242015   5.827   3.525  16.741  1.6986 -0.1700 -0.7696
 6842TIP3   OH242016   3.919   1.125   4.439 -0.6031 -0.0894 -0.2111
 6842TIP3    H142017   4.010   1.151   4.421 -0.5898  1.4368  1.7085
 6842TIP3    H242018   3.923   1.029   4.444  0.9953 -0.0452  0.1584
 6843TIP3   OH242019   4.104   3.239   2.655 -0.1852  0.4658 -0.5936
 6843TIP3    H142020   4.085   3.207   2.743  0.1171 -1.9357 -1.3231
 6843TIP3    H242021   4.199   3.228   2.645 -0.3012  0.1028 -1.4135
 6844TIP3   OH242022   4.009   6.659  14.744 -0.7753 -0.7489  0.9450
 6844TIP3    H142023   3.930   6.613  14.773 -0.9395 -0.5716  0.7737
 6844TIP3    H242024   4.062   6.591  14.702 -0.4591 -1.0468  1.8087
 6845TIP3   OH242025   5.523   5.109   2.587 -0.3878  0.2937 -0.3757
 6845TIP3    H142026   5.580   5.042   2.550 -1.6733 -0.3431 -1.2752
 6845TIP3    H242027   5.564   5.192   2.564  0.0527 -0.1499 -1.2075
 6846TIP3   OH242028   6.751   6.212   2.446  0.3095  0.5858 -0.1042
 6846TIP3    H142029   6.694   6.137   2.463 -0.8350  1.1622 -1.2434
 6846TIP3    H242030   6.787   6.195   2.359  0.2865  1.1989 -0.2374
 6847TIP3   OH242031   2.553   5.757   1.515  0.4089  0.3952 -0.2919
 6847TIP3    H142032   2.532   5.664   1.503  0.0204  0.3924  0.4119
 6847TIP3    H242033   2.622   5.758   1.581 -0.1503  0.6537  0.2976
 6848TIP3   OH242034   2.718   5.553   4.939  0.0071 -0.3701  0.2937
 6848TIP3    H142035   2.736   5.547   5.032 -1.1502 -0.2160  0.5411
 6848TIP3    H242036   2.765   5.631   4.910  1.8427 -1.3981  0.3573
 6849TIP3   OH242037   0.858   6.098  17.277 -0.4846  0.4895  0.1770
 6849TIP3    H142038   0.806   6.050  17.342  0.9018  0.2482  1.1651
 6849TIP3    H242039   0.948   6.083  17.304  0.0843  1.3259 -1.1833
 6850TIP3   OH242040   2.041   1.832  16.717  0.4216  0.2079 -0.0791
 6850TIP3    H142041   2.068   1.748  16.681  0.0565 -0.1834  0.5492
 6850TIP3    H242042   2.123   1.882  16.725  0.4633  0.4970 -1.8821
 6851TIP3   OH242043   5.329   5.925   6.439 -0.1544  0.2891 -0.2059
 6851TIP3    H142044   5.289   5.855   6.386  0.8433  0.2455 -0.9369
 6851TIP3    H242045   5.354   5.992   6.375  1.4426  0.0624  0.1396
 6852TIP3   OH242046   4.870   6.249  11.350  0.4950 -0.2367  0.6551
 6852TIP3    H142047   4.905   6.325  11.303  1.2708 -1.3488 -0.6266
 6852TIP3    H242048   4.783   6.235  11.311 -0.0455  0.5269  1.5422
 6853TIP3   OH242049   4.102   5.988   5.087 -0.1107 -0.5948  0.3268
 6853TIP3    H142050   4.174   5.925   5.092 -0.5751 -1.1554  0.0260
 6853TIP3    H242051   4.145   6.074   5.089  0.5650 -0.9225  0.0618
 6854TIP3   OH242052   5.674   1.282  14.643 -0.6201 -0.2469  0.0027
 6854TIP3    H142053   5.684   1.192  14.676 -1.3744 -0.6624 -0.8672
 6854TIP3    H242054   5.733   1.287  14.568  0.5181  0.4560  0.9219
 6855TIP3   OH242055   2.885   6.349  11.762 -0.3097 -0.2294 -0.3547
 6855TIP3    H142056   2.912   6.286  11.829  0.2069  1.1171  0.7450
 6855TIP3    H242057   2.955   6.346  11.696  0.9665  0.9067  0.8903
 6856TIP3   OH242058   6.381   4.046  11.622 -0.1663  0.3586 -0.5330
 6856TIP3    H142059   6.364   4.136  11.651 -1.6070  0.4350 -1.5280
 6856TIP3    H242060   6.351   3.992  11.695 -1.8574  0.6187 -1.0005
 6857TIP3   OH242061   4.801   5.993   1.860 -0.3627  0.0210 -0.7716
 6857TIP3    H142062   4.856   5.993   1.938  0.4439  1.9965 -1.2729
 6857TIP3    H242063   4.748   5.913   1.868  1.5559 -1.2125  0.4312
 6858TIP3   OH242064   2.847   0.075   2.676 -0.1536 -0.5419 -0.4313
 6858TIP3    H142065   2.893   0.155   2.701 -0.7668 -0.2469 -0.2426
 6858TIP3    H242066   2.828   0.031   2.759 -2.5671  0.6464 -0.2934
 6859TIP3   OH242067   0.470   1.719   5.070 -0.0271  0.4186  1.1361
 6859TIP3    H142068   0.421   1.692   4.992  3.6380  0.8624 -1.6109
 6859TIP3    H242069   0.500   1.637   5.109  0.2789  0.2124  0.4882
 6860TIP3   OH242070   4.036   6.643  11.267 -0.1238  0.4230  0.3249
 6860TIP3    H142071   4.045   6.717  11.326  1.2821  0.8762 -0.3960
 6860TIP3    H242072   3.957   6.661  11.216 -0.7958  0.5059  1.3848
 6861TIP3   OH242073   0.804   1.828  16.278  0.7065  0.0944 -0.2047
 6861TIP3    H142074   0.810   1.807  16.185 -1.6081 -1.5287 -0.0546
 6861TIP3    H242075   0.717   1.866  16.289 -0.1075 -2.1230  1.6733
 6862TIP3   OH242076   3.204   5.478   0.129 -0.3041  0.1717 -0.0372
 6862TIP3    H142077   3.185   5.547   0.193 -1.1162 -0.3456  0.3037
 6862TIP3    H242078   3.121   5.466   0.082  0.1431  0.1897 -0.8386
 6863TIP3   OH242079   2.911   5.198   3.007  0.6088 -0.6276 -0.0421
 6863TIP3    H142080   2.866   5.160   2.931  2.0830 -0.6802 -0.9318
 6863TIP3    H242081   2.981   5.135   3.027  1.6967  0.5110 -0.1345
 6864TIP3   OH242082   1.889   4.087  12.811  0.4506  0.3964 -0.0259
 6864TIP3    H142083   1.809   4.074  12.862  0.0412  0.4604 -0.6388
 6864TIP3    H242084   1.893   4.011  12.753 -0.2931  1.4098 -1.4583
 6865TIP3   OH242085   6.686   2.409   5.446 -0.6108  0.3365 -0.2085
 6865TIP3    H142086   6.772   2.394   5.484 -0.4907 -0.6796 -0.8469
 6865TIP3    H242087   6.632   2.337   5.478 -1.1575  0.8117 -0.0360
 6866TIP3   OH242088   1.430   0.423  14.236 -0.4599  0.3039  0.1211
 6866TIP3    H142089   1.500   0.467  14.285 -0.5650 -1.6897  2.2095
 6866TIP3    H242090   1.355   0.423  14.295 -1.8917  1.2272 -1.5774
 6867TIP3   OH242091   0.175   2.148  14.002 -0.3976 -0.0350 -0.2016
 6867TIP3    H142092   0.141   2.101  13.926  1.1170 -0.7101 -0.4973
 6867TIP3    H242093   0.179   2.081  14.071  1.5602 -0.3379 -0.5619
 6868TIP3   OH242094   0.607   3.692   0.387  0.6752 -0.3870 -0.1043
 6868TIP3    H142095   0.642   3.778   0.363  2.1625 -0.2869  2.0922
 6868TIP3    H242096   0.569   3.706   0.474  1.0082 -1.9581  0.3110
 6869TIP3   OH242097   0.171   2.558  13.520  0.3081  0.2173  0.2143
 6869TIP3    H142098   0.125   2.522  13.596 -0.1326 -2.2621 -1.1127
 6869TIP3    H242099   0.134   2.645  13.509 -0.7262  0.0457  1.9101
 6870TIP3   OH242100   3.201   5.845   4.449 -0.5434  0.1437 -0.7122
 6870TIP3    H142101   3.293   5.839   4.477 -1.0845 -1.8810  0.9339
 6870TIP3    H242102   3.193   5.782   4.378 -0.9267 -0.8020  0.1342
 6871TIP3   OH242103   3.226   5.180  13.164 -0.0090  0.0717 -0.2623
 6871TIP3    H142104   3.301   5.239  13.170 -1.8261  2.4237  1.3019
 6871TIP3    H242105   3.201   5.182  13.071  0.4983  1.0914 -0.3869
 6872TIP3   OH242106   2.974   3.432   4.957  0.0592 -0.3243 -0.1068
 6872TIP3    H142107   3.053   3.453   4.908  0.8899 -0.3379  1.1686
 6872TIP3    H242108   2.969   3.336   4.956  2.2870 -0.6234  3.0150
 6873TIP3   OH242109   2.109   4.693   3.020  0.0368  0.2929 -0.0618
 6873TIP3    H142110   2.071   4.778   2.997  0.7306  0.3523 -1.0118
 6873TIP3    H242111   2.129   4.701   3.113 -0.0946  1.0948 -0.0913
 6874TIP3   OH242112   2.436   6.176  13.548  0.0709 -1.0524  0.0855
 6874TIP3    H142113   2.395   6.185  13.462  2.0854  1.3544 -0.7574
 6874TIP3    H242114   2.374   6.124  13.599 -2.7161  0.1338 -1.8483
 6875TIP3   OH242115   1.887   6.672  10.507 -0.3663  0.0582  0.3099
 6875TIP3    H142116   1.878   6.745  10.446  1.0002 -0.5883 -0.7265
 6875TIP3    H242117   1.808   6.620  10.495  0.3206 -0.6038 -1.7037
 6876TIP3   OH242118   0.570   2.069  12.388  0.1756 -0.3144  0.3208
 6876TIP3    H142119   0.490   2.028  12.355 -0.9094 -1.2205  3.6258
 6876TIP3    H242120   0.627   1.995  12.409  1.9162  0.3189 -1.7970
 6877TIP3   OH242121   2.026   2.705  13.086  0.1439  0.0940  0.4245
 6877TIP3    H142122   2.023   2.724  13.180 -1.2452 -0.8575  0.6083
 6877TIP3    H242123   2.006   2.612  13.080  0.6435  0.0513 -0.8053
 6878TIP3   OH242124   0.916   1.114   3.969  0.6063  0.0391  0.3099
 6878TIP3    H142125   0.982   1.145   3.906  0.3993  1.4314  0.7567
 6878TIP3    H242126   0.841   1.091   3.914  2.1228 -3.9145 -0.5170
 6879TIP3   OH242127   4.626   6.711   1.073 -0.4300 -0.0941  0.1161
 6879TIP3    H142128   4.571   6.754   1.137 -1.1431 -0.8670  0.0427
 6879TIP3    H242129   4.633   6.774   1.001  0.8525  1.0142  1.1547
 6880TIP3   OH242130   2.692   4.444  14.815 -0.1581 -0.4026 -0.5599
 6880TIP3    H142131   2.680   4.539  14.810  1.8809 -0.1157 -0.7145
 6880TIP3    H242132   2.622   4.415  14.873 -1.0572  1.1328 -0.8015
 6881TIP3   OH242133   4.163   1.394   4.203  0.2498 -0.3388  0.2598
 6881TIP3    H142134   4.071   1.375   4.183 -0.0323  0.9540  0.1990
 6881TIP3    H242135   4.172   1.370   4.296  0.2280 -1.7270 -0.0797
 6882TIP3   OH242136   5.524   2.402   2.744 -0.8422 -0.6258 -0.0392
 6882TIP3    H142137   5.520   2.493   2.771  2.3524 -0.7051  0.9841
 6882TIP3    H242138   5.601   2.396   2.688  0.8042 -3.2007  2.2690
 6883TIP3   OH242139   5.528   4.816   6.060 -0.6467  0.1690 -0.5184
 6883TIP3    H142140   5.463   4.762   6.106  1.4562 -0.2349  2.2583
 6883TIP3    H242141   5.524   4.901   6.104  0.5488  0.1801 -0.3951
 6884TIP3   OH242142   1.029   1.710   3.824  0.0224 -0.1460 -0.1542
 6884TIP3    H142143   1.064   1.681   3.908 -0.6092  1.3357  0.6619
 6884TIP3    H242144   1.034   1.805   3.827 -3.2203  0.1439 -0.2883
 6885TIP3   OH242145   4.366   3.899   5.077  0.4917  0.7831  0.7052
 6885TIP3    H142146   4.293   3.923   5.020 -0.4649  1.6712  2.2421
 6885TIP3    H242147   4.393   3.812   5.046 -0.8036  0.7021 -0.2811
 6886TIP3   OH242148   0.110   4.981  15.553 -0.0475  0.0849  0.3008
 6886TIP3    H142149   0.130   4.976  15.460 -1.0867  1.7241 -0.0621
 6886TIP3    H242150   0.181   4.934  15.596  0.9504  0.0964 -1.2668
 6887TIP3   OH242151   1.795   1.802  15.646 -0.5863  0.2801 -0.1876
 6887TIP3    H142152   1.719   1.817  15.703 -0.3251  1.5922 -0.1467
 6887TIP3    H242153   1.837   1.888  15.639  0.7407 -0.3679 -0.4449
 6888TIP3   OH242154   2.979   0.388  11.637 -0.0360 -0.4742 -0.1067
 6888TIP3    H142155   3.000   0.334  11.561 -0.0313 -2.7602  1.4190
 6888TIP3    H242156   3.057   0.442  11.650 -0.0339 -0.0612 -1.6803
 6889TIP3   OH242157   2.514   0.183  15.119  0.4038 -0.3617 -0.0697
 6889TIP3    H142158   2.469   0.101  15.140 -0.8399  0.3214  0.0312
 6889TIP3    H242159   2.452   0.231  15.064  0.5655  1.0661  0.9351
 6890TIP3   OH242160   2.350   4.187   3.193  0.0697 -0.4636  0.2910
 6890TIP3    H142161   2.334   4.094   3.206  0.8303 -0.5393  0.7796
 6890TIP3    H242162   2.268   4.230   3.217 -1.2119 -1.1610 -2.5084
 6891TIP3   OH242163   2.198   5.358  14.258  0.2029  0.0316 -0.0358
 6891TIP3    H142164   2.140   5.434  14.261  0.5974  0.4324 -1.4375
 6891TIP3    H242165   2.235   5.353  14.346  0.0155  1.3584  0.1503
 6892TIP3   OH242166   5.052   0.734  13.436  0.5130  0.3545  0.4949
 6892TIP3    H142167   5.065   0.742  13.531 -0.3473  0.6598  0.5986
 6892TIP3    H242168   5.103   0.657  13.411 -0.2016 -0.4324  1.4008
 6893TIP3   OH242169   6.667   3.011  16.626  0.2118 -0.0335  0.5117
 6893TIP3    H142170   6.707   2.956  16.558 -0.6300 -1.7820  1.3914
 6893TIP3    H242171   6.581   3.035  16.591 -0.2191 -0.9285  0.9443
 6894TIP3   OH242172   5.479   5.084  10.589 -0.2872  0.4378  0.5251
 6894TIP3    H142173   5.515   5.137  10.660  0.7108 -0.3176  0.5930
 6894TIP3    H242174   5.509   5.128  10.509 -2.2215  1.8613  0.4936
 6895TIP3   OH242175   6.003   3.303  12.645  0.1387 -0.6632  0.1986
 6895TIP3    H142176   6.098   3.295  12.638  0.0570 -0.0217 -2.7107
 6895TIP3    H242177   5.973   3.213  12.662  1.2367 -0.8711  1.1446
 6896TIP3   OH242178   5.291   3.027  16.976  0.3113  0.8247 -0.6065
 6896TIP3    H142179   5.282   3.106  17.029  2.9035 -0.2904  1.7171
 6896TIP3    H242180   5.252   2.958  17.030  1.1944 -0.0251 -1.0381
 6897TIP3   OH242181   4.052   5.717  11.101 -0.2967 -0.4515 -0.2529
 6897TIP3    H142182   3.959   5.741  11.109 -0.3283 -1.1104  2.1831
 6897TIP3    H242183   4.069   5.663  11.178  1.7204 -1.7531 -1.5186
 6898TIP3   OH242184   4.186   4.995   1.370 -0.0625 -0.6271  0.3783
 6898TIP3    H142185   4.270   4.958   1.399  1.6250  1.3509 -1.6483
 6898TIP3    H242186   4.158   4.939   1.298  0.9777  0.2480 -0.7446
 6899TIP3   OH242187   4.931   4.714   6.104 -0.2371  0.3287 -0.4163
 6899TIP3    H142188   4.884   4.699   6.186 -1.1780 -0.3522 -1.0527
 6899TIP3    H242189   4.863   4.739   6.042  0.1131 -1.3650 -1.5379
 6900TIP3   OH242190   6.326   5.415   4.472  0.0076  0.1631 -0.4763
 6900TIP3    H142191   6.265   5.468   4.420  0.0927  1.1445  0.3746
 6900TIP3    H242192   6.391   5.384   4.409 -1.3797 -0.9514 -1.4164
 6901TIP3   OH242193   2.003   2.734   5.361  0.1661  0.1823 -0.3848
 6901TIP3    H142194   1.922   2.690   5.385  0.1960  0.2579 -0.1478
 6901TIP3    H242195   1.976   2.802   5.299 -0.0101  0.5065  0.0413
 6902TIP3   OH242196   3.477   5.449   5.988 -0.3508 -0.5495  0.9418
 6902TIP3    H142197   3.416   5.472   6.058 -0.5813 -0.6289  0.7683
 6902TIP3    H242198   3.423   5.403   5.923  0.1035 -1.6211  1.2950
 6903TIP3   OH242199   4.650   0.326  14.218  0.2135 -0.6572  0.0846
 6903TIP3    H142200   4.648   0.412  14.261 -1.4626 -1.0067  0.7624
 6903TIP3    H242201   4.719   0.279  14.264  2.3931  0.8350 -1.4303
 6904TIP3   OH242202   0.502   1.033   1.156 -0.3498 -0.0729 -0.2007
 6904TIP3    H142203   0.477   0.941   1.163  1.8735 -0.6193  1.8976
 6904TIP3    H242204   0.582   1.033   1.104 -0.3478  0.7000 -0.2222
 6905TIP3   OH242205   5.268   2.626   1.078  0.1854  0.0561  0.0267
 6905TIP3    H142206   5.272   2.531   1.073  0.4603  0.1182 -1.9422
 6905TIP3    H242207   5.359   2.654   1.071 -0.0306  0.4959 -5.1764
 6906TIP3   OH242208   0.629   0.801  13.010 -0.2471 -0.2921  0.4203
 6906TIP3    H142209   0.675   0.885  13.004 -0.7814 -0.0801 -0.9069
 6906TIP3    H242210   0.670   0.746  12.944  0.0686 -1.0799  1.2574
 6907TIP3   OH242211   0.094   4.579   3.774  0.5008  0.0567  0.2140
 6907TIP3    H142212   0.078   4.518   3.846 -0.2172 -0.9061 -0.7358
 6907TIP3    H242213   0.076   4.666   3.812 -0.2637 -0.4616  1.0770
 6908TIP3   OH242214   5.702   2.842  13.786 -0.2772  0.9192 -0.1829
 6908TIP3    H142215   5.700   2.792  13.868 -0.8241  2.5799  0.8467
 6908TIP3    H242216   5.770   2.799  13.734 -0.9372 -1.0918  0.5182
 6909TIP3   OH242217   2.940   0.069   5.670 -0.8541 -0.4450  0.4146
 6909TIP3    H142218   2.937   0.077   5.766 -2.2850 -1.9657  0.5412
 6909TIP3    H242219   2.956  -0.024   5.655 -0.7554 -0.2397 -0.8372
 6910TIP3   OH242220   2.492   5.264   2.428  0.5276 -0.1341 -0.0551
 6910TIP3    H142221   2.486   5.220   2.343  0.0847 -1.0125  0.4157
 6910TIP3    H242222   2.541   5.203   2.483  2.2566  1.1243 -0.0924
 6911TIP3   OH242223   3.367   5.199   0.357  0.3074 -0.3241  0.3456
 6911TIP3    H142224   3.275   5.191   0.334  0.1165 -0.0681  1.0042
 6911TIP3    H242225   3.411   5.219   0.274 -0.3239  0.2655  0.1411
 6912TIP3   OH242226   1.886   4.668   0.736 -0.2620 -0.2720 -0.3021
 6912TIP3    H142227   1.804   4.703   0.772 -0.9674 -0.1448 -1.9574
 6912TIP3    H242228   1.945   4.663   0.811 -1.4176  0.7301  0.7080
 6913TIP3   OH242229   2.005   2.644   4.297 -1.0607 -0.1184 -0.2694
 6913TIP3    H142230   2.057   2.700   4.355 -0.9334  1.2317 -1.6244
 6913TIP3    H242231   1.927   2.623   4.348 -0.6119  0.4069  0.6695
 6914TIP3   OH242232   5.269   4.730   0.053  0.7306  0.3731  0.8221
 6914TIP3    H142233   5.361   4.713   0.077  0.7775  0.1648  0.4940
 6914TIP3    H242234   5.260   4.694  -0.035 -0.4793 -2.4223  1.9910
 6915TIP3   OH242235   6.225   6.287  16.311 -0.2998 -0.2605  0.2121
 6915TIP3    H142236   6.196   6.220  16.249  0.6382  1.5635 -2.3601
 6915TIP3    H242237   6.318   6.270  16.323  0.1155  0.9278 -1.0401
 6916TIP3   OH242238   3.437   6.615  15.253  0.0690  0.0930 -0.6485
 6916TIP3    H142239   3.377   6.630  15.326  1.8127  1.8029  0.5328
 6916TIP3    H242240   3.454   6.703  15.218  0.3313 -0.5646 -2.2725
 6917TIP3   OH242241   1.984   3.629  13.701 -0.3085 -0.0143  0.4320
 6917TIP3    H142242   2.001   3.720  13.725 -0.6714  0.1870 -0.0539
 6917TIP3    H242243   2.013   3.578  13.776 -0.0721  0.5011  0.6941
 6918TIP3   OH242244   4.951   6.774  11.546 -0.0667  0.1901 -0.2453
 6918TIP3    H142245   4.869   6.812  11.516  0.4690  0.8027 -0.9586
 6918TIP3    H242246   4.947   6.682  11.518 -0.6016  0.1593 -0.0705
 6919TIP3   OH242247   1.727   1.318   6.224 -0.3462 -0.2948 -0.4606
 6919TIP3    H142248   1.679   1.336   6.305  1.8873 -1.3342  1.1689
 6919TIP3    H242249   1.677   1.247   6.183 -1.2669 -0.0592  0.2066
 6920TIP3   OH242250   0.145   4.792  11.495 -0.1655 -0.0701 -0.0536
 6920TIP3    H142251   0.052   4.769  11.483 -0.3106 -0.1015  1.0823
 6920TIP3    H242252   0.182   4.719  11.543  0.2697  0.3081  0.1843
 6921TIP3   OH242253   5.608   1.659   2.673 -0.3542  0.7890  0.2069
 6921TIP3    H142254   5.630   1.566   2.665 -2.7675 -0.0043  1.4367
 6921TIP3    H242255   5.691   1.703   2.686  0.7235 -1.5280  1.9129
 6922TIP3   OH242256   1.256   5.643   0.975 -0.0780  0.0422 -0.4724
 6922TIP3    H142257   1.189   5.614   0.914  0.3750 -1.8969 -0.1303
 6922TIP3    H242258   1.292   5.561   1.011  0.4799  1.0880  1.4891
 6923TIP3   OH242259   4.734   3.695  15.945  0.2258 -0.4214 -0.1610
 6923TIP3    H142260   4.707   3.722  15.857  0.2734  0.9225  0.2122
 6923TIP3    H242261   4.675   3.742  16.004 -0.5529 -2.1801  0.5267
 6924TIP3   OH242262   0.004   1.593  14.063 -0.4995 -0.1915  0.2308
 6924TIP3    H142263  -0.091   1.596  14.077 -0.7793 -1.1174 -1.2386
 6924TIP3    H242264   0.015   1.599  13.968  0.9495  0.2533  0.3957
 6925TIP3   OH242265   6.406   6.316   4.965 -0.2332 -0.3858 -0.3959
 6925TIP3    H142266   6.467   6.260   4.918  0.7544 -0.3168  0.7640
 6925TIP3    H242267   6.340   6.340   4.899 -0.1263 -2.0552 -1.1633
 6926TIP3   OH242268   4.231   2.697  13.746 -0.0595  0.2338 -0.1213
 6926TIP3    H142269   4.187   2.613  13.732 -2.7243  1.6576 -0.8823
 6926TIP3    H242270   4.290   2.681  13.820 -1.7249 -1.8664  0.8584
 6927TIP3   OH242271   1.431   5.102   3.833 -0.0352  0.6344  0.4707
 6927TIP3    H142272   1.344   5.065   3.815  0.2083 -0.6120  1.6708
 6927TIP3    H242273   1.419   5.154   3.912  0.2056  0.8197  0.3843
 6928TIP3   OH242274   3.232   4.753   3.159  0.6812 -0.1100  0.3359
 6928TIP3    H142275   3.304   4.816   3.164  0.8398 -0.2421 -0.2176
 6928TIP3    H242276   3.272   4.672   3.129  0.0004  0.3837 -2.1401
 6929TIP3   OH242277   5.082   6.024  15.878  1.0319  0.4440  0.0036
 6929TIP3    H142278   5.070   6.091  15.812  0.4989 -1.9419 -2.5204
 6929TIP3    H242279   5.044   6.061  15.958 -1.4334  2.1975 -1.8595
 6930TIP3   OH242280   4.507   5.507   4.183  0.3862 -0.4218  0.3664
 6930TIP3    H142281   4.544   5.505   4.271  0.1150 -0.3526  0.4845
 6930TIP3    H242282   4.456   5.426   4.178 -1.6152  0.7111  1.1701
 6931TIP3   OH242283   2.609   1.692  16.765 -0.3693 -0.6132 -0.1649
 6931TIP3    H142284   2.645   1.776  16.737  0.0417  0.5244  3.3026
 6931TIP3    H242285   2.517   1.695  16.739  0.2386 -0.3803 -2.5556
 6932TIP3   OH242286   4.440   5.189   1.439 -0.3023 -0.1304  0.6080
 6932TIP3    H142287   4.378   5.128   1.478 -0.4697  0.2223  0.8933
 6932TIP3    H242288   4.511   5.133   1.407 -0.2200 -0.4369  1.3072
 6933TIP3   OH242289   1.889   2.621   6.088 -0.6469 -0.0146 -0.0512
 6933TIP3    H142290   1.861   2.562   6.158 -1.2572  0.6682  0.2935
 6933TIP3    H242291   1.952   2.680   6.130 -1.4175  0.7393  0.0693
 6934TIP3   OH242292   3.872   4.769  14.698  0.5340  0.4023  0.4921
 6934TIP3    H142293   3.783   4.749  14.727  0.2804 -0.8690 -1.0059
 6934TIP3    H242294   3.871   4.864  14.683 -0.9404  0.2692 -0.5537
 6935TIP3   OH242295   4.425   1.377  16.995 -0.3610 -0.7596 -0.4967
 6935TIP3    H142296   4.452   1.468  16.983  1.5903 -1.4383 -1.7731
 6935TIP3    H242297   4.435   1.361  17.089  0.4493 -0.0039 -0.4458
 6936TIP3   OH242298   0.012   6.232   5.624  0.1643  0.2584  0.7294
 6936TIP3    H142299  -0.080   6.208   5.637 -0.7020  1.4509 -2.3385
 6936TIP3    H242300   0.053   6.153   5.590 -0.8139  0.7630 -1.8630
 6937TIP3   OH242301   0.358   6.671  15.095 -0.3243  0.2909  0.4212
 6937TIP3    H142302   0.265   6.694  15.094  0.0997  2.1613  0.4645
 6937TIP3    H242303   0.394   6.710  15.015  0.7133  1.0218  1.2129
 6938TIP3   OH242304   4.338   5.347   1.198 -0.8360 -0.3136 -0.6562
 6938TIP3    H142305   4.346   5.313   1.287 -2.3753  0.6631 -0.1098
 6938TIP3    H242306   4.351   5.270   1.142  0.5101 -0.8806  0.3680
 6939TIP3   OH242307   1.884   0.205   4.608 -0.1670 -0.0881 -0.3450
 6939TIP3    H142308   1.893   0.114   4.581 -1.4053 -0.2604 -0.2491
 6939TIP3    H242309   1.973   0.232   4.631  0.3864 -0.9368 -1.3979
 6940TIP3   OH242310   0.269   1.164   5.482 -0.0490  0.3449 -0.4180
 6940TIP3    H142311   0.255   1.249   5.523 -0.8026 -0.6122  1.4189
 6940TIP3    H242312   0.364   1.157   5.473  0.0593  1.0557  0.1137
 6941TIP3   OH242313   0.340   1.314  16.022 -0.0360  0.5613 -0.2164
 6941TIP3    H142314   0.433   1.290  16.018  0.2760  1.7221 -0.2744
 6941TIP3    H242315   0.308   1.273  16.102 -0.2576 -2.3872 -1.6397
 6942TIP3   OH242316   1.063   3.398   3.176 -0.0793  0.2745  0.6486
 6942TIP3    H142317   1.019   3.448   3.108  1.5932 -0.0054 -0.7006
 6942TIP3    H242318   1.118   3.462   3.221  0.3542  0.0828  0.3955
 6943TIP3   OH242319   1.884   3.609  14.072 -0.4666 -0.2591  0.0028
 6943TIP3    H142320   1.822   3.603  14.144 -2.4429 -0.3824 -1.6052
 6943TIP3    H242321   1.901   3.518  14.046  1.1334 -0.2750  0.9789
 6944TIP3   OH242322   6.127   2.137   3.673  0.1188 -0.1903  0.4382
 6944TIP3    H142323   6.218   2.110   3.691 -0.0305 -0.1228  1.3334
 6944TIP3    H242324   6.104   2.090   3.593  1.1816  0.3438 -0.2111
 6945TIP3   OH242325   0.217   6.288  14.613  0.2340 -0.1608 -0.3866
 6945TIP3    H142326   0.308   6.313  14.598  0.4514 -1.3041 -1.0950
 6945TIP3    H242327   0.175   6.301  14.528 -0.2066  0.1184 -0.1256
 6946TIP3   OH242328   5.169   4.619   5.468 -0.1172  0.6041  0.2299
 6946TIP3    H142329   5.196   4.527   5.470 -1.4982  0.1694 -0.1729
 6946TIP3    H242330   5.147   4.640   5.559 -1.5364 -0.0348  0.0649
 6947TIP3   OH242331   4.383   1.358   0.762 -0.7160 -0.1975  0.3343
 6947TIP3    H142332   4.353   1.272   0.792  0.0080 -0.3115  0.7559
 6947TIP3    H242333   4.476   1.345   0.742 -0.0573  0.9773  2.3822
 6948TIP3   OH242334   0.898   0.233  14.546  0.3888  0.1238 -0.5560
 6948TIP3    H142335   0.814   0.272  14.521  0.2661 -0.0225 -0.3767
 6948TIP3    H242336   0.879   0.140  14.557  0.8814 -0.1499 -1.8834
 6949TIP3   OH242337   0.617   2.331   2.559  0.4863  0.3682  0.4560
 6949TIP3    H142338   0.684   2.263   2.564  0.3368  0.1640 -0.1916
 6949TIP3    H242339   0.566   2.308   2.481 -0.7526  0.1385  1.3159
 6950TIP3   OH242340   5.639   4.212   1.758 -0.4984  0.0823 -0.9484
 6950TIP3    H142341   5.544   4.214   1.769 -0.2399 -1.0521  3.5474
 6950TIP3    H242342   5.662   4.120   1.773  1.4196  0.7743  0.6924
 6951TIP3   OH242343   4.038   6.589  16.608 -0.0707 -0.3279  0.0183
 6951TIP3    H142344   4.051   6.668  16.660 -0.5299 -1.2014  1.5238
 6951TIP3    H242345   3.960   6.548  16.647 -1.4560 -0.1956 -2.4105
 6952TIP3   OH242346   0.476   3.646  17.059 -0.6898 -0.0113 -0.0693
 6952TIP3    H142347   0.451   3.615  17.147 -2.6747 -0.3038 -0.6903
 6952TIP3    H242348   0.572   3.639  17.058 -0.7218 -1.5682  1.5007
 6953TIP3   OH242349   1.508   0.219   2.579 -0.0245  0.3957  0.1201
 6953TIP3    H142350   1.422   0.260   2.569 -0.2881 -0.5505 -2.0059
 6953TIP3    H242351   1.529   0.231   2.671 -0.5508  4.3450 -0.0614
 6954TIP3   OH242352   5.156   3.543  13.313 -0.0895 -0.9547 -0.0184
 6954TIP3    H142353   5.068   3.507  13.307 -0.9490  0.3561  2.8896
 6954TIP3    H242354   5.191   3.507  13.394  1.7614 -0.7865 -0.6974
 6955TIP3   OH242355   6.307   5.712  10.796 -0.0615  0.2976 -0.5687
 6955TIP3    H142356   6.233   5.669  10.752 -0.2897 -0.1246  0.2095
 6955TIP3    H242357   6.369   5.731  10.725 -0.9691  0.7740 -1.2496
 6956TIP3   OH242358   1.982   0.359   0.402 -0.3734  0.2211  0.2651
 6956TIP3    H142359   1.949   0.364   0.312  1.1263 -1.1110 -0.4088
 6956TIP3    H242360   2.042   0.434   0.410 -0.0846  0.0250 -0.0391
 6957TIP3   OH242361   3.847   5.832  11.509  0.2227  0.4531  0.1360
 6957TIP3    H142362   3.899   5.903  11.470 -2.5380  2.1936 -0.6770
 6957TIP3    H242363   3.797   5.875  11.578 -0.8407 -0.8991  0.2461
 6958TIP3   OH242364   0.028   4.308   6.972  0.1581 -0.2696 -0.3328
 6958TIP3    H142365   0.113   4.332   6.934 -0.1492 -0.2375 -1.0183
 6958TIP3    H242366  -0.032   4.377   6.942 -0.1407 -0.3800  0.0079
 6959TIP3   OH242367   2.991   0.046  11.586 -0.6463 -0.0008 -0.6145
 6959TIP3    H142368   3.015   0.072  11.675  2.5399 -0.2430 -1.3166
 6959TIP3    H242369   2.944  -0.037  11.598  0.3515 -0.3919  0.8009
 6960TIP3   OH242370   1.078   0.739   5.585  0.2396 -0.1018  0.0726
 6960TIP3    H142371   1.009   0.805   5.584  0.6655  0.3676 -1.1531
 6960TIP3    H242372   1.099   0.726   5.677  2.3804  3.8826  0.3536
 6961TIP3   OH242373   5.237   1.362  17.050  0.2001 -0.2355  0.5799
 6961TIP3    H142374   5.187   1.444  17.045  0.8726  0.1303 -3.2419
 6961TIP3    H242375   5.172   1.294  17.032  0.5361  0.0604 -2.1649
 6962TIP3   OH242376   1.251   1.493   5.669 -0.1957  0.0618 -0.6243
 6962TIP3    H142377   1.333   1.466   5.711 -0.8138 -0.1177  0.5003
 6962TIP3    H242378   1.187   1.427   5.696 -1.1198  1.1687 -0.0432
 6963TIP3   OH242379   4.279   0.576   5.001  0.2687  0.3026 -0.1887
 6963TIP3    H142380   4.303   0.663   5.034 -0.7506  0.4186  0.2862
 6963TIP3    H242381   4.203   0.551   5.054 -0.5131 -0.1304 -1.4728
 6964TIP3   OH242382   4.852   0.055   4.814  0.4467  0.5314  0.7702
 6964TIP3    H142383   4.872  -0.007   4.744 -0.9175 -0.2384  1.0258
 6964TIP3    H242384   4.757   0.065   4.810  0.1695 -0.4479  3.2378
 6965TIP3   OH242385   1.826   5.138  14.744  0.2657 -0.0178 -0.1274
 6965TIP3    H142386   1.763   5.184  14.800 -0.1730  0.1149 -0.7247
 6965TIP3    H242387   1.899   5.199  14.735  0.3711 -0.0681  0.3549
 6966TIP3   OH242388   2.136   2.646  17.179  0.0358 -0.0641  0.1298
 6966TIP3    H142389   2.109   2.557  17.205 -1.7118  0.2936 -0.3365
 6966TIP3    H242390   2.115   2.700  17.255 -1.2389  0.3216 -0.4671
 6967TIP3   OH242391   3.218   2.626   2.333  0.1391 -0.4081 -0.6754
 6967TIP3    H142392   3.279   2.635   2.406  0.8632  0.1538 -1.3221
 6967TIP3    H242393   3.248   2.547   2.287  1.3909  0.7158 -1.8756
 6968TIP3   OH242394   3.018   1.988  11.932 -0.4483 -0.2871  0.3530
 6968TIP3    H142395   2.932   2.012  11.967 -0.6286 -0.7427  0.2258
 6968TIP3    H242396   3.000   1.959  11.842 -0.1346 -0.2006  0.2597
 6969TIP3   OH242397   1.871   6.367  15.278 -0.0101 -0.7142 -0.2090
 6969TIP3    H142398   1.780   6.385  15.301  0.0964 -1.0732  0.4980
 6969TIP3    H242399   1.867   6.293  15.218 -0.2390 -0.1987 -0.8421
 6970TIP3   OH242400   5.264   1.421   5.148  0.1169  0.4194 -0.1094
 6970TIP3    H142401   5.307   1.337   5.131 -1.2549 -0.5300  0.8222
 6970TIP3    H242402   5.279   1.472   5.069  0.3799 -0.9907 -1.0153
 6971TIP3   OH242403   2.398   6.031   2.241 -0.1614 -0.0775 -0.3068
 6971TIP3    H142404   2.360   5.966   2.300  1.7143 -1.9799 -1.0372
 6971TIP3    H242405   2.362   6.008   2.155 -0.9827  1.1089 -0.2907
 6972TIP3   OH242406   4.644   3.396   6.208  0.6123 -0.1811  0.1366
 6972TIP3    H142407   4.581   3.382   6.279  1.0197 -2.5387  0.1378
 6972TIP3    H242408   4.680   3.309   6.191  0.0652  0.1103 -3.3963
 6973TIP3   OH242409   4.687   2.656  11.674  0.0287 -0.5622 -0.3615
 6973TIP3    H142410   4.678   2.604  11.754  0.4593  0.9026  0.6879
 6973TIP3    H242411   4.782   2.657  11.657 -0.0713 -0.9554 -0.9616
 6974TIP3   OH242412   5.630   4.202  12.311 -0.2472 -0.5216 -0.1729
 6974TIP3    H142413   5.722   4.177  12.323 -0.3057 -0.1978  1.1168
 6974TIP3    H242414   5.583   4.119  12.307  0.0943 -0.6932 -0.9630
 6975TIP3   OH242415   0.119   3.051  11.741  0.1135 -0.0852 -0.3926
 6975TIP3    H142416   0.062   3.038  11.665 -0.4673 -1.6871  0.2833
 6975TIP3    H242417   0.175   3.125  11.716 -0.9720  0.3011 -1.8240
 6976TIP3   OH242418   0.269   1.553   1.564  0.2799  0.2911 -0.4004
 6976TIP3    H142419   0.265   1.622   1.497 -0.9013  0.4118 -0.2185
 6976TIP3    H242420   0.264   1.600   1.647  0.8044  0.0672 -0.2346
 6977TIP3   OH242421   5.649   5.267  12.552  0.0085 -0.3889  0.0821
 6977TIP3    H142422   5.603   5.320  12.488  0.8817  0.7458  0.3704
 6977TIP3    H242423   5.698   5.203  12.499  0.8387  0.6290 -0.4238
 6978TIP3   OH242424   1.121   3.172  12.896  0.0894 -0.2007 -0.0144
 6978TIP3    H142425   1.067   3.226  12.953 -0.3835  0.4811 -1.0741
 6978TIP3    H242426   1.186   3.233  12.860  1.6469 -1.0141  1.2898
 6979TIP3   OH242427   6.345   6.262   3.163  0.1625 -0.1426 -0.0963
 6979TIP3    H142428   6.300   6.338   3.199 -1.7597 -0.6239 -1.3488
 6979TIP3    H242429   6.414   6.300   3.108  0.9261  0.6154  1.3190
 6980TIP3   OH242430   1.510   3.550   0.051 -0.1021 -0.3522  0.2754
 6980TIP3    H142431   1.445   3.503  -0.002 -1.3949  0.4580  1.1147
 6980TIP3    H242432   1.480   3.640   0.053  1.1477  0.0839  0.5604
 6981TIP3   OH242433   3.466   5.181  13.662 -0.4517 -0.3110 -0.2196
 6981TIP3    H142434   3.546   5.231  13.645 -0.8700  0.7545  0.7834
 6981TIP3    H242435   3.489   5.124  13.736 -0.1689 -1.1726 -0.9483
 6982TIP3   OH242436   0.811   3.973   1.290 -0.3788  0.0089  0.2240
 6982TIP3    H142437   0.879   4.010   1.234  0.6774 -0.2920  1.2729
 6982TIP3    H242438   0.857   3.909   1.345 -1.9000 -1.9317 -0.6074
 6983TIP3   OH242439   4.317   6.594  16.625  0.7354 -0.5659  0.1892
 6983TIP3    H142440   4.380   6.526  16.649  0.5497 -0.7755  0.0985
 6983TIP3    H242441   4.236   6.568  16.668  0.1703 -1.4035 -1.2746
 6984TIP3   OH242442   5.545   3.514  16.606  0.0951  0.2141 -0.2093
 6984TIP3    H142443   5.538   3.453  16.532  0.5235 -0.0448 -0.0402
 6984TIP3    H242444   5.496   3.472  16.676 -0.1684  0.3800 -0.2918
 6985TIP3   OH242445   3.635   4.637  16.208 -0.2968  0.3018  0.5351
 6985TIP3    H142446   3.555   4.672  16.169 -1.4539  0.0612  2.5657
 6985TIP3    H242447   3.658   4.698  16.277  0.9101  0.0083  0.4205
 6986TIP3   OH242448   4.315   1.033  12.561 -1.1037 -1.0020  0.0322
 6986TIP3    H142449   4.296   1.069  12.475 -2.3544 -0.8997  0.3375
 6986TIP3    H242450   4.232   1.039  12.609 -0.0010  0.7925  1.9106
 6987TIP3   OH242451   2.925   5.797   3.646  0.8551  0.2864  0.1659
 6987TIP3    H142452   2.831   5.815   3.657  0.2687 -0.4390 -2.6994
 6987TIP3    H242453   2.964   5.884   3.634  0.3760  0.5368  0.3624
 6988TIP3   OH242454   6.044   4.287   4.327 -0.0419 -0.2693 -0.3064
 6988TIP3    H142455   6.026   4.242   4.410  0.9802 -2.3287 -1.1315
 6988TIP3    H242456   6.137   4.310   4.332 -0.3409  1.0293 -0.2801
 6989TIP3   OH242457   4.969   5.748   4.066  0.3747  0.1999  0.3413
 6989TIP3    H142458   4.961   5.690   4.142  0.6047 -0.7923 -0.3680
 6989TIP3    H242459   4.879   5.762   4.037  0.3070  0.3245  0.6162
 6990TIP3   OH242460   6.245   0.026  15.548 -0.2211  0.2914  0.6441
 6990TIP3    H142461   6.304   0.100  15.540  0.4741 -0.2849  0.2662
 6990TIP3    H242462   6.302  -0.050  15.558 -0.8722 -0.3209 -0.0481
 6991TIP3   OH242463   5.559   5.236  14.490  0.6693  0.3924 -0.5698
 6991TIP3    H142464   5.488   5.299  14.475 -0.5523 -1.3924 -2.7648
 6991TIP3    H242465   5.530   5.186  14.567 -0.9972 -0.8824 -1.9266
 6992TIP3   OH242466   5.944   5.459   2.518  0.1117 -0.2589  0.2043
 6992TIP3    H142467   5.922   5.449   2.426  2.2268  0.3095 -0.4005
 6992TIP3    H242468   5.955   5.370   2.551 -0.4972 -0.4556 -0.1079
 6993TIP3   OH242469   4.227   1.953  14.122 -0.4454 -0.1992  0.5139
 6993TIP3    H142470   4.300   1.963  14.184  1.0441  0.3513 -1.2562
 6993TIP3    H242471   4.149   1.975  14.174  0.8588  1.5592  1.8849
 6994TIP3   OH242472   1.463   6.105  12.078 -0.3180 -0.5469  0.2792
 6994TIP3    H142473   1.498   6.141  12.160  0.3211 -0.2706 -0.1015
 6994TIP3    H242474   1.388   6.161  12.058 -0.4770 -0.6153  0.6784
 6995TIP3   OH242475   0.962   5.496  12.531  0.1991 -0.5770 -0.1666
 6995TIP3    H142476   0.999   5.579  12.561  1.9213 -0.9699 -1.0321
 6995TIP3    H242477   1.025   5.464  12.466 -0.2900 -2.6651  0.3041
 6996TIP3   OH242478   5.288   5.749  13.097 -0.2381  0.3812 -0.5570
 6996TIP3    H142479   5.356   5.695  13.058 -1.2525 -1.0319 -0.4465
 6996TIP3    H242480   5.333   5.830  13.123  1.8025 -1.1831  1.1261
 6997TIP3   OH242481   1.308   4.853  15.055 -0.1750 -0.1197 -0.7482
 6997TIP3    H142482   1.340   4.909  14.984  0.8671 -0.6207 -0.6845
 6997TIP3    H242483   1.258   4.913  15.111  3.1965  1.5045  0.8711
 6998TIP3   OH242484   4.855   1.370  13.513  0.5587 -0.3669 -0.3693
 6998TIP3    H142485   4.924   1.324  13.562  0.2304 -0.5821 -0.1021
 6998TIP3    H242486   4.783   1.307  13.510  0.4052 -0.1732 -0.7198
 6999TIP3   OH242487   3.038   5.483   4.503 -0.2876 -0.0716 -0.0025
 6999TIP3    H142488   3.133   5.490   4.512  0.3116 -1.9501 -3.1992
 6999TIP3    H242489   3.019   5.390   4.520 -1.8203  0.5248  1.9038
 7000TIP3   OH242490   1.468   2.848  11.285  0.3549  0.7718  0.3624
 7000TIP3    H142491   1.406   2.829  11.216  0.2260  1.9276  0.1454
 7000TIP3    H242492   1.457   2.777  11.348 -0.9122  0.7608  0.1421
 7001TIP3   OH242493   4.962   6.638   5.654  0.0203  0.3093  0.0262
 7001TIP3    H142494   4.977   6.702   5.584  2.4588  0.3724  0.5363
 7001TIP3    H242495   4.876   6.601   5.633 -0.0499  1.4728 -2.0889
 7002TIP3   OH242496   6.063   5.209  16.379 -0.4369  0.1987  0.4528
 7002TIP3    H142497   6.011   5.204  16.459 -0.6497  0.5249  0.3395
 7002TIP3    H242498   6.069   5.302  16.360 -0.5362  0.1165 -0.0048
 7003TIP3   OH242499   5.741   0.457  12.763  0.0894  0.6141 -0.3221
 7003TIP3    H142500   5.645   0.455  12.765  0.1151 -0.3106  0.0978
 7003TIP3    H242501   5.761   0.528  12.702 -0.8714  0.2747 -1.0680
 7004TIP3   OH242502   2.962   5.548   5.157 -0.6321 -0.3466 -0.0243
 7004TIP3    H142503   2.993   5.639   5.157 -1.6743  0.0199  0.7591
 7004TIP3    H242504   2.988   5.514   5.071 -1.6930  1.1969 -0.9924
 7005TIP3   OH242505   3.988   5.760   6.147  0.1879  0.3272 -0.0622
 7005TIP3    H142506   4.062   5.811   6.115  0.1527 -0.1887 -1.0020
 7005TIP3    H242507   3.918   5.824   6.159  0.4757  0.6636 -0.1809
 7006TIP3   OH242508   6.562   4.961   0.043  0.1172  0.0716  0.0039
 7006TIP3    H142509   6.593   5.046   0.011  0.3475  0.2976  0.7994
 7006TIP3    H242510   6.475   4.952   0.006 -0.1309  0.9158  0.3558
 7007TIP3   OH242511   2.747   6.416   0.071  0.3551 -0.2783 -0.3465
 7007TIP3    H142512   2.701   6.374  -0.002  1.6296 -0.9257 -0.8167
 7007TIP3    H242513   2.768   6.344   0.131 -1.3455  0.3476  1.0807
 7008TIP3   OH242514   5.182   4.251   4.458  0.2674 -0.4224 -0.1266
 7008TIP3    H142515   5.242   4.188   4.419  1.5203  0.1842  0.7496
 7008TIP3    H242516   5.096   4.211   4.449  0.5993 -0.7644 -2.5721
 7009TIP3   OH242517   2.022   3.134   5.921  0.2400  0.1295  0.8754
 7009TIP3    H142518   2.028   3.148   5.826  0.2323  0.8595  0.9755
 7009TIP3    H242519   1.961   3.061   5.930  1.1410 -0.7281  0.2757
 7010TIP3   OH242520   5.549   1.607  15.710 -0.2708 -0.1520 -0.2385
 7010TIP3    H142521   5.518   1.538  15.770  0.8086 -0.9163 -0.5335
 7010TIP3    H242522   5.479   1.615  15.645 -0.4814 -0.8731 -0.1163
 7011TIP3   OH242523   4.240   1.715   3.346 -0.1814 -0.1025 -0.1832
 7011TIP3    H142524   4.305   1.660   3.389  1.5289  3.9494  3.1387
 7011TIP3    H242525   4.290   1.771   3.287 -1.3144  0.2825 -0.8138
 7012TIP3   OH242526   1.899   6.566  15.861  0.1288  0.3337 -0.0848
 7012TIP3    H142527   1.926   6.477  15.883 -0.5822  0.0486 -0.3311
 7012TIP3    H242528   1.841   6.555  15.785  0.6004  1.0701 -0.5630
 7013TIP3   OH242529   5.530   2.228   3.075 -0.0554 -0.2677  0.3136
 7013TIP3    H142530   5.522   2.161   3.142  0.6548  1.2554  2.0330
 7013TIP3    H242531   5.464   2.206   3.010 -1.8175 -1.0267  2.2386
 7014TIP3   OH242532   2.297   0.950  16.830 -0.5960 -0.1926 -0.6354
 7014TIP3    H142533   2.252   0.894  16.766  1.1975  0.2594 -2.4076
 7014TIP3    H242534   2.355   0.890  16.876 -0.5842 -0.2206 -0.6870
 7015TIP3   OH242535   0.778   6.529   2.834  0.4764 -0.4636 -0.0744
 7015TIP3    H142536   0.821   6.463   2.889 -1.9308 -0.6088  1.8394
 7015TIP3    H242537   0.767   6.604   2.892 -0.3345  0.1536 -0.9961
 7016TIP3   OH242538   2.887   6.281  14.295  0.0250  0.4995  0.0570
 7016TIP3    H142539   2.941   6.351  14.258  0.7120  0.3731  0.7749
 7016TIP3    H242540   2.891   6.296  14.390 -2.5258  1.4384  0.0792
 7017TIP3   OH242541   2.794   0.007   4.817 -0.0057  0.0142 -0.0213
 7017TIP3    H142542   2.711  -0.015   4.859  0.8446 -0.6848  1.3847
 7017TIP3    H242543   2.833  -0.078   4.796  0.0477  0.3480 -1.3180
 7018TIP3   OH242544   1.768   1.816   3.613  1.1313  1.0434  0.1836
 7018TIP3    H142545   1.862   1.801   3.623  0.7857 -0.0080  2.6381
 7018TIP3    H242546   1.750   1.894   3.665  0.5016  0.4745  0.8577
 7019TIP3   OH242547   6.204   1.111  14.505 -0.1326  0.1713 -0.5713
 7019TIP3    H142548   6.109   1.109  14.509 -0.1275  0.8927  0.2124
 7019TIP3    H242549   6.226   1.059  14.428 -1.1135 -0.8545 -0.1875
 7020TIP3   OH242550   4.782   3.005   1.338  0.5545  0.1786  0.2752
 7020TIP3    H142551   4.724   2.931   1.319  1.8159 -0.6640 -0.3901
 7020TIP3    H242552   4.800   2.998   1.432 -1.3509  1.1704  0.7675
 7021TIP3   OH242553   6.357   4.665   0.924 -0.2881  0.2840  0.4465
 7021TIP3    H142554   6.329   4.677   1.015  1.9711 -0.3267  1.2715
 7021TIP3    H242555   6.382   4.752   0.895  0.7220  0.2039  1.0413
 7022TIP3   OH242556   0.222   5.535  12.117  0.4615  0.3448  0.8760
 7022TIP3    H142557   0.268   5.452  12.124  0.6741  0.5596  2.6212
 7022TIP3    H242558   0.166   5.526  12.040  2.2140 -0.5147 -0.3552
 7023TIP3   OH242559   0.715   4.050  17.066 -0.6799 -0.1157 -0.1336
 7023TIP3    H142560   0.731   4.036  16.973  0.0935 -1.6494  0.1946
 7023TIP3    H242561   0.705   4.145  17.075  1.3482  0.2872 -1.4872
 7024TIP3   OH242562   3.072   0.248  12.426  0.1106  0.0267 -0.1696
 7024TIP3    H142563   2.992   0.199  12.409  1.0474 -1.9037  0.6084
 7024TIP3    H242564   3.055   0.336  12.393 -2.1229 -0.4736 -0.4788
 7025TIP3   OH242565   5.421   3.079  15.395  0.3351 -0.0889 -0.6550
 7025TIP3    H142566   5.450   3.106  15.482  3.4277 -2.8505 -0.6340
 7025TIP3    H242567   5.339   3.126  15.381  0.3697  1.4301  3.1950
 7026TIP3   OH242568   1.580   4.427   1.914  0.3449  0.1037 -0.3851
 7026TIP3    H142569   1.614   4.443   2.002  0.4587  0.5834 -0.5133
 7026TIP3    H242570   1.555   4.514   1.882  2.1611  0.2192 -1.5922
 7027TIP3   OH242571   4.199   1.974  11.299 -0.7268  0.5589 -0.0403
 7027TIP3    H142572   4.158   1.930  11.374 -0.6533 -1.1963 -0.9780
 7027TIP3    H242573   4.141   1.954  11.226 -0.5336  1.8289 -0.5552
 7028TIP3   OH242574   1.122   6.664   5.271  0.5915  0.0019  0.1748
 7028TIP3    H142575   1.053   6.677   5.206 -0.3761  1.1055  1.3671
 7028TIP3    H242576   1.101   6.580   5.312  1.3652 -0.8406 -1.0693
 7029TIP3   OH242577   3.509   2.325  12.488 -0.5979  0.6995 -0.6187
 7029TIP3    H142578   3.425   2.370  12.482 -0.3002  1.3760  0.1632
 7029TIP3    H242579   3.570   2.392  12.516  0.0911  0.0703 -0.5982
 7030TIP3   OH242580   0.945   4.730   3.579  0.2831 -0.1302 -0.4357
 7030TIP3    H142581   0.936   4.651   3.527  0.2804  0.4621 -1.3595
 7030TIP3    H242582   1.023   4.774   3.544  1.0647 -0.3567  0.9388
 7031TIP3   OH242583   1.456   4.111   3.024 -0.1367  0.5230 -0.0614
 7031TIP3    H142584   1.537   4.066   3.000 -0.3275  0.5885 -0.8502
 7031TIP3    H242585   1.389   4.070   2.971 -0.6988  0.2085  0.8664
 7032TIP3   OH242586   4.834   3.299  11.496  0.0649 -0.7736 -0.2683
 7032TIP3    H142587   4.787   3.309  11.579  1.3008 -1.3646  0.5396
 7032TIP3    H242588   4.774   3.249  11.441 -1.6111  1.3527 -0.4881
 7033TIP3   OH242589   3.357   6.490  15.732 -0.4689  0.2428 -0.4213
 7033TIP3    H142590   3.382   6.415  15.786 -0.5758  0.0625 -0.6233
 7033TIP3    H242591   3.407   6.564  15.769 -2.4602  0.6974  1.6156
 7034TIP3   OH242592   2.932   4.235   4.521  0.0525  0.3324 -0.1138
 7034TIP3    H142593   2.907   4.266   4.434 -1.7814  0.5550  0.4500
 7034TIP3    H242594   2.857   4.256   4.576  0.9478 -0.3275  1.4114
 7035TIP3   OH242595   3.022   0.327  16.243 -0.0733 -0.2562 -0.1129
 7035TIP3    H142596   3.019   0.352  16.336  0.3922  0.7524 -0.3520
 7035TIP3    H242597   2.978   0.399  16.198 -0.0583 -0.6125 -0.7063
 7036TIP3   OH242598   6.011   5.352   6.609 -0.0761 -0.0188 -0.4654
 7036TIP3    H142599   5.979   5.439   6.587 -1.1475  0.5202  2.7008
 7036TIP3    H242600   6.076   5.367   6.677 -0.1615 -1.6720  0.0339
 7037TIP3   OH242601   6.068   5.634  15.297 -1.2253 -0.4197 -0.1203
 7037TIP3    H142602   5.983   5.613  15.335 -0.8908 -1.0126  0.3256
 7037TIP3    H242603   6.049   5.701  15.231 -1.7399  1.3026  1.6566
 7038TIP3   OH242604   2.938   0.152  15.993  0.8714  0.0433  0.0953
 7038TIP3    H142605   2.955   0.069  16.038 -0.2008  0.6139  1.6593
 7038TIP3    H242606   2.988   0.217  16.042 -0.6938  0.7516  0.8305
 7039TIP3   OH242607   3.490   4.664  13.491 -0.1952 -0.0607  0.2377
 7039TIP3    H142608   3.534   4.744  13.465 -2.3179  0.6847 -1.4056
 7039TIP3    H242609   3.423   4.692  13.553 -0.9149 -0.5412 -0.3045
 7040TIP3   OH242610   1.667   0.156  11.839  0.3180 -0.1400  0.0704
 7040TIP3    H142611   1.755   0.193  11.848  0.3853 -0.1705 -0.4335
 7040TIP3    H242612   1.679   0.063  11.859 -0.0113  0.2278  2.2232
 7041TIP3   OH242613   5.450   5.273   6.078 -0.1307 -0.2916  0.2824
 7041TIP3    H142614   5.463   5.184   6.046 -0.7748  0.2662 -1.6587
 7041TIP3    H242615   5.408   5.262   6.164  1.1944 -1.8369  0.7936
 7042TIP3   OH242616   2.434   3.885   4.288  0.5262  0.4267 -0.6200
 7042TIP3    H142617   2.466   3.837   4.212  0.6481 -1.0021  0.2885
 7042TIP3    H242618   2.407   3.817   4.350  1.0702  1.5149  0.8908
 7043TIP3   OH242619   0.392   1.002  12.995  0.6154  0.1718 -0.4821
 7043TIP3    H142620   0.366   1.070  12.933 -0.2582  0.8904  0.6259
 7043TIP3    H242621   0.488   1.007  12.997  0.6756  0.0302 -1.8448
 7044TIP3   OH242622   3.088   1.730  16.355  0.5854  0.0117  0.0016
 7044TIP3    H142623   3.008   1.699  16.313  0.7176  0.4095 -0.5508
 7044TIP3    H242624   3.080   1.700  16.446 -0.0978 -0.1182 -0.0920
 7045TIP3   OH242625   1.121   6.017  17.033 -0.4435  0.2214  0.2052
 7045TIP3    H142626   1.214   6.018  17.015 -0.6537  2.9218 -1.2667
 7045TIP3    H242627   1.079   6.033  16.949 -1.9962  2.8968  1.3309
 7046TIP3   OH242628   6.359   0.714   2.384 -0.4121 -0.0318  0.1422
 7046TIP3    H142629   6.353   0.627   2.345  0.9594 -0.5079  0.9378
 7046TIP3    H242630   6.289   0.716   2.449 -1.1094 -0.1462 -0.5871
 7047TIP3   OH242631   1.229   0.026  16.472  0.1438  0.3784  0.3996
 7047TIP3    H142632   1.260  -0.011  16.555  0.2729  1.6842  0.9577
 7047TIP3    H242633   1.152  -0.026  16.450 -0.0050  0.1349  1.4336
 7048TIP3   OH242634   3.679   6.561  13.821 -0.0625  0.2053 -0.2986
 7048TIP3    H142635   3.624   6.498  13.775 -0.6094  0.3530  0.1504
 7048TIP3    H242636   3.622   6.636  13.838  0.3669  0.5026 -0.1297
 7049TIP3   OH242637   4.582   2.205   0.559  0.2122 -0.9356 -0.2475
 7049TIP3    H142638   4.652   2.263   0.529 -0.6422 -1.2917 -3.1567
 7049TIP3    H242639   4.501   2.246   0.528 -0.8757 -1.0118  2.2576
 7050TIP3   OH242640   3.429   4.507   4.928 -0.6663  0.1418  0.0260
 7050TIP3    H142641   3.376   4.486   5.005  0.4137 -1.2360  0.4503
 7050TIP3    H242642   3.394   4.451   4.859 -0.7635  0.3707 -0.1092
 7051TIP3   OH242643   2.758   1.186   5.210  0.5743 -0.0947  0.6900
 7051TIP3    H142644   2.684   1.137   5.174 -0.3705  0.9211  1.2056
 7051TIP3    H242645   2.793   1.129   5.279 -1.8732  0.7831  2.8135
 7052TIP3   OH242646   0.991   0.882  15.530 -0.2116 -0.3721 -0.0542
 7052TIP3    H142647   0.920   0.887  15.467 -0.3014  1.1428  0.1315
 7052TIP3    H242648   0.948   0.875  15.615 -0.0915 -2.4435 -0.1138
 7053TIP3   OH242649   0.010   2.171  16.812 -0.6465 -0.0756  0.5555
 7053TIP3    H142650  -0.038   2.092  16.836 -1.7740  0.3392 -0.2627
 7053TIP3    H242651  -0.055   2.241  16.816  0.5561  1.0282  2.2557
 7054TIP3   OH242652   5.920   2.121   3.423  0.5560 -0.4252 -0.0899
 7054TIP3    H142653   5.852   2.065   3.461 -0.3398  0.2816 -0.6196
 7054TIP3    H242654   5.885   2.147   3.338  0.7696  1.2342  0.2976
 7055TIP3   OH242655   3.515   0.140  12.400  0.5186 -0.0129 -0.1642
 7055TIP3    H142656   3.562   0.066  12.438 -0.5199 -0.5181  0.1417
 7055TIP3    H242657   3.451   0.101  12.341 -0.3010  0.6133  0.2880
 7056TIP3   OH242658   2.784   0.647   4.437  0.0015 -0.3243  0.5404
 7056TIP3    H142659   2.697   0.618   4.465  0.1168 -0.2847  0.9549
 7056TIP3    H242660   2.827   0.568   4.405 -0.5657 -0.1541 -0.6894
 7057TIP3   OH242661   1.025   4.119  11.710 -0.4886  0.3200  0.3504
 7057TIP3    H142662   1.045   4.116  11.617 -2.3810 -0.4317 -0.0833
 7057TIP3    H242663   1.084   4.186  11.745  0.9370 -0.0526 -1.1784
 7058TIP3   OH242664   1.952   1.351  11.684  0.1544 -0.1923  0.3411
 7058TIP3    H142665   1.973   1.325  11.594 -0.7065 -0.1687  0.1241
 7058TIP3    H242666   1.948   1.269  11.732 -0.9283 -0.3458  0.0119
 7059TIP3   OH242667   1.739   0.049   5.753  0.0712 -0.0264 -0.7423
 7059TIP3    H142668   1.676   0.035   5.823 -0.7886  0.0612 -1.4891
 7059TIP3    H242669   1.706   0.126   5.706  3.2449  3.1665  1.6761
 7060TIP3   OH242670   5.335   1.810   0.382 -0.0730 -0.6739  0.1472
 7060TIP3    H142671   5.278   1.871   0.429 -0.0535  0.1383 -0.8509
 7060TIP3    H242672   5.276   1.740   0.353 -0.8704  0.7801 -1.9569
 7061TIP3   OH242673   0.086   3.329  11.107 -0.9972 -0.1722 -0.3238
 7061TIP3    H142674   0.068   3.413  11.150  0.7738  0.9418 -1.6420
 7061TIP3    H242675   0.017   3.321  11.041 -1.7788 -0.2898  0.4829
 7062TIP3   OH242676   2.288   4.762   1.695  0.1328  0.7465 -0.8748
 7062TIP3    H142677   2.313   4.716   1.775 -2.9709  1.9130  0.9478
 7062TIP3    H242678   2.219   4.708   1.657 -0.7074  1.8129 -0.9180
 7063TIP3   OH242679   2.609   5.637  16.527 -0.2571  0.6819  0.0750
 7063TIP3    H142680   2.640   5.547  16.538 -1.2684  0.1687 -0.9922
 7063TIP3    H242681   2.609   5.651  16.432  0.5217  2.0517  0.2527
 7064TIP3   OH242682   5.553   1.903  15.723  0.7818  0.4759 -0.2609
 7064TIP3    H142683   5.575   1.905  15.630 -2.0632  0.1380 -1.0160
 7064TIP3    H242684   5.560   1.811  15.748 -1.2477  0.0936 -0.9426
 7065TIP3   OH242685   1.548   5.185  11.065 -0.0141 -0.4421 -0.1045
 7065TIP3    H142686   1.505   5.257  11.111 -0.6101 -0.3974 -0.7105
 7065TIP3    H242687   1.489   5.165  10.992  0.7713 -0.7117 -0.6706
 7066TIP3   OH242688   0.733   2.901  13.463  0.1327  0.2747  0.2681
 7066TIP3    H142689   0.710   2.973  13.522  0.0755 -0.7879  1.5739
 7066TIP3    H242690   0.654   2.846  13.459  0.3046  0.0586 -0.4119
 7067TIP3   OH242691   5.587   5.337   2.436  0.1208 -0.1947 -0.0199
 7067TIP3    H142692   5.661   5.297   2.390  0.0257 -0.5272  0.1174
 7067TIP3    H242693   5.628   5.399   2.497  0.2000  1.4701 -1.6668
 7068TIP3   OH242694   2.591   6.137  10.121  0.5782 -0.0068 -0.1823
 7068TIP3    H142695   2.667   6.079  10.126  0.0374 -0.6636  0.7861
 7068TIP3    H242696   2.516   6.078  10.116  0.0752  0.6288 -0.3486
 7069TIP3   OH242697   2.761   1.078  15.608  0.3084  0.0236  0.2966
 7069TIP3    H142698   2.841   1.119  15.574  0.1706  0.9820  1.0707
 7069TIP3    H242699   2.788   0.991  15.635  0.6717 -0.3451 -1.1710
 7070TIP3   OH242700   5.393   5.005  13.808  0.2814 -0.6125  0.7153
 7070TIP3    H142701   5.416   5.098  13.810 -0.2140 -0.4567 -0.2929
 7070TIP3    H242702   5.448   4.968  13.738  0.3059 -1.0312  0.9536
 7071TIP3   OH242703   0.339   1.754  10.949 -0.1933 -0.1222 -0.8854
 7071TIP3    H142704   0.338   1.845  10.921 -0.2152  0.0560 -0.3067
 7071TIP3    H242705   0.362   1.705  10.869 -1.4503  0.2605 -1.5082
 7072TIP3   OH242706   6.347   3.559  15.114  0.2097  0.3760  0.2696
 7072TIP3    H142707   6.391   3.552  15.030  1.1688 -0.8573  0.8330
 7072TIP3    H242708   6.268   3.610  15.097  0.1900 -0.1916 -1.4386
 7073TIP3   OH242709   4.353   4.576   1.149 -0.5326  0.8313  0.0384
 7073TIP3    H142710   4.273   4.624   1.170 -1.0788 -0.1717  0.2948
 7073TIP3    H242711   4.343   4.491   1.192  0.6157  0.6397 -0.0292
 7074TIP3   OH242712   3.282   0.513   5.361  0.1331 -0.2463  0.5640
 7074TIP3    H142713   3.319   0.464   5.435  2.1896  0.3730  0.0276
 7074TIP3    H242714   3.246   0.592   5.400 -0.7099 -0.8982  1.1262
 7075TIP3   OH242715   5.864   0.503  13.245  0.6757  0.5744 -0.6269
 7075TIP3    H142716   5.837   0.595  13.236  0.2457  0.4293 -0.8801
 7075TIP3    H242717   5.851   0.466  13.158 -0.8729 -0.1701 -0.1122
 7076TIP3   OH242718   3.281   5.095  15.772 -0.4132  0.2636 -0.1374
 7076TIP3    H142719   3.234   5.126  15.849 -2.2689 -0.6696 -0.8203
 7076TIP3    H242720   3.340   5.027  15.806  0.5545  1.4797  0.7378
 7077TIP3   OH242721   4.472   4.635  16.574 -0.5226  0.3269  0.0720
 7077TIP3    H142722   4.497   4.725  16.596 -0.5802  0.7666 -1.5231
 7077TIP3    H242723   4.417   4.644  16.496  0.7523 -1.1921 -1.0743
 7078TIP3   OH242724   2.414   2.263   5.452 -0.3001  0.2344  0.0387
 7078TIP3    H142725   2.505   2.286   5.430 -1.2836  4.4288 -0.5791
 7078TIP3    H242726   2.378   2.228   5.370  0.9644 -2.6897  0.6307
 7079TIP3   OH242727   4.906   3.141   0.867 -0.2270 -0.1652 -0.3013
 7079TIP3    H142728   4.955   3.185   0.936 -0.4535 -0.7112  0.2150
 7079TIP3    H242729   4.898   3.207   0.797 -0.6936  0.6649  0.5158
 7080TIP3   OH242730   3.487   0.081   5.600 -0.0725  0.0264  0.0900
 7080TIP3    H142731   3.545   0.083   5.676 -2.0211  0.9968  1.6436
 7080TIP3    H242732   3.440  -0.002   5.607  1.3531 -0.9734 -1.4189
 7081TIP3   OH242733   6.791   0.648  11.928 -0.1388 -0.2320  0.4672
 7081TIP3    H142734   6.804   0.685  11.841 -0.4994  0.5548  0.7415
 7081TIP3    H242735   6.716   0.590  11.919  1.3599 -2.1561 -0.3276
 7082TIP3   OH242736   4.073   3.402   0.422  0.3243  0.0611 -0.3378
 7082TIP3    H142737   4.006   3.430   0.360 -1.3159  0.3425  1.4555
 7082TIP3    H242738   4.047   3.442   0.505  1.4831 -1.6229  0.9186
 7083TIP3   OH242739   1.927   2.238  15.283  0.4221  0.3268  0.0561
 7083TIP3    H142740   1.832   2.252  15.284  0.2716 -0.3822 -1.6005
 7083TIP3    H242741   1.947   2.218  15.192  2.1461  0.2533  0.4252
 7084TIP3   OH242742   2.434   2.892   0.166 -0.3377  0.5629 -0.0816
 7084TIP3    H142743   2.424   2.797   0.172 -0.3405  0.5918  0.4668
 7084TIP3    H242744   2.512   2.905   0.112 -0.5824  0.2552 -0.5080
 7085TIP3   OH242745   2.714   1.122  12.251 -0.1657 -0.1588  0.6394
 7085TIP3    H142746   2.646   1.186  12.274  1.0566  0.8814  1.5236
 7085TIP3    H242747   2.703   1.107  12.157 -1.0734  0.6247  0.6078
 7086TIP3   OH242748   5.150   0.821   4.933 -0.0522 -0.0035  0.0079
 7086TIP3    H142749   5.242   0.812   4.908 -0.5145  0.1871 -1.9149
 7086TIP3    H242750   5.146   0.786   5.022  2.2300  1.7684  0.9074
 7087TIP3   OH242751   3.428   3.358  15.296 -0.2465 -0.1274  0.3793
 7087TIP3    H142752   3.488   3.420  15.338  0.3685 -0.6009  0.2042
 7087TIP3    H242753   3.398   3.404  15.218 -0.7495  0.4302  0.8911
 7088TIP3   OH242754   1.428   3.087   4.285 -0.0962  0.0376  0.0490
 7088TIP3    H142755   1.454   3.101   4.194  0.0020 -2.1007 -0.3171
 7088TIP3    H242756   1.449   3.169   4.330  0.9279  0.7277 -1.6161
 7089TIP3   OH242757   2.380   4.179  11.016  0.0515 -0.0745 -0.3175
 7089TIP3    H142758   2.424   4.177  10.931 -2.8513 -0.5379 -1.9455
 7089TIP3    H242759   2.298   4.131  11.002 -0.3378 -0.5774  2.8988
 7090TIP3   OH242760   3.731   2.720   2.554  0.4892  0.1179 -0.0480
 7090TIP3    H142761   3.716   2.783   2.484  1.1176  1.0624  0.6447
 7090TIP3    H242762   3.667   2.743   2.621  0.2734 -0.4172 -0.0655
 7091TIP3   OH242763   0.422   5.767  14.571  0.0748 -0.2244  0.1811
 7091TIP3    H142764   0.386   5.695  14.622 -0.0151  0.1643  0.6869
 7091TIP3    H242765   0.495   5.799  14.623 -0.0184  0.1818  0.0713
 7092TIP3   OH242766   2.839   4.484   4.867  0.3499 -0.1868 -0.4412
 7092TIP3    H142767   2.806   4.509   4.953  2.0769 -1.7326  0.7381
 7092TIP3    H242768   2.771   4.428   4.830  0.2108 -0.6856  0.5485
 7093TIP3   OH242769   4.131   5.890  16.138 -0.3117 -0.0496  0.0661
 7093TIP3    H142770   4.141   5.802  16.175 -1.5089  0.1586  0.9349
 7093TIP3    H242771   4.174   5.948  16.200 -1.2063  0.1706  0.4888
 7094TIP3   OH242772   0.057   0.669  15.410  0.0614 -0.3395  0.6457
 7094TIP3    H142773  -0.015   0.677  15.347  0.5011 -0.7143  0.0866
 7094TIP3    H242774   0.136   0.679  15.357  0.4193  1.2379  1.4336
 7095TIP3   OH242775   3.597   3.547   0.966 -0.2812 -0.0326  0.2894
 7095TIP3    H142776   3.514   3.538   1.014  0.3651 -0.0202  1.4582
 7095TIP3    H242777   3.645   3.614   1.014  0.2909  0.1665 -0.5522
 7096TIP3   OH242778   3.644   4.181   5.377 -0.3822  0.0558  0.4707
 7096TIP3    H142779   3.595   4.140   5.448 -0.3312  1.7997  1.5483
 7096TIP3    H242780   3.709   4.115   5.352 -0.8616 -0.8469  1.5535
 7097TIP3   OH242781   1.351   6.678  17.009  0.0121 -0.1888 -0.1493
 7097TIP3    H142782   1.358   6.586  16.981 -1.1317 -0.5807  0.7685
 7097TIP3    H242783   1.396   6.680  17.094  0.2257  0.1605 -0.2701
 7098TIP3   OH242784   6.584   1.997   4.410  0.2526 -0.1281  0.3953
 7098TIP3    H142785   6.515   1.935   4.387 -0.9357  0.7406  1.4548
 7098TIP3    H242786   6.608   2.038   4.328 -2.0463  1.0743  0.2337
 7099TIP3   OH242787   6.126   5.039  11.640 -0.1388  0.0828 -0.3380
 7099TIP3    H142788   6.194   5.102  11.617  1.4659 -1.9000 -1.2863
 7099TIP3    H242789   6.154   5.003  11.724 -0.4294 -0.1805 -0.3516
 7100TIP3   OH242790   2.748   3.473  16.664  0.2391 -0.0282 -0.0963
 7100TIP3    H142791   2.721   3.418  16.591  0.4286 -1.5064  0.9040
 7100TIP3    H242792   2.731   3.420  16.742 -0.7644  1.8275  1.0191
 7101TIP3   OH242793   3.259   3.576  17.267 -0.0157  0.2821 -0.1101
 7101TIP3    H142794   3.254   3.539  17.356  1.1674  0.7708  0.1816
 7101TIP3    H242795   3.349   3.559  17.240 -0.6739 -0.8741 -1.6890
 7102TIP3   OH242796   2.255   6.551  13.074 -0.5690  0.0082  0.5939
 7102TIP3    H142797   2.277   6.644  13.070 -0.6209  0.1274  2.3351
 7102TIP3    H242798   2.337   6.506  13.051 -0.0240  0.4797  1.5701
 7103TIP3   OH242799   1.710   1.233  13.786 -0.1538  0.1071 -0.5725
 7103TIP3    H142800   1.739   1.260  13.699  0.3475 -0.4168 -0.5726
 7103TIP3    H242801   1.624   1.193  13.771 -0.0801  0.0405 -0.8282
 7104TIP3   OH242802   1.069   4.271   6.347 -0.1003 -0.3579 -0.5495
 7104TIP3    H142803   0.997   4.210   6.333 -1.5228  0.8059  1.1694
 7104TIP3    H242804   1.026   4.355   6.364  1.7450  0.8093 -1.3418
 7105TIP3   OH242805   2.763   4.471  13.301  0.3941  0.4761  0.0540
 7105TIP3    H142806   2.790   4.435  13.386 -0.0665  1.8790  0.8275
 7105TIP3    H242807   2.829   4.440  13.240  1.0342 -0.1370  1.0306
 7106TIP3   OH242808   2.034   3.256  16.648  0.1382 -0.3847 -0.0858
 7106TIP3    H142809   1.945   3.269  16.616  0.6047 -1.0418 -1.7252
 7106TIP3    H242810   2.078   3.339  16.630  0.3778 -0.7261 -1.1177
 7107TIP3   OH242811   3.582   5.258   6.182  0.2199  0.4018  0.1066
 7107TIP3    H142812   3.504   5.213   6.213  0.8742 -0.0299  1.1553
 7107TIP3    H242813   3.555   5.298   6.098 -0.6814 -0.9689 -0.2798
 7108TIP3   OH242814   4.339   1.117  15.852 -0.1536 -0.2603  0.1791
 7108TIP3    H142815   4.421   1.132  15.806  0.2363 -1.5653  0.3989
 7108TIP3    H242816   4.294   1.202  15.851  0.3289  0.0044 -1.6338
 7109TIP3   OH242817   0.157   2.111   4.986 -0.2042  0.0871 -0.5067
 7109TIP3    H142818   0.134   2.043   4.924  0.4708 -0.7206  0.0992
 7109TIP3    H242819   0.234   2.077   5.032 -0.9690  0.4322  1.1190
 7110TIP3   OH242820   3.070   1.470  12.465 -0.2372 -0.3385 -0.2355
 7110TIP3    H142821   3.122   1.501  12.391 -0.8304  0.4184 -0.3453
 7110TIP3    H242822   3.128   1.479  12.541 -0.2916  0.7932 -0.3099
 7111TIP3   OH242823   1.805   0.797  12.921 -0.0565  0.3818 -0.0923
 7111TIP3    H142824   1.738   0.741  12.959  0.5115  1.3191  2.5443
 7111TIP3    H242825   1.874   0.737  12.893  0.1991 -0.3621  1.9633
 7112TIP3   OH242826   6.532   1.636  14.564  0.0962 -0.8018  0.3071
 7112TIP3    H142827   6.590   1.658  14.491 -0.0804 -0.6974  0.1960
 7112TIP3    H242828   6.590   1.611  14.635  0.3565  1.0243  0.7819
 7113TIP3   OH242829   1.775   1.972  14.772  0.9502  0.0433 -0.2615
 7113TIP3    H142830   1.757   1.982  14.865 -2.2673  0.8138 -0.8429
 7113TIP3    H242831   1.761   2.060  14.735  1.4494 -0.3922 -1.5654
 7114TIP3   OH242832   6.356   1.530  13.709 -0.3856 -0.3300  0.1493
 7114TIP3    H142833   6.393   1.589  13.774 -1.2687  0.0814  0.3011
 7114TIP3    H242834   6.261   1.532  13.726 -0.4723 -1.4824 -0.0950
 7115TIP3   OH242835   0.989   6.030   4.630 -0.0549 -0.3761  0.9411
 7115TIP3    H142836   0.986   5.941   4.597  1.0936 -0.2588  0.4554
 7115TIP3    H242837   1.056   6.073   4.577 -1.3982  1.1056  0.3745
 7116TIP3   OH242838   6.433   2.306  12.025 -0.1367 -0.8320  0.0891
 7116TIP3    H142839   6.477   2.274  11.946  1.8911  0.8604  0.4419
 7116TIP3    H242840   6.496   2.292  12.095 -1.3219 -0.9565  1.1692
 7117TIP3   OH242841   3.672   3.588  13.020 -0.4753  0.5581  0.5523
 7117TIP3    H142842   3.715   3.635  12.949  0.9191  0.2994  1.1923
 7117TIP3    H242843   3.595   3.547  12.980  1.5890 -1.6513 -1.4146
 7118TIP3   OH242844   1.466   0.886  10.867  0.2204 -0.3955  0.7408
 7118TIP3    H142845   1.407   0.961  10.874  0.7766  0.1979 -0.5507
 7118TIP3    H242846   1.538   0.918  10.812  0.3974 -1.9211  0.0577
 7119TIP3   OH242847   2.591   1.193  15.763  0.2367 -0.7903 -0.3673
 7119TIP3    H142848   2.666   1.150  15.723 -0.0463  0.0923 -1.9276
 7119TIP3    H242849   2.590   1.281  15.724 -0.9854 -0.4353  0.4152
 7120TIP3   OH242850   2.459   3.355  13.856  0.4352 -0.2883 -0.4037
 7120TIP3    H142851   2.410   3.301  13.918  1.3173  1.1288  1.6673
 7120TIP3    H242852   2.521   3.403  13.911 -0.5864  3.1528 -1.9895
 7121TIP3   OH242853   3.932   5.303   2.534  0.6901 -0.7613  0.6415
 7121TIP3    H142854   3.953   5.211   2.519 -1.7975 -1.3460  0.3227
 7121TIP3    H242855   3.955   5.347   2.451  0.4205 -1.3662  0.2464
 7122TIP3   OH242856   5.206   0.134  15.229 -0.1783 -0.7108  0.6141
 7122TIP3    H142857   5.282   0.110  15.281  0.5920 -0.4011 -0.3305
 7122TIP3    H242858   5.155   0.192  15.285 -0.6831 -2.3624  1.9363
 7123TIP3   OH242859   3.607   0.904  14.375 -0.1331 -0.7852  0.1189
 7123TIP3    H142860   3.513   0.919  14.365  0.2498  1.7306 -0.4234
 7123TIP3    H242861   3.614   0.817  14.414 -2.6498 -1.2444 -0.3131
 7124TIP3   OH242862   5.224   5.173   5.009  0.1059 -0.2647 -0.1714
 7124TIP3    H142863   5.282   5.113   4.961  1.2212  1.4042 -0.9848
 7124TIP3    H242864   5.257   5.171   5.099  0.9319  0.0644 -0.4607
 7125TIP3   OH242865   0.660   0.343  11.883 -0.1927  0.7051  0.0342
 7125TIP3    H142866   0.654   0.320  11.975 -0.6302  0.2478 -0.1076
 7125TIP3    H242867   0.754   0.353  11.867  0.1286 -1.8566 -0.0939
 7126TIP3   OH242868   3.379   1.243  12.845  0.9305  0.4666  0.4413
 7126TIP3    H142869   3.371   1.332  12.880  0.1290  1.3918 -1.9117
 7126TIP3    H242870   3.310   1.194  12.889 -1.2758  2.0471 -1.0376
 7127TIP3   OH242871   0.539   1.241  15.750  0.6790 -0.0467  0.4613
 7127TIP3    H142872   0.450   1.277  15.749 -0.0591 -1.6801 -1.7734
 7127TIP3    H242873   0.594   1.311  15.715  0.1709  0.7009  1.1198
 7128TIP3   OH242874   2.474   2.107  10.687 -0.1431 -0.0421 -0.2761
 7128TIP3    H142875   2.472   2.051  10.609  0.6290 -0.3024 -0.1169
 7128TIP3    H242876   2.525   2.057  10.751  0.0691  0.6030  0.0635
 7129TIP3   OH242877   6.204   0.563  15.277 -0.0400 -0.5872 -0.2376
 7129TIP3    H142878   6.145   0.568  15.353  0.8541 -1.7583  0.5640
 7129TIP3    H242879   6.156   0.607  15.207 -0.5969  1.2167  1.1804
 7130TIP3   OH242880   5.281   3.757   2.518  0.4516 -0.0533 -0.6954
 7130TIP3    H142881   5.303   3.704   2.441  0.2734 -2.4456  0.8143
 7130TIP3    H242882   5.192   3.731   2.541 -0.1971  1.9768 -0.6876
 7131TIP3   OH242883   0.432   2.936  11.752  0.3483 -0.5125 -0.4539
 7131TIP3    H142884   0.387   2.925  11.837  0.8272  1.1422  0.0454
 7131TIP3    H242885   0.384   2.879  11.693 -0.9867 -0.5347  0.5895
 7132TIP3   OH242886   2.785   3.677   3.534 -0.0767 -0.2511  0.0282
 7132TIP3    H142887   2.712   3.713   3.484  1.1343  2.2966 -0.0710
 7132TIP3    H242888   2.861   3.685   3.476  1.0407  1.1557  1.5842
 7133TIP3   OH242889   1.509   0.916  11.219 -0.1768 -0.6094 -0.1103
 7133TIP3    H142890   1.526   0.823  11.237 -1.2603 -0.8917 -0.4694
 7133TIP3    H242891   1.572   0.939  11.151  1.3455 -0.5749  1.2456
 7134TIP3   OH242892   3.179   1.793   0.953 -0.2279  0.2047 -0.0322
 7134TIP3    H142893   3.094   1.776   0.994  0.2804 -0.9310  0.5645
 7134TIP3    H242894   3.243   1.781   1.023  0.3880  1.9419 -0.2435
 7135TIP3   OH242895   4.745   1.320   2.255  0.2778  0.3719 -0.3114
 7135TIP3    H142896   4.687   1.353   2.324  0.9445  0.6166  0.1384
 7135TIP3    H242897   4.754   1.394   2.195 -0.6563  0.0212 -0.9154
 7136TIP3   OH242898   3.906   6.245   5.850  0.2735 -0.1738 -0.2736
 7136TIP3    H142899   3.900   6.177   5.916 -1.8552 -0.2028 -0.4461
 7136TIP3    H242900   3.817   6.276   5.838  1.2339  3.3663  0.5005
 7137TIP3   OH242901   5.077   0.843   1.153  0.2227  0.0865  0.1551
 7137TIP3    H142902   5.119   0.815   1.234 -0.6043 -1.6495  0.0113
 7137TIP3    H242903   5.147   0.836   1.087  0.2843 -0.7719  0.2980
 7138TIP3   OH242904   1.644   2.161  12.214  0.4833  0.0721  0.1420
 7138TIP3    H142905   1.667   2.155  12.307  0.3787  1.6627  0.2929
 7138TIP3    H242906   1.717   2.120  12.169  1.6942  1.3564  0.8356
 7139TIP3   OH242907   2.152   2.515  12.778 -0.1893  0.6303 -0.6389
 7139TIP3    H142908   2.057   2.517  12.767 -0.2968 -0.4714 -0.0883
 7139TIP3    H242909   2.169   2.428  12.815  1.0439  0.7739 -0.8439
 7140TIP3   OH242910   1.165   4.811   4.897 -0.2730 -0.1124  0.5136
 7140TIP3    H142911   1.216   4.818   4.978 -1.9492  2.3232  1.5207
 7140TIP3    H242912   1.106   4.737   4.912  0.3312 -0.5161  0.9458
 7141TIP3   OH242913   1.589   1.181  12.663  0.0018 -0.3591  0.1234
 7141TIP3    H142914   1.545   1.231  12.595 -1.9536 -1.5165  0.4778
 7141TIP3    H242915   1.519   1.151  12.721  1.1917 -2.4870  0.5735
 7142TIP3   OH242916   4.752   3.138   6.654  0.2837 -0.1620 -0.1586
 7142TIP3    H142917   4.844   3.162   6.647 -0.2236  1.8865 -0.5815
 7142TIP3    H242918   4.705   3.221   6.647 -1.6366 -1.2084 -0.5203
 7143TIP3   OH242919   1.866   5.231  13.031 -0.1639 -0.4501 -0.0906
 7143TIP3    H142920   1.925   5.305  13.016 -0.7132  0.1711  0.7344
 7143TIP3    H242921   1.817   5.222  12.949  0.2448 -0.2173 -0.3642
 7144TIP3   OH242922   5.027   6.675   0.517 -0.4757 -0.8731 -0.1142
 7144TIP3    H142923   5.029   6.609   0.448  0.0988 -0.2914 -0.6643
 7144TIP3    H242924   5.002   6.756   0.473 -2.1756 -0.8975  0.7276
 7145TIP3   OH242925   5.036   2.910  13.348  0.4772 -0.6750  0.1604
 7145TIP3    H142926   4.965   2.953  13.301  0.3296 -1.8092 -0.6815
 7145TIP3    H242927   5.031   2.818  13.322  1.6892 -0.9480  0.7909
 7146TIP3   OH242928   4.774   6.452  12.454 -0.0501 -0.9987 -0.2596
 7146TIP3    H142929   4.689   6.423  12.421 -0.1288 -0.2772 -0.7095
 7146TIP3    H242930   4.793   6.532  12.404  0.9882 -1.2660 -0.3191
 7147TIP3   OH242931   4.509   3.422  13.217 -0.5180 -0.1980 -0.0104
 7147TIP3    H142932   4.490   3.488  13.284 -0.4013  0.3080 -0.4677
 7147TIP3    H242933   4.562   3.469  13.152  1.2507 -1.2362  0.6048
 7148TIP3   OH242934   4.281   4.701  13.692 -0.6376  0.2439 -0.0312
 7148TIP3    H142935   4.368   4.686  13.730 -0.3979 -1.3556 -1.1006
 7148TIP3    H242936   4.223   4.709  13.767 -0.0026 -1.6850  0.7257
 7149TIP3   OH242937   3.973   0.389   5.754  0.3195  0.1800 -0.2185
 7149TIP3    H142938   3.999   0.393   5.846  0.0924  0.6362 -0.1700
 7149TIP3    H242939   3.914   0.314   5.749  1.1876 -0.5261 -0.2189
 7150TIP3   OH242940   3.386   2.289  11.565  0.3869  0.2177 -0.5125
 7150TIP3    H142941   3.392   2.375  11.524  1.4637 -0.0508 -0.9726
 7150TIP3    H242942   3.293   2.269  11.565 -0.0256  1.8886  0.7094
 7151TIP3   OH242943   4.098   2.369  14.523  0.0693 -0.6537  0.7209
 7151TIP3    H142944   4.166   2.413  14.575 -1.8149  0.7590  2.1216
 7151TIP3    H242945   4.147   2.324  14.454  2.3398  1.5157  0.7560
 7152TIP3   OH242946   6.339   1.401   0.434 -0.1055 -0.2062  0.0450
 7152TIP3    H142947   6.267   1.346   0.405 -1.0688  0.4678  1.0660
 7152TIP3    H242948   6.404   1.396   0.364  0.0920 -3.0479  0.3182
 7153TIP3   OH242949   0.399   0.455   2.374 -0.6746  0.2784 -0.1715
 7153TIP3    H142950   0.432   0.526   2.320 -0.4082 -0.1130 -0.5340
 7153TIP3    H242951   0.414   0.484   2.464  0.2363  0.3073 -0.3238
 7154TIP3   OH242952   2.866   3.791  10.794 -0.8087  0.3997 -0.0472
 7154TIP3    H142953   2.925   3.866  10.794 -1.1153  0.6411  0.2055
 7154TIP3    H242954   2.781   3.827  10.769 -0.7736 -0.0118 -0.8181
 7155TIP3   OH242955   5.983   2.204  12.908  0.0480 -0.2711 -0.4904
 7155TIP3    H142956   5.984   2.279  12.968 -1.8911 -0.3843 -0.2693
 7155TIP3    H242957   6.021   2.238  12.827 -1.8481  1.3433 -0.7770
 7156TIP3   OH242958   0.453   4.421  15.584  0.0615 -0.2682 -0.5883
 7156TIP3    H142959   0.518   4.449  15.520  1.0594 -1.9547 -0.3744
 7156TIP3    H242960   0.475   4.470  15.663  0.7543 -0.4393 -0.6682
 7157TIP3   OH242961   4.869   4.850   0.015 -0.8802  0.4494 -0.2628
 7157TIP3    H142962   4.916   4.885   0.092  0.3590 -1.7644  0.0840
 7157TIP3    H242963   4.780   4.837   0.046 -0.7971  1.0842  0.2872
 7158TIP3   OH242964   0.223   0.561  15.838 -0.2549 -0.4823 -0.1620
 7158TIP3    H142965   0.208   0.655  15.849 -0.3481 -0.4409 -0.6511
 7158TIP3    H242966   0.222   0.527  15.928  0.6769  0.1158  0.0862
 7159TIP3   OH242967   0.128   0.788   2.595 -0.3434 -0.1371 -0.2731
 7159TIP3    H142968   0.130   0.869   2.645 -1.0491 -0.8300  0.9557
 7159TIP3    H242969   0.093   0.812   2.509 -0.8451  0.7962  0.1849
 7160TIP3   OH242970   2.902   1.285   4.716  0.2981 -0.0157  0.2620
 7160TIP3    H142971   2.869   1.371   4.693  0.8468 -0.1754 -1.2272
 7160TIP3    H242972   2.873   1.271   4.806  0.2126  1.7112  0.5246
 7161TIP3   OH242973   4.236   6.277  13.368 -0.0474  0.1837  0.0493
 7161TIP3    H142974   4.309   6.223  13.337  0.0737 -0.9527  2.1501
 7161TIP3    H242975   4.158   6.231  13.337  0.0789  0.1210 -0.1844
 7162TIP3   OH242976   5.597   6.601   2.342  0.5701 -0.1667 -0.0256
 7162TIP3    H142977   5.556   6.532   2.290 -1.7236  0.8662  0.2914
 7162TIP3    H242978   5.588   6.680   2.289 -0.3784  0.5957  1.2065
 7163TIP3   OH242979   1.093   3.194   0.273 -0.2753  0.1822  0.0374
 7163TIP3    H142980   1.056   3.172   0.188 -1.2838  0.3237  0.4241
 7163TIP3    H242981   1.070   3.287   0.285  0.9476  0.5135 -0.0785
 7164TIP3   OH242982   5.366   1.518   0.560 -0.1689 -0.1561 -0.5332
 7164TIP3    H142983   5.347   1.452   0.627 -1.1220  0.7109  0.0936
 7164TIP3    H242984   5.321   1.486   0.482  0.9627 -1.1834 -0.7972
 7165TIP3   OH242985   5.222   6.068  15.429  0.6771 -0.5657 -0.2647
 7165TIP3    H142986   5.164   5.996  15.453  0.2616  0.2540  1.3328
 7165TIP3    H242987   5.164   6.142  15.411  1.1889  0.3591  1.6627
 7166TIP3   OH242988   3.786   4.197   0.786  0.0095  0.5685 -0.4631
 7166TIP3    H142989   3.733   4.276   0.781 -0.2589  0.3340 -2.4361
 7166TIP3    H242990   3.795   4.169   0.694  1.7253 -0.5961  0.0046
 7167TIP3   OH242991   1.775   4.750   2.146  0.0567 -0.1542  0.1803
 7167TIP3    H142992   1.802   4.669   2.103  0.2337 -0.4771  0.8865
 7167TIP3    H242993   1.838   4.815   2.115 -0.1581 -0.2549 -0.4842
 7168TIP3   OH242994   2.373   2.972   5.498  0.1580  0.2115 -0.0497
 7168TIP3    H142995   2.318   2.922   5.558 -1.4671  1.9886  0.0289
 7168TIP3    H242996   2.461   2.969   5.538 -0.3185 -0.8293  0.9931
 7169TIP3   OH242997   2.908   0.407  14.464  0.8584 -0.0270 -0.3452
 7169TIP3    H142998   2.828   0.385  14.512  1.4081 -0.0794  0.5817
 7169TIP3    H242999   2.956   0.325  14.460  2.0793  0.5228  1.5050
 7170TIP3   OH243000   4.690   1.700  17.214 -1.1080 -0.5903 -0.1796
 7170TIP3    H143001   4.732   1.784  17.231  0.7517 -1.4103 -0.4079
 7170TIP3    H243002   4.655   1.673  17.299  1.1985 -1.0478  0.7192
 7171TIP3   OH243003   1.412   4.598  16.585 -0.4056  0.3714  0.3113
 7171TIP3    H143004   1.434   4.621  16.495  2.8251  0.2446  0.9342
 7171TIP3    H243005   1.349   4.665  16.612  0.5243  1.9572 -1.2624
 7172TIP3   OH243006   0.788   3.666   3.539 -0.6614  0.4427  0.2044
 7172TIP3    H143007   0.701   3.628   3.552 -0.9763  1.5809  1.6259
 7172TIP3    H243008   0.777   3.729   3.468 -0.2250 -1.6772 -1.8945
 7173TIP3   OH243009   3.021   6.753  13.390 -0.2483  0.0258  0.2026
 7173TIP3    H143010   3.053   6.678  13.440  1.4718  1.2085  1.0063
 7173TIP3    H243011   3.008   6.822  13.455 -1.1178  0.6364 -0.5899
 7174TIP3   OH243012   0.579   4.420  14.927  0.0464 -0.4848 -0.0792
 7174TIP3    H143013   0.600   4.489  14.990 -0.5379 -0.9757  0.6631
 7174TIP3    H243014   0.580   4.339  14.979 -1.5944 -0.7604 -0.4452
 7175TIP3   OH243015   4.857   0.308  10.731  0.0132  0.0566  0.6203
 7175TIP3    H143016   4.776   0.260  10.747 -0.0436 -0.6974 -1.6329
 7175TIP3    H243017   4.831   0.386  10.683  0.5376  0.3396  0.7779
 7176TIP3   OH243018   3.058   3.077   1.640  0.3775  0.0085  0.0754
 7176TIP3    H143019   3.150   3.066   1.614  1.0734 -0.3913  2.4441
 7176TIP3    H243020   3.062   3.110   1.730 -1.8191  0.1912  0.1689
 7177TIP3   OH243021   2.296   0.271  14.968 -0.1163 -0.6969  0.1732
 7177TIP3    H143022   2.232   0.265  14.898  0.3820 -0.2325 -0.3273
 7177TIP3    H243023   2.258   0.333  15.031 -0.0195 -0.1899 -0.2665
 7178TIP3   OH243024   1.071   1.789  15.930 -0.4114 -0.1210  0.2734
 7178TIP3    H143025   1.164   1.803  15.917 -0.0637 -1.1246  1.4457
 7178TIP3    H243026   1.066   1.706  15.979 -1.8925  0.0780  0.5028
 7179TIP3   OH243027   0.488   0.557   0.404  0.2388  0.4570  0.3132
 7179TIP3    H143028   0.415   0.508   0.441  0.1853  1.1434  1.1566
 7179TIP3    H243029   0.536   0.493   0.352 -1.5164  0.2168 -1.0983
 7180TIP3   OH243030   0.888   4.646   0.492  0.3112  0.2733 -0.0915
 7180TIP3    H143031   0.802   4.646   0.535  0.5629 -1.0743  0.4328
 7180TIP3    H243032   0.951   4.632   0.562  0.7608 -1.4628 -0.7857
 7181TIP3   OH243033   2.042   4.615   0.998 -0.4974 -0.1425 -0.0621
 7181TIP3    H143034   2.068   4.701   1.033 -1.1290 -0.6633  1.7970
 7181TIP3    H243035   2.114   4.557   1.020 -1.1531 -0.6004  0.9421
 7182TIP3   OH243036   4.858   0.541   4.705 -0.0417 -0.1171  0.2379
 7182TIP3    H143037   4.814   0.613   4.661  1.4026  0.1665 -0.8270
 7182TIP3    H243038   4.923   0.509   4.641 -0.8809 -2.6400  0.5089
 7183TIP3   OH243039   4.144   3.663  13.076 -0.8927  0.2112  0.4569
 7183TIP3    H143040   4.086   3.709  13.016 -1.7799 -1.1241  0.2522
 7183TIP3    H243041   4.167   3.582  13.031  1.4785  0.8446  0.3730
 7184TIP3   OH243042   2.742   4.989   2.181 -0.2593 -0.2398  0.3235
 7184TIP3    H143043   2.785   5.049   2.242  0.9132  0.5486 -1.2074
 7184TIP3    H243044   2.808   4.922   2.163 -0.7369 -0.6874  0.2110
 7185TIP3   OH243045   3.502   2.212   1.743  0.1119  0.4411  0.0934
 7185TIP3    H143046   3.521   2.132   1.693  0.6486  0.4421  0.2891
 7185TIP3    H243047   3.588   2.252   1.758 -0.1139  0.8243  0.3837
 7186TIP3   OH243048   1.513   5.651  12.938 -0.2742  0.3665 -0.3676
 7186TIP3    H143049   1.537   5.559  12.928  1.6714  0.9228 -1.3669
 7186TIP3    H243050   1.418   5.652  12.932 -0.2522 -1.4015 -2.2981
 7187TIP3   OH243051   2.473   1.051  15.174  0.0168  0.8737 -0.0610
 7187TIP3    H143052   2.501   1.088  15.090  0.5472 -1.3389 -0.9447
 7187TIP3    H243053   2.395   1.001  15.152  1.1269 -1.1433  0.3622
 7188TIP3   OH243054   4.182   1.652   5.538  0.2343  0.0898  0.7522
 7188TIP3    H143055   4.155   1.700   5.616 -0.8445 -1.4238  1.3480
 7188TIP3    H243056   4.101   1.629   5.495  0.7755 -0.4311  0.0022
 7189TIP3   OH243057   4.476   0.553  12.708  0.5035  0.7770  0.7194
 7189TIP3    H143058   4.478   0.502  12.789 -1.5446 -0.2121  0.2124
 7189TIP3    H243059   4.452   0.490  12.641 -1.2382  2.2092 -0.0784
 7190TIP3   OH243060   2.261   0.253   0.651 -0.1351  0.1052  0.1997
 7190TIP3    H143061   2.175   0.279   0.684  0.2380  0.4272  0.9408
 7190TIP3    H243062   2.245   0.171   0.604 -0.6538 -0.4756  1.3632
 7191TIP3   OH243063   2.123   3.173  13.802  0.5731 -0.2945  0.0685
 7191TIP3    H143064   2.210   3.189  13.838  1.5067 -3.1794 -0.6211
 7191TIP3    H243065   2.124   3.080  13.778 -1.3139  0.4495 -3.6377
 7192TIP3   OH243066   0.221   3.702   4.988 -0.5326  0.7283  0.0129
 7192TIP3    H143067   0.152   3.679   5.050  0.3542  0.0307  0.7687
 7192TIP3    H243068   0.183   3.682   4.902 -0.4289 -2.1568  0.5213
 7193TIP3   OH243069   5.976   0.335  17.256 -0.2747  0.0069 -0.3598
 7193TIP3    H143070   6.066   0.359  17.275 -0.4297  0.0079  0.3948
 7193TIP3    H243071   5.936   0.416  17.223 -0.4876  0.5255  1.0770
 7194TIP3   OH243072   1.699   2.221   5.645  0.2372  0.3550  0.2474
 7194TIP3    H143073   1.629   2.197   5.585  1.3370  2.2305 -1.9121
 7194TIP3    H243074   1.685   2.313   5.664  0.6971  0.1384  1.8755
 7195TIP3   OH243075   5.095   5.576  13.412  0.2180 -0.3262  0.4505
 7195TIP3    H143076   5.061   5.508  13.354 -1.4937 -0.2996  1.3642
 7195TIP3    H243077   5.190   5.561  13.413  0.2400 -0.7588 -1.7496
 7196TIP3   OH243078   0.352   1.475  17.282  0.2732 -0.1990 -0.2997
 7196TIP3    H143079   0.315   1.443  17.200  2.0866  0.4402 -1.4248
 7196TIP3    H243080   0.366   1.569  17.267  0.6505 -0.0803  0.7235
 7197TIP3   OH243081   2.328   5.064  15.393  0.2645 -0.2398 -0.8032
 7197TIP3    H143082   2.342   4.992  15.455  0.3846  1.1051  0.8169
 7197TIP3    H243083   2.233   5.077  15.394  0.2474 -0.3433 -1.0625
 7198TIP3   OH243084   6.563   3.405  11.464 -0.1645 -0.0151  0.4746
 7198TIP3    H143085   6.545   3.326  11.515 -1.5473 -0.8268 -1.1841
 7198TIP3    H243086   6.581   3.373  11.376  0.2912  1.4642  0.0070
 7199TIP3   OH243087   6.421   3.051  13.377 -0.0588 -0.8711  0.2545
 7199TIP3    H143088   6.336   3.022  13.410  0.6159 -0.8297  2.1652
 7199TIP3    H243089   6.471   2.971  13.365  0.3185 -0.7926  1.2063
 7200TIP3   OH243090   5.999   4.700   1.044 -0.0706  0.2208 -0.4110
 7200TIP3    H143091   5.960   4.766   0.987  0.1161  2.0835  1.4747
 7200TIP3    H243092   5.993   4.739   1.132  0.1040 -2.2834  0.7834
 7201TIP3   OH243093   4.692   5.601  13.608  0.1718 -0.0612 -0.4718
 7201TIP3    H143094   4.688   5.528  13.546  0.5210 -1.3833  1.0095
 7201TIP3    H243095   4.785   5.609  13.629 -0.2073 -1.7561  2.2512
 7202TIP3   OH243096   5.500   1.551  16.604 -0.1943  0.2664  0.0171
 7202TIP3    H143097   5.511   1.643  16.628  0.9360 -0.1542  1.3172
 7202TIP3    H243098   5.441   1.552  16.529  1.3884  2.2048 -1.3279
 7203TIP3   OH243099   1.191   4.960   5.501  0.1229  0.1833  0.1459
 7203TIP3    H143100   1.249   5.011   5.557  0.3957  0.8493 -0.7165
 7203TIP3    H243101   1.103   4.992   5.522 -0.0069 -1.0861  1.7166
 7204TIP3   OH243102   6.593   6.014  16.159  0.8142 -0.2216  1.2159
 7204TIP3    H143103   6.565   6.087  16.215  0.6755  0.1862  0.6190
 7204TIP3    H243104   6.513   5.965  16.141  0.8085 -0.1801  1.1279
 7205TIP3   OH243105   4.688   2.491   4.272 -0.1130 -0.0250  0.5956
 7205TIP3    H143106   4.596   2.506   4.294 -0.1240  1.5868 -0.3907
 7205TIP3    H243107   4.729   2.577   4.283  0.3527  0.4134 -3.2186
 7206TIP3   OH243108   3.418   0.505   2.103  0.0246  0.6625 -0.2536
 7206TIP3    H143109   3.444   0.504   2.195 -0.1053  1.4258 -0.1999
 7206TIP3    H243110   3.449   0.589   2.070  2.3573 -0.6288 -1.6058
 7207TIP3   OH243111   0.392   4.974  16.174 -0.1256 -0.5168 -0.1396
 7207TIP3    H143112   0.337   5.003  16.101 -0.1429 -1.5526 -0.5669
 7207TIP3    H243113   0.482   4.987  16.143 -0.0454 -3.5976 -1.5900
 7208TIP3   OH243114   2.492   2.347  13.438 -0.4098 -0.5460 -0.6420
 7208TIP3    H143115   2.482   2.324  13.345 -0.1632 -1.4436 -0.4590
 7208TIP3    H243116   2.554   2.282  13.472 -2.9064 -2.2906  0.8870
 7209TIP3   OH243117   6.247   6.457  14.343  0.3351 -0.1797  0.3720
 7209TIP3    H143118   6.218   6.520  14.409 -2.2438  0.0896 -0.8763
 7209TIP3    H243119   6.266   6.511  14.266 -1.0979 -0.7865 -0.4490
 7210TIP3   OH243120   5.657   1.639   1.381 -0.5097  0.6480 -0.1351
 7210TIP3    H143121   5.739   1.651   1.334 -0.9277  0.3571 -0.9655
 7210TIP3    H243122   5.679   1.582   1.454 -0.2085 -0.5586 -1.1169
 7211TIP3   OH243123   1.970   0.083  10.988 -0.0556  0.3458 -0.7387
 7211TIP3    H143124   1.953   0.174  10.963  0.5435  0.8218  0.4609
 7211TIP3    H243125   1.965   0.034  10.907 -2.3026  1.1565 -1.1439
 7212TIP3   OH243126   3.159   4.741  13.355  0.1470  0.0623 -0.7343
 7212TIP3    H143127   3.180   4.816  13.412  1.4951 -0.4594 -0.4971
 7212TIP3    H243128   3.076   4.708  13.389  1.5528 -1.0776  1.8988
 7213TIP3   OH243129   1.762   6.773  16.176 -0.3861  0.1674  0.2830
 7213TIP3    H143130   1.739   6.759  16.084 -0.7832  1.6212  0.1432
 7213TIP3    H243131   1.679   6.787  16.221 -0.0662  2.0794  0.3705
 7214TIP3   OH243132   6.768   2.048  13.048 -0.4896 -0.0599  0.3340
 7214TIP3    H143133   6.687   2.079  13.008  0.0692  2.5192  1.0617
 7214TIP3    H243134   6.771   2.090  13.133  1.7357  0.1172  0.2310
 7215TIP3   OH243135   4.234   5.682  16.313 -0.1042 -0.2862 -0.5299
 7215TIP3    H143136   4.270   5.604  16.357  1.2569 -0.2166 -1.4414
 7215TIP3    H243137   4.306   5.745  16.316 -1.2110  0.9860  0.2447
 7216TIP3   OH243138   6.402   6.443   0.636  0.0516 -0.1786  0.2481
 7216TIP3    H143139   6.407   6.436   0.731  0.5304  1.8987  0.4180
 7216TIP3    H243140   6.490   6.418   0.605 -0.0243 -0.5907  0.3618
 7217TIP3   OH243141   6.577   1.717   0.194 -0.2512  0.7107 -0.0688
 7217TIP3    H143142   6.571   1.785   0.127 -1.3402  0.6322 -0.0782
 7217TIP3    H243143   6.623   1.758   0.267  0.8775  0.8205 -0.8196
 7218TIP3   OH243144   2.268   1.598   2.757  0.3372 -0.4256 -0.0773
 7218TIP3    H143145   2.192   1.616   2.701  0.5952 -1.0867 -0.6553
 7218TIP3    H243146   2.252   1.511   2.792 -0.4036  0.4264  1.8764
 7219TIP3   OH243147   4.885   3.389   4.401  0.5049 -0.0159 -0.0457
 7219TIP3    H143148   4.800   3.359   4.370  1.4279  0.2076 -3.0504
 7219TIP3    H243149   4.864   3.448   4.474 -1.6728 -2.3481  1.3883
 7220TIP3   OH243150   5.585   0.590  15.541  0.2377 -0.2970  0.3500
 7220TIP3    H143151   5.513   0.529  15.525 -0.9544  1.0389  0.4910
 7220TIP3    H243152   5.561   0.669  15.492  1.4192  0.3209  0.7281
 7221TIP3   OH243153   4.338   2.731  13.194 -0.6957  0.4285 -0.1409
 7221TIP3    H143154   4.271   2.733  13.263 -0.8178  0.2333 -0.2512
 7221TIP3    H243155   4.324   2.812  13.144 -0.0673  0.9865  0.5641
 7222TIP3   OH243156   4.318   6.719  11.677  0.0337  0.1612 -0.2111
 7222TIP3    H143157   4.308   6.812  11.696 -1.4387 -0.0526  0.1596
 7222TIP3    H243158   4.229   6.685  11.674  0.4979 -1.0657 -1.2648
 7223TIP3   OH243159   2.996   5.717   4.664  0.4298  0.0304  0.2013
 7223TIP3    H143160   3.073   5.774   4.657 -0.5810  1.4044 -0.0193
 7223TIP3    H243161   3.007   5.654   4.592 -0.4311  2.4574 -2.2334
 7224TIP3   OH243162   2.061   1.900   5.007 -0.6658  0.6250  0.0314
 7224TIP3    H143163   2.005   1.854   4.945  1.0905 -0.1231 -1.0741
 7224TIP3    H243164   2.115   1.831   5.046  0.4572  1.4754  0.0214
 7225TIP3   OH243165   0.994   5.782   1.152 -0.1647 -0.1872  0.0786
 7225TIP3    H143166   0.968   5.839   1.224 -1.4607 -0.8412  0.1619
 7225TIP3    H243167   0.935   5.707   1.158  0.3445 -0.7161 -1.0877
 7226TIP3   OH243168   3.523   0.494   5.602  0.0095  0.0854  0.3216
 7226TIP3    H143169   3.605   0.447   5.586 -0.3341 -0.3076 -0.2971
 7226TIP3    H243170   3.501   0.474   5.693 -0.7069 -1.8685 -0.2428
 7227TIP3   OH243171   1.333   4.363  16.691  0.3778  0.0155 -0.3367
 7227TIP3    H143172   1.243   4.370  16.659  1.4903 -1.0264 -4.1527
 7227TIP3    H243173   1.377   4.441  16.656  1.3149 -0.3177  0.0605
 7228TIP3   OH243174   0.475   0.409  15.477  0.2159 -0.6661  0.2896
 7228TIP3    H143175   0.455   0.317  15.495  0.7031 -0.7350  0.4909
 7228TIP3    H243176   0.420   0.431  15.402 -1.4856 -0.5094  1.5296
 7229TIP3   OH243177   6.110   2.447   1.374 -0.0077  0.0582  0.3967
 7229TIP3    H143178   6.178   2.440   1.440 -2.5953 -0.8524  3.2102
 7229TIP3    H243179   6.060   2.524   1.399 -1.4674 -0.7018 -0.0601
 7230TIP3   OH243180   4.252   3.810  15.229  0.4729  0.1673 -0.3717
 7230TIP3    H143181   4.255   3.815  15.134  0.4637  0.0497 -0.3779
 7230TIP3    H243182   4.343   3.819  15.257  0.5474 -0.4165 -0.4208
 7231TIP3   OH243183   6.500   2.977  15.533 -0.4305  0.3030 -0.2436
 7231TIP3    H143184   6.474   2.974  15.441 -1.1371 -0.1254 -0.0328
 7231TIP3    H243185   6.595   2.987  15.530 -0.6324  2.5013 -1.0129
 7232TIP3   OH243186   4.621   2.266   5.827  0.1601  0.1083  0.1033
 7232TIP3    H143187   4.528   2.266   5.851 -0.0756 -0.5050 -0.7629
 7232TIP3    H243188   4.644   2.173   5.819  0.4093  0.2691 -1.3148
 7233TIP3   OH243189   3.204   4.944   3.710 -0.5313  0.2230 -0.1863
 7233TIP3    H143190   3.231   5.016   3.767 -1.1502 -0.7704  1.3954
 7233TIP3    H243191   3.145   4.891   3.763 -0.5938 -1.1281 -1.5317
 7234TIP3   OH243192   1.468   6.529   2.967 -0.7615 -0.3726 -0.0890
 7234TIP3    H143193   1.438   6.600   3.025 -0.3014 -0.8682  0.7854
 7234TIP3    H243194   1.401   6.461   2.976 -1.1503 -0.0889 -0.8456
 7235TIP3   OH243195   0.790   2.446   1.066 -0.7708  0.0574 -0.0681
 7235TIP3    H143196   0.801   2.393   0.987  0.5047 -0.1611  0.2354
 7235TIP3    H243197   0.873   2.435   1.114 -2.5388 -2.2364  2.8085
 7236TIP3   OH243198   6.535   3.089   3.228 -0.4257  0.9754 -0.0252
 7236TIP3    H143199   6.613   3.034   3.238 -0.1625  0.9892 -1.6541
 7236TIP3    H243200   6.470   3.048   3.285 -0.2022 -1.0099 -1.0776
 7237TIP3   OH243201   5.079   3.181  12.515 -0.0854 -0.4053 -0.8661
 7237TIP3    H143202   4.994   3.223  12.521 -0.1747 -0.3439 -2.2679
 7237TIP3    H243203   5.142   3.253  12.512 -0.1298 -0.3934 -1.7281
 7238TIP3   OH243204   5.242   5.767   0.753 -0.3529 -0.5697 -0.7965
 7238TIP3    H143205   5.236   5.859   0.726  0.0937 -0.9946 -2.4209
 7238TIP3    H243206   5.266   5.772   0.846  0.2121  0.9515 -0.9859
 7239TIP3   OH243207   6.715   1.195  14.488  0.2332  0.0951 -0.0692
 7239TIP3    H143208   6.741   1.103  14.485  0.2816  0.0196  1.6481
 7239TIP3    H243209   6.771   1.233  14.556 -1.4575  0.8237  0.9678
 7240TIP3   OH243210   5.939   6.449  16.961 -0.2512  0.1723  0.2564
 7240TIP3    H143211   5.847   6.472  16.975 -0.3083  0.0502  0.0895
 7240TIP3    H243212   5.963   6.396  17.037 -0.3930 -0.0061  0.1791
 7241TIP3   OH243213   3.883   0.678  12.152 -0.0899 -0.0471 -0.5752
 7241TIP3    H143214   3.839   0.601  12.115 -3.3723  0.9679  0.8489
 7241TIP3    H243215   3.823   0.710  12.219  3.2105  1.2159  2.0426
 7242TIP3   OH243216   3.881   0.060   0.999 -0.7025 -0.0900  0.3682
 7242TIP3    H143217   3.918  -0.009   0.943 -3.2028 -1.4094  0.1859
 7242TIP3    H243218   3.872   0.135   0.940 -0.5774 -0.5217 -0.2199
 7243TIP3   OH243219   1.484   2.947  12.105 -0.0661  0.0206  0.4156
 7243TIP3    H143220   1.462   3.036  12.078  1.4327 -0.1490 -1.5698
 7243TIP3    H243221   1.444   2.891  12.038  3.0582 -0.4586 -1.2648
 7244TIP3   OH243222   6.393   0.823  13.040 -0.1274 -0.3663  0.1346
 7244TIP3    H143223   6.387   0.791  13.130 -3.5779  1.1066  0.6279
 7244TIP3    H243224   6.326   0.773  12.992 -1.1420  1.5299 -0.5671
 7245TIP3   OH243225   5.356   6.561   0.449  0.5375 -0.0180  0.1177
 7245TIP3    H143226   5.368   6.494   0.382 -1.6205 -0.5171  0.1500
 7245TIP3    H243227   5.337   6.512   0.529  2.1336  0.5927  0.8999
 7246TIP3   OH243228   2.319   4.704  16.158  0.1721 -0.3554 -0.2605
 7246TIP3    H143229   2.311   4.799  16.150  0.5487 -0.1080  1.6964
 7246TIP3    H243230   2.409   4.691  16.189 -0.5307 -1.1767  1.5150
 7247TIP3   OH243231   4.022   0.401  16.197  1.0734  0.2940 -0.4433
 7247TIP3    H143232   4.011   0.402  16.102 -2.6845 -0.4588 -0.1909
 7247TIP3    H243233   4.011   0.493  16.223 -1.6260  0.0935 -0.5851
 7248TIP3   OH243234   2.404   1.566  12.587  0.6214  0.3203  0.1991
 7248TIP3    H143235   2.348   1.506  12.636  0.3583 -0.7760 -1.3964
 7248TIP3    H243236   2.465   1.509  12.540  0.8609  1.3338 -0.7484
 7249TIP3   OH243237   2.324   0.829  15.726  0.0498  0.2256 -0.2700
 7249TIP3    H143238   2.419   0.824  15.742 -0.1982  0.5390  1.6130
 7249TIP3    H243239   2.313   0.796  15.637  1.8938 -0.1671 -0.4056
 7250TIP3   OH243240   5.408   4.340   0.131  0.1482  0.9672 -0.3325
 7250TIP3    H143241   5.408   4.247   0.151  1.3897  1.1638  0.7314
 7250TIP3    H243242   5.448   4.347   0.045  0.0086  0.5232 -0.4338
 7251TIP3   OH243243   6.490   1.287   3.757  0.2942 -0.1269  0.6389
 7251TIP3    H143244   6.507   1.370   3.801  0.3374 -0.1879  0.7380
 7251TIP3    H243245   6.540   1.223   3.808 -1.0633 -0.4862  1.5876
 7252TIP3   OH243246   5.210   1.127   4.509  0.4296  0.1660  0.1600
 7252TIP3    H143247   5.217   1.057   4.444 -1.3131  0.0706  0.0374
 7252TIP3    H243248   5.279   1.107   4.572  1.5516 -0.2600 -1.1581
 7253TIP3   OH243249   6.438   6.481   4.049  0.5423 -0.0076  0.5966
 7253TIP3    H143250   6.406   6.570   4.034  1.8192  0.6990  1.8587
 7253TIP3    H243251   6.396   6.454   4.131  0.2106 -0.5629  0.2528
 7254TIP3   OH243252   4.053   4.703  15.791 -0.0177 -0.0052  0.4839
 7254TIP3    H143253   4.023   4.709  15.882  3.1398 -1.0179  1.7476
 7254TIP3    H243254   4.031   4.614  15.764 -1.0688  0.3362  0.1847
 7255TIP3   OH243255   1.273   6.405   6.192 -0.0134 -0.4938  0.1973
 7255TIP3    H143256   1.242   6.315   6.185  1.3472 -1.0120  0.5182
 7255TIP3    H243257   1.212   6.447   6.253 -0.6182 -1.2099  0.0974
 7256TIP3   OH243258   1.652   0.776  14.572  0.7916  0.0574 -0.0011
 7256TIP3    H143259   1.724   0.767  14.510  0.0426 -1.8656 -0.6681
 7256TIP3    H243260   1.573   0.772  14.519  0.1534 -0.4594  0.9360
 7257TIP3   OH243261   1.760   0.337  15.673 -0.5781 -0.2270 -0.5498
 7257TIP3    H143262   1.693   0.405  15.682 -0.4061 -0.2360  1.2599
 7257TIP3    H243263   1.731   0.284  15.599 -1.3731  1.0659 -1.2113
 7258TIP3   OH243264   4.574   3.597  12.317  0.5812  0.3234  0.2168
 7258TIP3    H143265   4.575   3.570  12.409  1.1123 -0.1354  0.0856
 7258TIP3    H243266   4.528   3.526  12.272 -0.2346  0.8513  0.2150
 7259TIP3   OH243267   2.191   1.327  10.965  0.0481 -0.5322  0.5573
 7259TIP3    H143268   2.197   1.232  10.952 -1.6661 -0.3368 -2.5316
 7259TIP3    H243269   2.098   1.347  10.954  0.4723  1.6159  0.4593
 7260TIP3   OH243270   6.413   6.695  15.237  0.3508 -0.2364  0.7259
 7260TIP3    H143271   6.478   6.701  15.167 -0.2008  2.5967  0.3330
 7260TIP3    H243272   6.449   6.750  15.307 -1.3578  1.0324  0.6610
 7261TIP3   OH243273   6.390   2.827  16.301  0.6903  0.0166  0.1000
 7261TIP3    H143274   6.343   2.781  16.231  0.3769 -0.0755  0.3682
 7261TIP3    H243275   6.469   2.860  16.259 -0.3865  1.6198 -0.7938
 7262TIP3   OH243276   4.422   5.742  11.555  0.2418 -0.5250  0.3953
 7262TIP3    H143277   4.515   5.738  11.529  0.7820  1.7795  1.7230
 7262TIP3    H243278   4.386   5.812  11.501 -0.6220 -1.0726  0.2517
 7263TIP3   OH243279   2.322   1.959   2.614 -0.0150  0.7561 -0.0109
 7263TIP3    H143280   2.384   1.966   2.542  1.0453 -0.0241  0.7938
 7263TIP3    H243281   2.307   2.049   2.642  0.7853  0.9589 -0.2131
 7264TIP3   OH243282   6.420   5.566   1.539 -0.2834  0.0043  0.2299
 7264TIP3    H143283   6.344   5.606   1.498 -0.1233 -1.8197 -2.1049
 7264TIP3    H243284   6.394   5.552   1.630 -2.4910  0.0354 -0.3316
 7265TIP3   OH243285   6.536   5.985  10.889  0.6427  0.3172  0.4005
 7265TIP3    H143286   6.597   5.915  10.865  1.4574  2.0681 -3.5084
 7265TIP3    H243287   6.562   6.011  10.977  4.5446 -0.1082 -0.4480
 7266TIP3   OH243288   5.858   4.728   3.100 -0.2323 -0.1642 -0.1733
 7266TIP3    H143289   5.845   4.785   3.175 -1.0731  1.6914 -1.6401
 7266TIP3    H243290   5.953   4.716   3.095 -0.1215  0.2762  0.7605
 7267TIP3   OH243291   4.600   6.217  16.950 -1.1584  0.0996 -0.8609
 7267TIP3    H143292   4.614   6.210  17.045  0.1889 -0.8985 -1.0998
 7267TIP3    H243293   4.576   6.129  16.922  2.5895 -0.7332 -1.9899
 7268TIP3   OH243294   6.191   0.055  10.654 -0.8079  0.4189  0.2719
 7268TIP3    H143295   6.192  -0.032  10.615  2.0157  0.6042 -0.3037
 7268TIP3    H243296   6.122   0.052  10.720  0.3668 -2.8703  1.5466
 7269TIP3   OH243297   4.644   1.338   3.884  0.1893  0.2970  0.4849
 7269TIP3    H143298   4.705   1.404   3.918 -0.9908  1.1570  0.9844
 7269TIP3    H243299   4.618   1.288   3.961  2.1114 -1.7180 -0.0606
 7270TIP3   OH243300   4.755   2.575  17.201 -0.1369 -0.3929  0.0926
 7270TIP3    H143301   4.702   2.649  17.231 -0.1716 -0.4509  0.1756
 7270TIP3    H243302   4.743   2.574  17.106  2.4659  1.7352 -0.3807
 7271TIP3   OH243303   5.442   1.282  15.081 -0.4163 -0.3445 -0.4043
 7271TIP3    H143304   5.410   1.349  15.142  1.1387  1.1952 -1.1803
 7271TIP3    H243305   5.460   1.206  15.136 -1.3914  0.1428  0.6490
 7272TIP3   OH243306   2.736   2.852  14.774  0.0853  0.3686 -0.5036
 7272TIP3    H143307   2.773   2.782  14.828  1.4996  1.4918  0.0658
 7272TIP3    H243308   2.796   2.860  14.700 -0.1902  0.8182 -0.6840
 7273TIP3   OH243309   3.330   1.591  15.386 -0.3371  0.4817 -0.2985
 7273TIP3    H143310   3.346   1.566  15.295 -0.4502  0.2332 -0.2519
 7273TIP3    H243311   3.253   1.647  15.382 -2.3918 -2.1364 -0.0325
 7274TIP3   OH243312   0.516   3.802  11.754  0.1463 -0.3037 -0.2933
 7274TIP3    H143313   0.518   3.893  11.725  1.3045  0.0983  0.9794
 7274TIP3    H243314   0.458   3.802  11.830  0.7664 -0.4611  0.1882
 7275TIP3   OH243315   3.431   4.825  16.661  0.9580 -0.4813 -0.1637
 7275TIP3    H143316   3.501   4.860  16.717  2.1713 -0.2174 -1.7834
 7275TIP3    H243317   3.352   4.867  16.694  1.4467 -1.0690  1.9613
 7276TIP3   OH243318   2.088   2.380  12.110 -0.2872 -0.3570 -0.1223
 7276TIP3    H143319   2.103   2.474  12.116 -0.4172 -0.3189 -0.3857
 7276TIP3    H243320   2.176   2.341  12.119  0.0741 -0.1103 -2.1356
 7277TIP3   OH243321   1.431   2.572  14.830  0.4241 -0.3947  0.2500
 7277TIP3    H143322   1.490   2.587  14.904  0.8860  0.2747 -0.2458
 7277TIP3    H243323   1.475   2.505  14.777  0.5464 -0.1842  0.0858
 7278TIP3   OH243324   4.231   6.171   1.117 -0.2971 -0.3252  0.1451
 7278TIP3    H143325   4.235   6.102   1.183 -2.9233 -1.0214 -0.2772
 7278TIP3    H243326   4.137   6.179   1.097  0.0288  2.5784 -0.6791
 7279TIP3   OH243327   3.028   2.808  13.252 -0.3209  0.1651 -0.1514
 7279TIP3    H143328   2.987   2.736  13.204 -0.5871 -0.9405  1.6386
 7279TIP3    H243329   2.961   2.836  13.314  0.0903  1.4034 -0.2454
 7280TIP3   OH243330   1.937   5.139   2.239  0.2249  0.3977 -0.7036
 7280TIP3    H143331   1.879   5.171   2.308  0.8282 -0.4905  0.2385
 7280TIP3    H243332   2.001   5.209   2.227 -0.4960  1.0045 -1.1241
 7281TIP3   OH243333   1.596   3.977   0.446 -0.3283 -0.6570  0.2206
 7281TIP3    H143334   1.525   3.984   0.509 -0.8135  0.5614 -0.4269
 7281TIP3    H243335   1.553   3.958   0.363  0.0267  0.5551 -0.2678
 7282TIP3   OH243336   2.778   4.005  14.269 -0.1842  0.0149 -0.1184
 7282TIP3    H143337   2.818   4.015  14.182 -1.6255 -0.1294 -0.8412
 7282TIP3    H243338   2.684   4.013  14.252 -0.4666  0.3533  1.5017
 7283TIP3   OH243339   6.034   5.245   3.418 -0.0317 -0.0805 -0.4476
 7283TIP3    H143340   5.965   5.311   3.410  0.2402  0.2679  0.0329
 7283TIP3    H243341   6.033   5.220   3.510  0.6068  0.0704 -0.3945
 7284TIP3   OH243342   5.754   0.449  12.233 -0.0297 -0.1059 -0.4063
 7284TIP3    H143343   5.753   0.356  12.257  1.5440 -0.5883 -1.9679
 7284TIP3    H243344   5.841   0.463  12.196 -1.0974  1.3386 -2.5629
 7285TIP3   OH243345   2.579   2.759   1.320 -0.3441  0.6134  0.0655
 7285TIP3    H143346   2.642   2.795   1.382 -0.2259  0.1668  0.2069
 7285TIP3    H243347   2.509   2.824   1.316 -2.0364 -0.7742  3.2479
 7286TIP3   OH243348   0.963   2.192  11.735  0.7216 -0.5506  0.2674
 7286TIP3    H143349   1.046   2.238  11.751  0.4240 -0.0628  0.4483
 7286TIP3    H243350   0.899   2.262  11.728  0.1965 -0.9620  0.8957
 7287TIP3   OH243351   0.557   1.348   2.577 -0.0930 -0.0242  0.7719
 7287TIP3    H143352   0.530   1.286   2.645 -0.6770 -1.0285 -0.3388
 7287TIP3    H243353   0.481   1.355   2.519  0.9795 -0.6246 -0.7893
 7288TIP3   OH243354   2.655   2.193  11.573 -0.1160 -0.5267  0.3037
 7288TIP3    H143355   2.708   2.238  11.639 -0.3005 -0.9124  0.7180
 7288TIP3    H243356   2.710   2.195  11.494  0.8702 -1.5947  0.9247
 7289TIP3   OH243357   5.174   0.908   2.148  0.1814 -0.2842  0.0417
 7289TIP3    H143358   5.192   0.911   2.242  1.1468  0.0035 -0.1383
 7289TIP3    H243359   5.176   1.000   2.120  0.5903 -0.4143 -0.3752
 7290TIP3   OH243360   6.535   4.998   1.497 -0.5835 -0.1380  0.2054
 7290TIP3    H143361   6.561   5.085   1.528 -1.8843  0.2910  0.1374
 7290TIP3    H243362   6.510   4.950   1.576 -3.5762  0.8476 -0.0047
 7291TIP3   OH243363   2.849   4.750   3.993 -0.3716 -0.2481 -0.0367
 7291TIP3    H143364   2.775   4.701   4.028 -0.1606 -0.0723  0.6733
 7291TIP3    H243365   2.809   4.821   3.941 -0.6860 -1.9192 -2.2341
 7292TIP3   OH243366   1.691   0.811   1.775  0.2184 -0.1849 -0.4095
 7292TIP3    H143367   1.665   0.727   1.812 -0.2933  0.2849  0.3160
 7292TIP3    H243368   1.639   0.818   1.694 -2.2948  0.8702  1.1583
 7293TIP3   OH243369   2.884   3.240  11.842  0.1494 -0.1044 -0.0989
 7293TIP3    H143370   2.884   3.145  11.850  0.7492 -0.0489  0.6123
 7293TIP3    H243371   2.796   3.266  11.869 -0.5147 -0.5576 -1.7378
 7294TIP3   OH243372   0.473   0.598  15.737 -0.0969 -0.4721  0.1633
 7294TIP3    H143373   0.512   0.625  15.820  1.0090 -3.2761  0.6884
 7294TIP3    H243374   0.401   0.540  15.761 -2.0112  1.3468 -0.8725
 7295TIP3   OH243375   1.658   5.018   3.290  0.7697 -0.7065 -0.3915
 7295TIP3    H143376   1.648   5.113   3.282  0.2035 -0.6569  0.7369
 7295TIP3    H243377   1.569   4.985   3.295  0.9302 -0.8928  3.1819
 7296TIP3   OH243378   3.176   3.614  12.030 -0.0021 -0.3840 -0.0487
 7296TIP3    H143379   3.170   3.522  12.002  2.1063 -0.8495  0.8497
 7296TIP3    H243380   3.242   3.652  11.973 -0.0630  0.2701  0.3134
 7297TIP3   OH243381   5.161   1.540  13.599 -0.3487 -0.4183 -0.3699
 7297TIP3    H143382   5.165   1.491  13.516  0.8652  0.1462 -0.6591
 7297TIP3    H243383   5.252   1.560  13.620 -0.8221  2.9781 -1.0351
 7298TIP3   OH243384   5.872   0.694  10.398 -0.0900 -0.0888 -0.4197
 7298TIP3    H143385   5.806   0.666  10.335 -0.8252 -2.4965  1.2815
 7298TIP3    H243386   5.953   0.652  10.368 -0.2934 -0.6964 -0.1165
 7299TIP3   OH243387   6.354   6.575   1.677 -0.2534  0.1725  0.0414
 7299TIP3    H143388   6.321   6.486   1.687 -0.3530  0.0573 -1.1649
 7299TIP3    H243389   6.384   6.579   1.586 -1.7125  1.8412 -0.4158
 7300TIP3   OH243390   4.975   5.062  16.000 -0.0383  0.3709 -0.3091
 7300TIP3    H143391   4.965   5.155  16.022 -1.6834  0.0800  0.2692
 7300TIP3    H243392   4.995   5.020  16.084  0.5403  0.1569 -0.5460
 7301TIP3   OH243393   4.826   6.748  11.058 -0.7533  0.0944 -0.5990
 7301TIP3    H143394   4.744   6.761  11.009 -0.2428  1.3701 -1.1544
 7301TIP3    H243395   4.810   6.670  11.110 -3.8881  2.4945  2.4982
 7302TIP3   OH243396   1.732   5.696   3.569  0.3886  0.4092 -0.7679
 7302TIP3    H143397   1.793   5.752   3.617  1.2638 -1.0940 -0.0257
 7302TIP3    H243398   1.737   5.726   3.479  1.3391  1.0940 -0.4952
 7303TIP3   OH243399   5.266   5.517   0.631 -0.3481  0.3545  0.1071
 7303TIP3    H143400   5.300   5.587   0.686  0.6130  0.7337 -0.9157
 7303TIP3    H243401   5.246   5.446   0.692  1.4445  0.4608  0.8776
 7304TIP3   OH243402   0.127   1.806  15.980 -0.1163 -0.0695 -0.0678
 7304TIP3    H143403   0.092   1.761  16.057  1.1411  0.3773  0.7811
 7304TIP3    H243404   0.152   1.892  16.012  0.4992  0.0956 -0.9594
 7305TIP3   OH243405   0.351   2.424  15.544  0.1535  0.2774 -0.6018
 7305TIP3    H143406   0.434   2.427  15.495 -0.5179  1.3847 -1.7470
 7305TIP3    H243407   0.376   2.444  15.634  1.2226 -0.1738 -0.7764
 7306TIP3   OH243408   5.626   5.164   5.768  0.1057 -0.0875  0.3519
 7306TIP3    H143409   5.685   5.217   5.822  1.5580  0.4193 -1.6014
 7306TIP3    H243410   5.622   5.211   5.684 -1.2336 -1.3670 -0.3497
 7307TIP3   OH243411   5.345   5.954  11.654 -0.0980 -0.6885  0.6305
 7307TIP3    H143412   5.436   5.983  11.659  0.5470 -2.5448  0.3981
 7307TIP3    H243413   5.333   5.898  11.731 -1.2388 -0.0015  0.9809
 7308TIP3   OH243414   5.648   1.374  12.263  0.1026 -0.2868 -0.5015
 7308TIP3    H143415   5.714   1.435  12.230  1.3068 -1.8059 -1.0144
 7308TIP3    H243416   5.693   1.290  12.266 -1.2485 -1.0116  1.0063
 7309TIP3   OH243417   3.007   3.968   0.635  0.0266 -0.3273  0.5112
 7309TIP3    H143418   2.966   3.947   0.552 -0.2694 -0.6267  0.7332
 7309TIP3    H243419   2.938   4.010   0.686  0.5964  1.2259  0.0744
 7310TIP3   OH243420   1.133   0.113   5.954 -0.2033 -0.3384 -0.4501
 7310TIP3    H143421   1.198   0.053   5.989 -1.8387 -1.6397  0.4618
 7310TIP3    H243422   1.135   0.188   6.014 -2.9665 -2.5285  2.6960
 7311TIP3   OH243423   6.452   3.186  11.984 -0.6468 -0.3824  0.1487
 7311TIP3    H143424   6.385   3.208  12.049  1.3178 -2.2128  3.0585
 7311TIP3    H243425   6.451   3.090  11.980 -0.6765 -0.3191 -2.5880
 7312TIP3   OH243426   0.717   2.693  12.587 -0.6246 -0.8579  0.1325
 7312TIP3    H143427   0.731   2.604  12.556 -0.9962 -0.8430 -0.0857
 7312TIP3    H243428   0.802   2.736  12.578  0.4401 -2.0422  3.1704
 7313TIP3   OH243429   0.308   2.354   1.610 -0.1949 -0.2121 -0.2910
 7313TIP3    H143430   0.283   2.397   1.692 -1.1209 -1.2870  0.0109
 7313TIP3    H243431   0.395   2.389   1.590 -0.2425  0.5634  0.7933
 7314TIP3   OH243432   1.468   6.779   5.705  0.3033 -0.6864 -0.2966
 7314TIP3    H143433   1.465   6.691   5.743 -1.2818 -1.2080 -1.5155
 7314TIP3    H243434   1.465   6.764   5.611  1.3196  0.6572 -0.5625
 7315TIP3   OH243435   0.828   6.248  12.846 -0.0236  0.4400 -0.1846
 7315TIP3    H143436   0.881   6.318  12.809 -1.2573  1.7079  0.3397
 7315TIP3    H243437   0.874   6.221  12.925  0.6469  0.3941 -0.5859
 7316TIP3   OH243438   2.793   2.438   3.106 -0.3761  0.2118 -0.0132
 7316TIP3    H143439   2.744   2.356   3.107  0.5316 -0.3671 -0.9153
 7316TIP3    H243440   2.727   2.505   3.089 -1.1383 -0.3130  0.7721
 7317TIP3   OH243441   5.995   4.152   2.715  0.1417  0.5264 -0.1833
 7317TIP3    H143442   5.944   4.230   2.737 -1.4113 -0.6245  0.4720
 7317TIP3    H243443   6.002   4.104   2.797 -2.3837 -1.9379 -1.2709
 7318TIP3   OH243444   2.121   2.819   4.481  0.2219 -0.0687 -0.3751
 7318TIP3    H143445   2.046   2.878   4.475  1.4611  1.4614 -1.5963
 7318TIP3    H243446   2.155   2.832   4.569 -0.7854 -0.6238  0.1171
 7319TIP3   OH243447   5.623   2.353  13.246  0.2582 -0.7975 -0.0338
 7319TIP3    H143448   5.534   2.370  13.217  0.4736 -2.3542 -1.8327
 7319TIP3    H243449   5.678   2.402  13.185  0.6591  0.1751  1.0805
 7320TIP3   OH243450   3.153   1.932   3.020  0.0102 -0.1350 -0.3572
 7320TIP3    H143451   3.106   1.897   2.945  1.2268 -0.0324 -1.2024
 7320TIP3    H243452   3.092   1.923   3.093 -1.5397  0.5886 -1.5127
 7321TIP3   OH243453   4.025   0.985  14.149  0.2780  0.4118 -0.1682
 7321TIP3    H143454   4.116   0.956  14.152  0.2944  0.5200  1.5056
 7321TIP3    H243455   4.030   1.077  14.121  0.5217 -0.0250 -1.6627
 7322TIP3   OH243456   1.492   5.074  12.960 -0.8249  0.1648 -0.3794
 7322TIP3    H143457   1.492   5.141  13.029 -0.9594 -0.0388 -0.1828
 7322TIP3    H243458   1.407   5.085  12.916 -0.1954  1.2020 -1.3941
 7323TIP3   OH243459   5.826   3.494  11.901  0.8909  0.0053  0.8674
 7323TIP3    H143460   5.871   3.410  11.908  1.4429  0.2426  0.2580
 7323TIP3    H243461   5.734   3.474  11.918  0.7421 -0.9954 -0.8833
 7324TIP3   OH243462   1.275   0.552   3.661 -0.0835  0.5650 -0.0698
 7324TIP3    H143463   1.258   0.645   3.646 -0.8102  0.5401  0.5630
 7324TIP3    H243464   1.294   0.517   3.574 -1.7695  0.9125 -0.6220
 7325TIP3   OH243465   3.000   1.638  11.758 -0.3558  0.7415  0.2041
 7325TIP3    H143466   2.940   1.712  11.756  1.3111  2.1629  0.2268
 7325TIP3    H243467   3.049   1.644  11.677 -0.5624 -0.6997 -0.0569
 7326TIP3   OH243468   3.837   5.691  16.022 -0.6686 -0.2734  0.4132
 7326TIP3    H143469   3.884   5.620  16.066 -0.9333  0.2231  1.5402
 7326TIP3    H243470   3.843   5.670  15.929 -0.6441 -1.7008  0.7148
 7327TIP3   OH243471   0.865   1.760  16.802 -0.7670 -0.1421 -1.2055
 7327TIP3    H143472   0.840   1.851  16.784 -1.7812 -0.1114  0.2038
 7327TIP3    H243473   0.819   1.709  16.735 -1.2976  0.2758 -1.1671
 7328TIP3   OH243474   5.777   5.984   2.447  0.3322  0.4492  0.8251
 7328TIP3    H143475   5.744   6.065   2.410  1.2423  1.4078  2.0311
 7328TIP3    H243476   5.699   5.936   2.474 -0.4046 -0.4039 -2.3820
 7329TIP3   OH243477   6.412   5.941   1.745  0.8130 -0.6490 -0.1196
 7329TIP3    H143478   6.456   5.990   1.814  1.3740 -2.3031  0.7348
 7329TIP3    H243479   6.342   5.893   1.789 -0.8103  0.5908 -1.1983
 7330TIP3   OH243480   0.906   3.055  11.436  0.3609 -0.2888  0.0385
 7330TIP3    H143481   0.983   3.070  11.382  1.1608 -1.5491  0.7664
 7330TIP3    H243482   0.838   3.111  11.398  1.1837 -0.3424 -1.5898
 7331TIP3   OH243483   1.027   4.353  16.133 -0.0807  0.7548 -0.3946
 7331TIP3    H143484   1.000   4.412  16.204 -1.3448 -0.2068 -0.0323
 7331TIP3    H243485   0.967   4.372  16.062 -1.3676 -0.9315  0.1733
 7332TIP3   OH243486   0.383   6.006  12.806  0.1836  0.5923 -0.4650
 7332TIP3    H143487   0.312   6.061  12.838  0.0488 -0.0188  0.3193
 7332TIP3    H243488   0.463   6.051  12.834  0.1189  1.3814 -1.5189
 7333TIP3   OH243489   5.850   2.931  13.545 -0.4379 -0.2809 -0.1535
 7333TIP3    H143490   5.920   2.987  13.512  0.4215 -0.8500  0.6298
 7333TIP3    H243491   5.868   2.923  13.639 -2.0558  0.2483  0.2304
 7334TIP3   OH243492   5.711   2.177   3.710 -0.3725 -0.4066 -0.8697
 7334TIP3    H143493   5.624   2.212   3.728  0.2721 -0.0300  2.0207
 7334TIP3    H243494   5.695   2.095   3.664 -2.3114 -0.6900  0.1937
 7335TIP3   OH243495   3.240   0.345   3.812  0.5593  0.0050  0.3797
 7335TIP3    H143496   3.248   0.436   3.785  0.4389 -0.0132  0.2849
 7335TIP3    H243497   3.261   0.294   3.733  1.3612 -0.0579  0.6145
 7336TIP3   OH243498   0.508   4.546  14.597  0.1960  0.6755  0.0955
 7336TIP3    H143499   0.463   4.611  14.649  0.9284 -0.7880  2.7710
 7336TIP3    H243500   0.441   4.480  14.576  0.5884 -0.6560  2.6307
 7337TIP3   OH243501   1.950   5.251  16.019  0.7446  0.2587 -0.9383
 7337TIP3    H143502   1.915   5.341  16.017  1.7809  0.6681 -1.8452
 7337TIP3    H243503   2.010   5.251  16.093  1.0062  0.4248 -1.1472
 7338TIP3   OH243504   1.969   0.795  13.468 -0.3977  0.0615 -0.3539
 7338TIP3    H143505   2.049   0.845  13.486 -0.1211 -0.3329 -0.4652
 7338TIP3    H243506   1.940   0.826  13.383 -1.1288  1.1886  0.2912
 7339TIP3   OH243507   2.841   6.366   2.282  0.2600 -0.1940  0.1575
 7339TIP3    H143508   2.898   6.310   2.334 -0.3511 -0.4681  0.5511
 7339TIP3    H243509   2.790   6.304   2.229  1.3217  0.0931 -1.2752
 7340TIP3   OH243510   1.668   4.901   4.074 -0.1074 -0.3659 -0.2458
 7340TIP3    H143511   1.703   4.933   4.158  2.2837  1.7342 -1.8874
 7340TIP3    H243512   1.734   4.839   4.043 -0.2653 -0.0789 -1.1798
 7341TIP3   OH243513   5.631   1.619  14.070 -0.5374 -0.5520  0.8679
 7341TIP3    H143514   5.570   1.679  14.112  1.7871  1.9234  0.9893
 7341TIP3    H243515   5.655   1.663  13.989  2.1721 -0.6433  1.5353
 7342TIP3   OH243516   6.268   2.607   2.525  0.6099 -0.0352 -0.0870
 7342TIP3    H143517   6.343   2.615   2.467  0.6425 -0.9004 -0.1763
 7342TIP3    H243518   6.270   2.687   2.578 -0.5112  1.7108 -2.4867
 7343TIP3   OH243519   1.140   6.595  11.310  0.3763  0.1829 -0.0274
 7343TIP3    H143520   1.213   6.630  11.259  1.2989 -1.2459  0.2467
 7343TIP3    H243521   1.079   6.668  11.318  1.8704  1.5023 -0.0883
 7344TIP3   OH243522   5.584   4.490  11.645 -0.2479 -0.2853 -0.1179
 7344TIP3    H143523   5.555   4.474  11.555  0.7717 -2.2783 -0.1668
 7344TIP3    H243524   5.677   4.465  11.644  0.8805  3.3199  0.6331
 7345TIP3   OH243525   1.816   5.810  16.587  0.0618 -0.2381  0.3016
 7345TIP3    H143526   1.890   5.763  16.548 -0.1564 -1.5276  1.3488
 7345TIP3    H243527   1.762   5.741  16.625 -1.5270  0.7092 -0.1675
 7346TIP3   OH243528   2.758   4.234   3.686 -0.2998 -0.0234  0.1075
 7346TIP3    H143529   2.842   4.267   3.718 -0.9119 -2.0151  4.3508
 7346TIP3    H243530   2.699   4.309   3.691  0.7161  0.9028 -1.1024
 7347TIP3   OH243531   4.317   3.510  13.868  0.2663  0.2429 -0.1127
 7347TIP3    H143532   4.249   3.577  13.868  0.4318  0.4303 -0.9717
 7347TIP3    H243533   4.374   3.533  13.941 -0.8675 -0.2120  0.9393
 7348TIP3   OH243534   4.465   2.595  13.907  0.0743 -0.3730 -0.0081
 7348TIP3    H143535   4.516   2.664  13.864 -0.1105 -0.0961  0.2153
 7348TIP3    H243536   4.503   2.513  13.874  1.3215 -0.1930  0.9100
 7349TIP3   OH243537   3.474   5.698   6.939 -0.3252 -0.0244 -0.0177
 7349TIP3    H143538   3.393   5.698   6.888 -0.4266  1.5541  0.1202
 7349TIP3    H243539   3.509   5.786   6.930  1.6212 -0.7837 -0.4143
 7350TIP3   OH243540   1.537   5.285   5.947  0.0624  0.2019  0.6385
 7350TIP3    H143541   1.464   5.344   5.967 -0.6696 -0.0708 -1.1271
 7350TIP3    H243542   1.501   5.197   5.960 -0.5287 -0.0014 -1.9422
 7351TIP3   OH243543   1.219   5.798  12.449  0.2746 -0.2300  0.1320
 7351TIP3    H143544   1.135   5.798  12.495  1.1344 -1.1478  1.7897
 7351TIP3    H243545   1.195   5.808  12.357 -1.6872 -0.8989  0.5100
 7352TIP3   OH243546   1.822   5.306  16.775 -0.0371 -0.3749  0.3219
 7352TIP3    H143547   1.805   5.285  16.867  0.2552  2.2066  1.0652
 7352TIP3    H243548   1.908   5.269  16.757  0.5270  0.2679  1.5633
 7353TIP3   OH243549   5.172   0.470   3.200  0.4322 -0.4451 -0.3810
 7353TIP3    H143550   5.125   0.546   3.234 -1.1467 -0.7561 -1.7117
 7353TIP3    H243551   5.144   0.464   3.108  1.0136 -2.2459 -0.4877
 7354TIP3   OH243552   1.121   0.916   3.035  0.5099 -0.1062  0.2017
 7354TIP3    H143553   1.171   0.978   2.983 -0.2513  0.6633  0.3476
 7354TIP3    H243554   1.176   0.839   3.041  0.7470 -0.0909 -1.4538
 7355TIP3   OH243555   6.481   2.213  16.353 -0.4077 -0.0377  0.5316
 7355TIP3    H143556   6.391   2.183  16.340 -0.9320  1.2745  1.0082
 7355TIP3    H243557   6.483   2.299  16.312  0.6654 -0.1018  0.4397
 7356TIP3   OH243558   4.548   0.755   4.405 -0.1940 -1.3768  0.0919
 7356TIP3    H143559   4.514   0.666   4.404 -1.5954 -1.0405  3.7136
 7356TIP3    H243560   4.470   0.811   4.411  0.7169 -0.0828  0.3945
 7357TIP3   OH243561   3.007   1.247  14.788  0.2842  0.2953  0.4689
 7357TIP3    H143562   2.949   1.277  14.718  0.1241  0.7816  0.7995
 7357TIP3    H243563   3.033   1.158  14.763  1.6760  1.0933 -1.1342
 7358TIP3   OH243564   1.816   3.221  12.398  0.0144  0.2655  0.0308
 7358TIP3    H143565   1.860   3.177  12.471  0.7871  0.4211 -0.3306
 7358TIP3    H243566   1.724   3.200  12.409  0.3234 -1.1581  0.0582
 7359TIP3   OH243567   4.947   6.223  16.841  0.6245  0.0582  0.0076
 7359TIP3    H143568   4.890   6.152  16.870  0.2781  0.5115  0.4492
 7359TIP3    H243569   4.892   6.278  16.786  1.5988 -1.5211 -2.8090
 7360TIP3   OH243570   2.446   6.032  14.468  0.0159  0.0487  0.3383
 7360TIP3    H143571   2.351   6.039  14.457  0.1597 -1.5001 -3.8097
 7360TIP3    H243572   2.458   5.954  14.522 -1.1107 -0.5487 -0.2353
 7361TIP3   OH243573   1.475   3.848   4.524  0.0596 -0.0785 -0.3840
 7361TIP3    H143574   1.446   3.810   4.442 -0.8853  0.0862 -0.1384
 7361TIP3    H243575   1.411   3.818   4.589  0.6857 -0.0594  0.2593
 7362TIP3   OH243576   1.608   0.534   1.813 -0.0460  0.2127  0.4347
 7362TIP3    H143577   1.685   0.505   1.765  0.0240  0.0185  0.6622
 7362TIP3    H243578   1.586   0.460   1.870  0.2676  0.6841  1.1904
 7363TIP3   OH243579   5.011   2.548   1.147 -0.4601  0.5145  0.1488
 7363TIP3    H143580   5.051   2.463   1.124  0.8486  0.3403  2.7712
 7363TIP3    H243581   5.080   2.612   1.130  0.1235  0.5065  2.2136
 7364TIP3   OH243582   4.495   6.750   3.350  0.0661 -0.2864  0.0220
 7364TIP3    H143583   4.553   6.676   3.364 -1.1538 -1.2645  0.0663
 7364TIP3    H243584   4.538   6.802   3.281  1.7711 -0.0968  1.1587
 7365TIP3   OH243585   6.662   3.204   1.312  0.0253  0.0865  0.2280
 7365TIP3    H143586   6.618   3.177   1.232  0.5792  0.7678 -0.3232
 7365TIP3    H243587   6.723   3.273   1.284  0.0318  0.5274  1.2752
 7366TIP3   OH243588   0.443   6.049  15.532  0.0978 -0.1472 -0.3816
 7366TIP3    H143589   0.412   6.021  15.618 -0.0110  3.5406  0.9456
 7366TIP3    H243590   0.367   6.040  15.475 -1.1604  1.3365  0.9709
 7367TIP3   OH243591   1.840   2.876   1.511 -0.0868  0.2078  0.0952
 7367TIP3    H143592   1.778   2.809   1.540  1.3178 -0.7958  0.8624
 7367TIP3    H243593   1.824   2.883   1.416 -2.0471  0.7261  0.4086
 7368TIP3   OH243594   5.149   5.861  16.109 -0.5782 -0.5586 -0.3884
 7368TIP3    H143595   5.108   5.911  16.039 -0.1066  0.2273 -0.1179
 7368TIP3    H243596   5.227   5.823  16.069  0.5090  1.1093  0.0577
 7369TIP3   OH243597   0.186   4.981  12.121 -0.7266  0.2765  0.5084
 7369TIP3    H143598   0.231   5.011  12.042  0.2963 -0.3561  0.8237
 7369TIP3    H243599   0.253   4.989  12.190 -1.5162  0.5645  1.2575
 7370TIP3   OH243600   3.339   4.173  13.097 -0.2176 -0.3214  0.5656
 7370TIP3    H143601   3.325   4.259  13.056 -0.8119 -1.4107 -1.6802
 7370TIP3    H243602   3.411   4.187  13.158  1.2703  1.3038 -1.4085
 7371TIP3   OH243603   4.655   2.044  13.321 -0.6453  0.3995  0.9319
 7371TIP3    H143604   4.560   2.033  13.321 -0.5051 -1.0242  0.6500
 7371TIP3    H243605   4.684   2.000  13.241  0.1709  1.7957  0.4210
 7372TIP3   OH243606   2.873   3.780   1.034  0.2459  0.1582 -0.0736
 7372TIP3    H143607   2.919   3.761   0.952  2.1256  0.2540  0.9239
 7372TIP3    H243608   2.896   3.870   1.055  2.1415 -0.7024  1.9693
 7373TIP3   OH243609   3.995   4.154  11.209 -0.6158 -0.1095  0.1498
 7373TIP3    H143610   3.940   4.216  11.162  0.6592 -2.0809 -4.6023
 7373TIP3    H243611   4.068   4.206  11.242 -0.4201  1.2788 -2.2224
 7374TIP3   OH243612   3.851   4.467   1.977 -0.6295 -0.4858  0.0611
 7374TIP3    H143613   3.939   4.507   1.971 -1.5030  1.8051  1.2299
 7374TIP3    H243614   3.846   4.410   1.901  0.8973  1.4401 -1.6162
 7375TIP3   OH243615   0.669   3.015   3.676 -0.3073  0.0137 -0.4306
 7375TIP3    H143616   0.581   2.998   3.708 -0.4725 -0.7493 -1.2472
 7375TIP3    H243617   0.659   3.023   3.581  0.4088  0.5540 -0.4718
 7376TIP3   OH243618   2.656   1.532   5.748 -0.1656 -0.3283  0.8908
 7376TIP3    H143619   2.595   1.527   5.675  0.3013  0.5914  0.4202
 7376TIP3    H243620   2.647   1.448   5.793 -0.3556 -0.9631 -0.3096
 7377TIP3   OH243621   4.901   4.619  11.779 -0.5440 -0.0894 -0.5148
 7377TIP3    H143622   4.876   4.527  11.787 -1.7279  0.0382 -2.2824
 7377TIP3    H243623   4.906   4.635  11.685  2.0152  1.0637 -0.2738
 7378TIP3   OH243624   3.460   4.342   0.371 -0.4871 -0.0864  0.2883
 7378TIP3    H143625   3.545   4.350   0.329 -1.1089 -0.9144 -1.1847
 7378TIP3    H243626   3.478   4.291   0.451  0.2917 -0.8914 -0.3783
 7379TIP3   OH243627   5.620   5.737  17.235  0.3319  0.0152  0.2051
 7379TIP3    H143628   5.711   5.734  17.204  0.2075  0.1430 -0.1843
 7379TIP3    H243629   5.580   5.658  17.200  0.1030  0.3261 -0.2503
 7380TIP3   OH243630   6.621   4.208  16.802 -0.2843  0.0933 -0.0749
 7380TIP3    H143631   6.641   4.115  16.816  2.5081  0.4527 -0.9753
 7380TIP3    H243632   6.611   4.244  16.890  3.6437 -0.1875  0.6559
 7381TIP3   OH243633   6.510   1.281   2.223  0.4201  0.4306 -0.3113
 7381TIP3    H143634   6.480   1.191   2.233 -0.6251  0.7659 -0.2407
 7381TIP3    H243635   6.601   1.281   2.253  1.1125 -1.0162 -2.2453
 7382TIP3   OH243636   1.948   2.973  11.861 -0.0077 -0.1918 -0.4118
 7382TIP3    H143637   1.870   2.926  11.890  0.2850 -0.2666  0.2961
 7382TIP3    H243638   1.976   2.927  11.782  0.1548 -1.1058  0.1539
 7383TIP3   OH243639   1.021   5.621   2.959  0.5030  0.0917 -0.5753
 7383TIP3    H143640   1.111   5.626   2.992  0.3306 -1.7306  0.2968
 7383TIP3    H243641   1.031   5.622   2.864  1.5730 -1.1936 -0.5155
 7384TIP3   OH243642   3.521   0.895  16.882  0.2628 -0.1435  0.0705
 7384TIP3    H143643   3.435   0.857  16.863  0.2739 -0.6356  0.9506
 7384TIP3    H243644   3.513   0.986  16.854 -1.3009  0.4510  2.1480
 7385TIP3   OH243645   3.314   3.425   2.053  0.2619 -0.0074  0.2610
 7385TIP3    H143646   3.224   3.397   2.038  0.2499  0.4869 -0.6234
 7385TIP3    H243647   3.325   3.422   2.148 -0.4805 -0.6974  0.3298
 7386TIP3   OH243648   0.139   0.096   2.925 -0.7420  0.5110 -0.1043
 7386TIP3    H143649   0.165   0.188   2.926  2.0737 -0.1985 -0.1008
 7386TIP3    H243650   0.212   0.051   2.882 -1.0756 -1.9654  1.7165
 7387TIP3   OH243651   2.258   1.559  12.985 -0.2079  0.0586  0.1437
 7387TIP3    H143652   2.305   1.478  12.968 -0.6533 -0.4808  1.3969
 7387TIP3    H243653   2.175   1.548  12.939 -1.1088 -1.0862  1.9426
 7388TIP3   OH243654   4.425   3.286  14.300 -0.1133  0.1952  0.0461
 7388TIP3    H143655   4.350   3.238  14.264  1.2529 -1.8828 -0.1944
 7388TIP3    H243656   4.421   3.271  14.394 -0.4524  0.7749  0.1258
 7389TIP3   OH243657   1.933   2.574   0.795  0.4849 -0.8335 -0.3030
 7389TIP3    H143658   1.859   2.536   0.747 -0.3602  0.5277 -0.1378
 7389TIP3    H243659   1.952   2.656   0.748  1.8121 -1.1090 -0.2640
 7390TIP3   OH243660   4.734   5.091   3.491 -0.2888 -0.3591  0.1956
 7390TIP3    H143661   4.761   5.100   3.399 -1.0879  0.9516  0.0689
 7390TIP3    H243662   4.666   5.157   3.503 -0.1469 -0.4603  1.7688
 7391TIP3   OH243663   0.222   4.456   5.669  0.3884 -0.1925 -0.3041
 7391TIP3    H143664   0.271   4.500   5.738 -0.7342  0.0544  0.3704
 7391TIP3    H243665   0.287   4.433   5.603  1.5619 -0.7536  0.9998
 7392TIP3   OH243666   6.355   2.705   1.293  0.3564  0.3076  0.9212
 7392TIP3    H143667   6.411   2.780   1.272 -0.0685 -0.4033 -3.6935
 7392TIP3    H243668   6.272   2.744   1.320  1.1990  1.4101  2.0537
 7393TIP3   OH243669   3.363   1.121   3.010  0.2304 -0.1133 -0.0667
 7393TIP3    H143670   3.408   1.048   2.968  0.3651  0.3238 -0.6843
 7393TIP3    H243671   3.413   1.136   3.090  1.5417  0.7243 -1.0098
 7394TIP3   OH243672   4.972   5.158   3.610 -0.2912  0.0875 -0.3765
 7394TIP3    H143673   4.940   5.233   3.660 -0.5321  0.3341 -0.8943
 7394TIP3    H243674   4.895   5.124   3.565 -0.4021 -1.1496  0.7093
 7395TIP3   OH243675   1.383   1.844  12.909 -0.3232  0.1315  0.2485
 7395TIP3    H143676   1.472   1.843  12.946 -0.6306  0.9190  1.0339
 7395TIP3    H243677   1.392   1.895  12.828  0.0830 -0.4416 -0.0790
 7396TIP3   OH243678   5.427   5.070  11.680  0.1463  0.3963 -0.4270
 7396TIP3    H143679   5.361   5.059  11.748  0.9335 -1.6577  0.0680
 7396TIP3    H243680   5.488   5.134  11.715 -0.2904  0.5224  0.1116
 7397TIP3   OH243681   5.153   5.262   1.887 -0.7233  0.5229 -0.0225
 7397TIP3    H143682   5.141   5.343   1.837  0.9264  1.6991  1.3783
 7397TIP3    H243683   5.125   5.283   1.976  0.3441 -0.2190  0.5227
 7398TIP3   OH243684   1.883   6.706  14.613  0.2925 -0.4837  0.1887
 7398TIP3    H143685   1.887   6.769  14.542  0.8060 -1.4246 -0.6461
 7398TIP3    H243686   1.970   6.710  14.654  0.0643 -0.0877  0.6435
 7399TIP3   OH243687   5.265   4.059  15.767  0.2017  1.0332  0.2778
 7399TIP3    H143688   5.335   4.005  15.803 -0.3039  0.5316  0.5196
 7399TIP3    H243689   5.264   4.137  15.823  0.6553  1.1044  0.1895
 7400TIP3   OH243690   4.912   1.966   3.421  0.3280  0.2654 -0.0291
 7400TIP3    H143691   4.855   1.938   3.493 -0.4369  1.1838 -0.2538
 7400TIP3    H243692   4.971   1.893   3.407 -1.6710 -1.3110 -0.6906
 7401TIP3   OH243693   6.661   3.959   0.245 -0.6321  0.2869 -0.3953
 7401TIP3    H143694   6.669   4.055   0.240 -1.2166  0.3268 -0.6516
 7401TIP3    H243695   6.623   3.934   0.161  0.3626 -0.2699 -0.6911
 7402TIP3   OH243696   1.233   4.604  11.940  0.3511 -0.4324 -0.4022
 7402TIP3    H143697   1.181   4.649  12.007  0.5056  0.4779 -0.8741
 7402TIP3    H243698   1.268   4.527  11.984 -0.2325 -0.2919  0.3253
 7403TIP3   OH243699   3.982   5.710  16.514 -0.0569 -0.4065  0.2166
 7403TIP3    H143700   3.966   5.643  16.448 -0.3570 -0.1649  0.0402
 7403TIP3    H243701   3.987   5.792  16.465 -0.1778 -0.2376  0.4822
 7404TIP3   OH243702   3.467   3.092  16.866  0.3560  0.2022  0.6929
 7404TIP3    H143703   3.389   3.040  16.882  0.7816  0.1106  2.7072
 7404TIP3    H243704   3.506   3.054  16.787 -0.4723 -1.1353  0.9136
 7405TIP3   OH243705   5.333   3.617  14.910  0.1095  0.2354 -0.9587
 7405TIP3    H143706   5.373   3.691  14.955 -1.5475  0.4272  0.3076
 7405TIP3    H243707   5.292   3.655  14.833 -0.0596  0.5271 -0.7309
 7406TIP3   OH243708   5.816   1.254   0.867 -0.3784  0.3599 -0.1043
 7406TIP3    H143709   5.813   1.338   0.913 -2.7482  1.4794 -2.0921
 7406TIP3    H243710   5.877   1.267   0.795 -1.0696  0.5396 -0.6655
 7407TIP3   OH243711   0.203   4.359   6.000 -0.0520  0.1060  0.8445
 7407TIP3    H143712   0.178   4.286   5.943 -0.2058  1.9764 -1.6455
 7407TIP3    H243713   0.287   4.389   5.964  1.6749 -0.7909  3.8356
 7408TIP3   OH243714   2.627   0.879  12.031  0.4693 -0.2923 -0.1055
 7408TIP3    H143715   2.602   0.847  12.117 -1.9802 -2.3924 -1.4449
 7408TIP3    H243716   2.577   0.959  12.019  1.0484  0.1664  0.5228
 7409TIP3   OH243717   2.877   6.419  12.954 -0.0207  0.6187 -0.1905
 7409TIP3    H143718   2.822   6.459  12.886 -0.6413 -0.4848 -0.3680
 7409TIP3    H243719   2.932   6.357  12.906 -0.3262 -0.0264  0.2834
 7410TIP3   OH243720   3.807   4.181   3.259  0.0054 -0.6187  0.6110
 7410TIP3    H143721   3.772   4.166   3.171 -0.6140 -0.3683  0.8093
 7410TIP3    H243722   3.883   4.123   3.265  0.4873 -0.1057 -0.3456
 7411TIP3   OH243723   1.115   5.948  11.386  0.1625  0.4587 -0.6995
 7411TIP3    H143724   1.135   5.854  11.394  0.4857  0.6277  0.7205
 7411TIP3    H243725   1.020   5.950  11.372  0.1167 -0.0713 -0.5103
 7412TIP3   OH243726   6.322   6.117  10.754  0.3992  0.2236  0.6166
 7412TIP3    H143727   6.317   6.126  10.849  0.1767 -0.5520  0.6884
 7412TIP3    H243728   6.358   6.029  10.741 -0.3044  0.0202 -0.0205
 7413TIP3   OH243729   0.670   2.276   4.588 -0.4970  0.6271  0.4370
 7413TIP3    H143730   0.635   2.189   4.567 -1.1496  0.5922  1.5842
 7413TIP3    H243731   0.593   2.333   4.590 -0.1720  1.0662  0.4769
 7414TIP3   OH243732   1.989   6.137   1.212 -0.5496 -0.4461 -0.0248
 7414TIP3    H143733   1.960   6.061   1.163 -1.3977 -0.7180  0.8591
 7414TIP3    H243734   2.061   6.173   1.161 -1.0425 -1.0342 -1.1556
 7415TIP3   OH243735   3.504   2.817   1.379  0.1240  0.7994  0.1306
 7415TIP3    H143736   3.411   2.793   1.375 -0.1534  1.7939  0.2345
 7415TIP3    H243737   3.510   2.894   1.321  1.0012  0.3919 -0.3337
 7416TIP3   OH243738   3.232   4.344  14.147  0.3539 -0.1313 -0.9933
 7416TIP3    H143739   3.191   4.305  14.070 -1.5294  0.0799 -0.1649
 7416TIP3    H243740   3.228   4.276  14.214 -0.9550  0.6856 -0.1863
 7417TIP3   OH243741   0.249   3.354  14.610 -0.1383  0.1017 -0.0271
 7417TIP3    H143742   0.202   3.402  14.679  0.0322  0.0719  0.1121
 7417TIP3    H243743   0.210   3.267  14.610 -1.1281  0.5230 -0.9509
 7418TIP3   OH243744   4.858   3.962   3.425 -0.1847 -0.0533  0.5222
 7418TIP3    H143745   4.931   3.986   3.368  0.2957 -0.4561  0.9507
 7418TIP3    H243746   4.834   4.044   3.469 -2.0198  0.7657 -1.8296
 7419TIP3   OH243747   4.907   5.624   4.818 -0.1837  0.1862 -0.6059
 7419TIP3    H143748   4.812   5.632   4.808 -0.5387 -1.5307  0.7673
 7419TIP3    H243749   4.919   5.539   4.862  1.9837  0.4133 -0.6539
 7420TIP3   OH243750   2.040   2.020   4.706 -0.5314  0.4924  0.0798
 7420TIP3    H143751   2.090   1.943   4.733  1.4650  1.1040 -1.6616
 7420TIP3    H243752   1.967   1.983   4.654  0.8505 -0.2558 -1.4289
 7421TIP3   OH243753   6.627   1.345  12.732  0.2061  0.3786  0.2665
 7421TIP3    H143754   6.608   1.327  12.824 -0.6826  2.4027  0.5324
 7421TIP3    H243755   6.571   1.284  12.684  0.9867 -0.9858  1.0380
 7422TIP3   OH243756   6.544   6.439  16.572  0.2096 -0.2471 -0.0451
 7422TIP3    H143757   6.547   6.403  16.484 -0.3127 -1.1730  0.2999
 7422TIP3    H243758   6.509   6.527  16.562  2.0688  0.4214 -0.9782
 7423TIP3   OH243759   2.219   1.511   5.708 -0.0388  0.2811 -0.4630
 7423TIP3    H143760   2.201   1.492   5.800  0.9930 -0.4693 -0.3963
 7423TIP3    H243761   2.137   1.492   5.663 -0.4215  0.2203  0.2482
 7424TIP3   OH243762   6.559   6.615  14.734  0.2129  0.0696  0.1124
 7424TIP3    H143763   6.591   6.562  14.661 -0.3676 -1.9386  1.2294
 7424TIP3    H243764   6.606   6.582  14.810 -0.7064  0.6647  0.9636
 7425TIP3   OH243765   2.647   5.459   0.525  0.2551  0.3641 -0.1055
 7425TIP3    H143766   2.727   5.434   0.572 -0.3031  0.5504  0.9540
 7425TIP3    H243767   2.679   5.519   0.457  1.0731  0.1256  0.0500
 7426TIP3   OH243768   1.705   2.874   3.897 -0.0370 -0.0252  0.1050
 7426TIP3    H143769   1.783   2.889   3.951 -1.2772  0.9110  1.7305
 7426TIP3    H243770   1.665   2.796   3.934  0.8356 -1.3715 -1.6494
 7427TIP3   OH243771   5.217   4.064  11.015  0.1294  0.0823  0.7539
 7427TIP3    H143772   5.255   4.118  11.085  0.1980  2.7451 -1.1674
 7427TIP3    H243773   5.288   4.056  10.951  0.0099 -2.1493  0.8353
 7428TIP3   OH243774   4.730   1.709   4.209  0.0898 -0.3186  0.1477
 7428TIP3    H143775   4.737   1.614   4.221  0.0954 -0.5527 -1.5314
 7428TIP3    H243776   4.637   1.728   4.218  0.2596 -0.1880  2.2002
 7429TIP3   OH243777   4.132   3.721  13.938 -0.0274 -0.4716  0.8018
 7429TIP3    H143778   4.049   3.766  13.922 -0.3752 -0.4307  2.5595
 7429TIP3    H243779   4.197   3.791  13.944  0.7145 -0.5976 -3.1862
 7430TIP3   OH243780   6.034   6.374  11.534  0.6074  0.0203  0.8253
 7430TIP3    H143781   6.058   6.319  11.609 -0.0634  0.5166  1.4227
 7430TIP3    H243782   5.968   6.324  11.486  0.0070  0.2831  1.3603
 7431TIP3   OH243783   4.414   4.317   6.550 -0.1992  0.8455  0.9594
 7431TIP3    H143784   4.465   4.251   6.596  0.2458  0.2980 -0.2844
 7431TIP3    H243785   4.462   4.333   6.469 -2.1540  0.0485 -0.4248
 7432TIP3   OH243786   3.759   4.596  11.909 -0.1974  0.2503 -0.3495
 7432TIP3    H143787   3.704   4.538  11.962  0.5327 -0.2069 -0.0779
 7432TIP3    H243788   3.700   4.631  11.842 -0.8389 -0.1469  0.0066
 7433TIP3   OH243789   3.392   1.792  12.816  0.3427  0.6899 -0.7640
 7433TIP3    H143790   3.449   1.784  12.739 -1.3510 -0.3072 -2.0171
 7433TIP3    H243791   3.303   1.789  12.779 -0.5480 -1.1506  1.3132
 7434TIP3   OH243792   5.251   3.321  15.182  0.5786 -0.8808  0.0837
 7434TIP3    H143793   5.285   3.235  15.156  2.3423  0.0924 -1.0329
 7434TIP3    H243794   5.313   3.353  15.247 -0.1926 -0.5256  0.6643
 7435TIP3   OH243795   6.239   3.829   5.655  0.0295  0.4695  0.0325
 7435TIP3    H143796   6.309   3.763   5.665  0.0538  0.3519 -0.8085
 7435TIP3    H243797   6.159   3.781   5.675  0.2788  1.0053  2.6341
 7436TIP3   OH243798   3.747   5.259   0.359 -0.0498  0.0817  0.1175
 7436TIP3    H143799   3.819   5.226   0.305 -1.4826  1.2239 -2.7612
 7436TIP3    H243800   3.672   5.263   0.299 -2.1037  0.4875  2.5275
 7437TIP3   OH243801   2.799   1.391   3.407  0.1057  0.2162  0.5527
 7437TIP3    H143802   2.879   1.436   3.436 -0.2501  0.8583  0.5594
 7437TIP3    H243803   2.741   1.462   3.379 -0.6312 -0.2105  0.9608
 7438TIP3   OH243804   1.352   5.812  11.521 -0.7116  0.4553 -0.5616
 7438TIP3    H143805   1.331   5.740  11.462 -0.1146 -0.9536  0.8755
 7438TIP3    H243806   1.422   5.860  11.476  1.0390 -1.6681 -0.2874
 7439TIP3   OH243807   0.996   4.938   2.476  0.0331  0.6965 -0.0517
 7439TIP3    H143808   1.083   4.965   2.444  0.1914  0.6872  0.3610
 7439TIP3    H243809   0.997   4.843   2.470 -0.8976  0.7745 -2.4731
 7440TIP3   OH243810   4.204   0.718   3.889  0.5500  0.0890  0.2882
 7440TIP3    H143811   4.238   0.759   3.809  0.5407  0.2449  0.3636
 7440TIP3    H243812   4.162   0.638   3.858  0.4328  0.2138  0.1186
 7441TIP3   OH243813   5.081   0.174  16.903  0.0184 -0.7318  0.2467
 7441TIP3    H143814   5.106   0.254  16.857  0.2515 -1.4602 -0.9327
 7441TIP3    H243815   5.136   0.174  16.981  1.3044 -0.6168 -0.6215
 7442TIP3   OH243816   2.609   3.611  12.297 -0.0160  0.2767  0.3373
 7442TIP3    H143817   2.690   3.652  12.329 -0.1861  0.0654  1.0598
 7442TIP3    H243818   2.636   3.562  12.219  0.0989  2.1225 -0.8344
 7443TIP3   OH243819   1.658   1.298   4.973  0.0109 -0.1659  0.1330
 7443TIP3    H143820   1.666   1.295   5.068  1.9259 -0.1210  0.0167
 7443TIP3    H243821   1.658   1.207   4.945 -3.6923 -0.3611  0.2898
 7444TIP3   OH243822   1.407   2.724  13.180  0.3762  0.9341  0.5524
 7444TIP3    H143823   1.456   2.787  13.127  0.2297  0.0897 -0.5964
 7444TIP3    H243824   1.464   2.648  13.186  0.2446  0.8817  1.3424
 7445TIP3   OH243825   5.710   2.225   1.137 -0.2097  0.4989  0.6126
 7445TIP3    H143826   5.646   2.296   1.127 -0.7066 -0.1092 -0.6868
 7445TIP3    H243827   5.704   2.201   1.230 -2.2057  0.1649  0.4442
 7446TIP3   OH243828   3.967   4.522  14.687 -0.0708  0.6607  0.7598
 7446TIP3    H143829   4.015   4.514  14.605  0.7273  0.4557  1.2419
 7446TIP3    H243830   3.931   4.611  14.685 -1.4225  0.1175 -0.5301
 7447TIP3   OH243831   3.370   6.262  15.884 -0.0114  0.0722 -0.8214
 7447TIP3    H143832   3.366   6.240  15.977  3.4893 -3.9363 -1.3184
 7447TIP3    H243833   3.318   6.194  15.841  1.1877 -0.1673 -1.9394
 7448TIP3   OH243834   5.319   0.456  14.787  0.3516  0.2908  0.0649
 7448TIP3    H143835   5.364   0.372  14.781 -0.1690  0.0308 -0.3233
 7448TIP3    H243836   5.250   0.443  14.853 -0.0403  0.2623 -0.3451
 7449TIP3   OH243837   3.789   0.228  15.190  0.0886  0.6678  0.1931
 7449TIP3    H143838   3.799   0.318  15.221 -0.3772  0.5857  0.5861
 7449TIP3    H243839   3.829   0.175  15.259 -1.7170  0.4244  1.1308
 7450TIP3   OH243840   6.712   1.991  14.964  0.5646  0.3177 -0.6278
 7450TIP3    H143841   6.636   2.047  14.947 -0.3037 -0.7353 -0.3584
 7450TIP3    H243842   6.710   1.975  15.058  1.5129  0.8005 -0.5150
 7451TIP3   OH243843   4.388   3.196  10.623  0.1313  0.1226  0.0684
 7451TIP3    H143844   4.454   3.188  10.554 -1.5589  0.6857 -1.7205
 7451TIP3    H243845   4.317   3.246  10.582 -1.4998 -0.6316  1.8224
 7452TIP3   OH243846   2.596   1.697   5.389  0.5015  0.5257 -0.1623
 7452TIP3    H143847   2.565   1.783   5.360  1.8227  0.5635 -1.5904
 7452TIP3    H243848   2.528   1.665   5.448  0.0644  2.6184  0.5283
 7453TIP3   OH243849   2.491   6.328  14.913  0.8572  0.4426  0.2832
 7453TIP3    H143850   2.468   6.406  14.863  2.5899  2.0696  1.8921
 7453TIP3    H243851   2.406   6.288  14.934 -0.1890  2.6488  0.5860
 7454TIP3   OH243852   3.959   3.552   1.153 -0.1744 -0.4777 -0.5838
 7454TIP3    H143853   3.945   3.506   1.070  0.8604 -1.9342  0.0021
 7454TIP3    H243854   4.010   3.491   1.206 -0.0204  0.7880  0.8018
 7455TIP3   OH243855   2.048   4.133   5.041  0.5470 -0.6345 -1.0375
 7455TIP3    H143856   2.015   4.182   5.116 -0.0707 -0.6715 -1.2792
 7455TIP3    H243857   2.090   4.199   4.986  1.1819 -0.6394 -0.5634
 7456TIP3   OH243858   2.664   2.841  14.330 -0.2103 -0.2982  0.6102
 7456TIP3    H143859   2.605   2.915  14.319  0.1751  0.0163  0.6540
 7456TIP3    H243860   2.629   2.773  14.272  0.2946  0.4351 -0.5909
 7457TIP3   OH243861   2.037   5.718  15.431  0.3915 -0.1352  0.5099
 7457TIP3    H143862   1.956   5.768  15.417  0.3496 -0.2513  0.3462
 7457TIP3    H243863   2.017   5.663  15.507 -1.0041 -2.9397 -1.7114
 7458TIP3   OH243864   2.536   4.842   0.440  0.3314  0.1112  0.9510
 7458TIP3    H143865   2.604   4.775   0.435 -0.5390 -0.7503  0.2759
 7458TIP3    H243866   2.523   4.856   0.533 -0.6468 -1.9064  1.1743
 7459TIP3   OH243867   5.576   2.896  13.504 -0.3598  0.1124  0.1983
 7459TIP3    H143868   5.670   2.906  13.489 -0.2899 -2.2909 -1.4485
 7459TIP3    H243869   5.566   2.902  13.599  1.1235  2.3782  0.2830
 7460TIP3   OH243870   5.744   5.457  11.715 -0.0430  0.0148 -0.3483
 7460TIP3    H143871   5.687   5.508  11.772 -1.3406 -0.6774 -0.9921
 7460TIP3    H243872   5.786   5.522  11.658 -1.7116  0.3779 -1.1993
 7461TIP3   OH243873   5.782   0.093   3.948 -0.0602 -0.4679  0.1781
 7461TIP3    H143874   5.777   0.179   3.907 -0.4687 -1.4275 -1.9175
 7461TIP3    H243875   5.697   0.081   3.991 -0.2476 -0.0816 -0.0857
 7462TIP3   OH243876   6.147   0.541   5.928  0.0921  0.4019  0.2765
 7462TIP3    H143877   6.227   0.528   5.878 -0.6185 -0.7733 -0.6156
 7462TIP3    H243878   6.162   0.496   6.011 -0.0153 -0.7422 -0.3083
 7463TIP3   OH243879   2.172   0.478  14.679  0.0752  0.2217  0.0960
 7463TIP3    H143880   2.182   0.572  14.666  0.3104  0.0391 -1.0717
 7463TIP3    H243881   2.099   0.453  14.623  2.0298 -0.8163 -2.1156
 7464TIP3   OH243882   5.729   3.388  12.161 -0.6269  0.2065  0.3871
 7464TIP3    H143883   5.736   3.483  12.165  0.9437  0.1396  0.0191
 7464TIP3    H243884   5.635   3.371  12.158 -0.9288  1.7819 -0.4238
 7465TIP3   OH243885   3.137   1.691  11.523  0.3133 -0.2558  0.6347
 7465TIP3    H143886   3.171   1.767  11.570 -1.3614  0.2619  1.0695
 7465TIP3    H243887   3.096   1.728  11.444  0.1784 -0.7826  0.4530
 7466TIP3   OH243888   2.737   1.488   5.135  0.3794  0.1509  0.0414
 7466TIP3    H143889   2.815   1.471   5.082  0.8516  1.0651  0.4161
 7466TIP3    H243890   2.752   1.438   5.215  0.9257  0.8798  0.4058
 7467TIP3   OH243891   3.438   6.673  11.135  0.1824 -0.6266  0.1923
 7467TIP3    H143892   3.424   6.744  11.198  2.2771 -0.5704  0.6750
 7467TIP3    H243893   3.497   6.711  11.070 -0.5802 -1.2284 -0.8870
 7468TIP3   OH243894   3.734   4.634  15.058 -0.0924 -0.5020  0.1761
 7468TIP3    H143895   3.713   4.541  15.070 -1.0909 -0.3216 -0.0775
 7468TIP3    H243896   3.817   4.646  15.105  0.6811 -1.7763 -0.8112
 7469TIP3   OH243897   6.257   3.692  13.572  0.1689  0.1286 -0.0053
 7469TIP3    H143898   6.251   3.772  13.624 -0.6683  2.4956 -3.4685
 7469TIP3    H243899   6.168   3.658  13.569  0.1129  0.3048 -0.3428
 7470TIP3   OH243900   5.262   3.492   2.814  0.1771  0.0006 -0.7641
 7470TIP3    H143901   5.221   3.441   2.884  0.0970  1.1595  0.0517
 7470TIP3    H243902   5.266   3.581   2.848 -2.4514  1.2393 -3.2768
 7471TIP3   OH243903   0.730   4.911   5.070  0.0633  0.1536  0.3110
 7471TIP3    H143904   0.811   4.956   5.049  0.5102 -0.6892  0.1924
 7471TIP3    H243905   0.675   4.922   4.993  0.3612  0.0596  0.0865
 7472TIP3   OH243906   1.473   1.077   4.773 -0.1967  0.4184  0.1443
 7472TIP3    H143907   1.431   1.092   4.858 -0.5541  1.9810 -0.2580
 7472TIP3    H243908   1.420   1.129   4.712 -0.4748 -1.3574 -1.1994
 7473TIP3   OH243909   3.986   3.515  14.375  0.0674  0.2553 -0.0032
 7473TIP3    H143910   4.035   3.552  14.449  0.8433  0.2899 -0.5165
 7473TIP3    H243911   3.982   3.586  14.311  0.9403 -0.3033 -0.7002
 7474TIP3   OH243912   0.007   1.440   5.337  0.0850 -0.0424 -0.7531
 7474TIP3    H143913   0.020   1.534   5.332  0.7589 -0.1443 -1.1604
 7474TIP3    H243914  -0.058   1.427   5.405  0.5342  0.6768 -0.1775
 7475TIP3   OH243915   3.197   0.839   4.714  0.1153 -0.3341  0.2494
 7475TIP3    H143916   3.131   0.854   4.647  0.5697  1.6024  0.1936
 7475TIP3    H243917   3.273   0.808   4.665 -0.2467 -1.0981  0.1499
 7476TIP3   OH243918   3.113   0.065  15.644 -0.0579 -0.2082 -0.2398
 7476TIP3    H143919   3.081  -0.024  15.629  0.1074 -0.4555  0.8281
 7476TIP3    H243920   3.199   0.053  15.685  0.2265  0.4503 -0.6262
 7477TIP3   OH243921   6.023   3.651   5.738  0.0258 -0.2523 -0.1815
 7477TIP3    H143922   5.952   3.591   5.761  0.2835 -0.1700  0.8908
 7477TIP3    H243923   5.993   3.736   5.770  0.0627  0.0186 -0.8640
 7478TIP3   OH243924   3.407   6.601  11.583 -0.2124  0.6264 -0.3962
 7478TIP3    H143925   3.482   6.650  11.617 -1.4337  2.5745 -0.3662
 7478TIP3    H243926   3.344   6.668  11.557 -2.7552 -0.8975  1.3521
 7479TIP3   OH243927   1.047   3.118  16.599 -0.3628  0.2928  0.3323
 7479TIP3    H143928   1.062   3.206  16.632  0.6055  0.8287 -1.4304
 7479TIP3    H243929   1.005   3.131  16.514  0.5798 -0.9123 -0.3481
 7480TIP3   OH243930   6.619   0.941  16.339  0.1093 -0.0225  0.6544
 7480TIP3    H143931   6.627   0.862  16.287 -1.9479  0.3313 -0.3177
 7480TIP3    H243932   6.678   0.928  16.413  1.9173 -1.2337 -0.9067
 7481TIP3   OH243933   2.894   4.272  15.143  0.4882  0.2210  0.4212
 7481TIP3    H143934   2.846   4.220  15.208 -0.7507  1.0917  0.2437
 7481TIP3    H243935   2.886   4.222  15.062 -0.8453  0.7013  0.2124
 7482TIP3   OH243936   6.746   2.684  14.843  0.1079 -0.1686  0.0735
 7482TIP3    H143937   6.740   2.604  14.792  1.9072  0.4954 -1.2718
 7482TIP3    H243938   6.656   2.702  14.870 -1.0289 -0.3928 -3.1593
 7483TIP3   OH243939   4.637   5.043  13.926  1.0405 -0.0637  0.2881
 7483TIP3    H143940   4.709   4.999  13.972  0.9223 -0.4634  0.0909
 7483TIP3    H243941   4.561   4.989  13.944  1.1421 -0.6907 -1.0599
 7484TIP3   OH243942   4.670   2.703  16.612  0.9588 -0.3353  0.7616
 7484TIP3    H143943   4.589   2.660  16.639  1.0045 -2.0700 -1.5928
 7484TIP3    H243944   4.643   2.792  16.587  0.0474 -0.4428  1.3190
 7485TIP3   OH243945   5.821   3.694   2.399  0.1179 -0.2415 -0.2859
 7485TIP3    H143946   5.772   3.758   2.449  1.3459 -0.0570  0.7237
 7485TIP3    H243947   5.777   3.610   2.417 -0.2127  0.0064  0.0702
 7486TIP3   OH243948   3.589   4.294  13.179 -0.0756  0.5493  0.2372
 7486TIP3    H143949   3.557   4.341  13.257 -1.5199 -3.0464  2.0474
 7486TIP3    H243950   3.624   4.212  13.214  1.4934 -0.1965 -2.7872
 7487TIP3   OH243951   4.334   0.538   2.715 -0.2363  0.0907  0.5199
 7487TIP3    H143952   4.365   0.527   2.804 -0.1158  0.1158  0.4818
 7487TIP3    H243953   4.263   0.602   2.721 -0.3905 -0.0903  0.6300
 7488TIP3   OH243954   5.797   1.896   3.643  0.4030 -0.3150 -0.4842
 7488TIP3    H143955   5.770   1.855   3.561  1.6459 -2.2308 -0.0086
 7488TIP3    H243956   5.727   1.872   3.705 -0.2256  0.6160 -0.8093
 7489TIP3   OH243957   3.630   4.187   1.339  0.1062 -0.3160  0.3732
 7489TIP3    H143958   3.688   4.263   1.331 -0.3918  0.0918  0.6260
 7489TIP3    H243959   3.565   4.199   1.270 -0.2921 -0.2274  0.7590
 7490TIP3   OH243960   6.288   2.136   2.522  0.1290 -0.0984 -0.3110
 7490TIP3    H143961   6.358   2.153   2.585 -1.7365  2.2469  1.3048
 7490TIP3    H243962   6.245   2.058   2.555 -0.5567  0.8596  1.1578
 7491TIP3   OH243963   3.047   5.868  16.926  0.0060  0.3280  0.4031
 7491TIP3    H143964   3.029   5.877  17.019  1.5340 -0.1479  0.7633
 7491TIP3    H243965   3.048   5.773  16.912  0.6166  0.3837  0.0741
 7492TIP3   OH243966   3.887   4.441   2.237  0.2320  0.1151 -0.3660
 7492TIP3    H143967   3.840   4.460   2.155 -1.2177  0.9694  0.6117
 7492TIP3    H243968   3.929   4.524   2.260 -1.3783  0.6251  0.9626
 7493TIP3   OH243969   4.312   4.625  15.831  0.0251 -0.4014  0.4949
 7493TIP3    H143970   4.230   4.668  15.808  0.3288 -0.4654 -0.7907
 7493TIP3    H243971   4.318   4.550  15.771  1.6455  0.3697 -0.3947
 7494TIP3   OH243972   0.974   0.548  12.246 -0.1183 -0.9715 -0.3772
 7494TIP3    H143973   1.030   0.599  12.305  1.0306 -0.2449 -2.0113
 7494TIP3    H243974   0.900   0.522  12.300 -0.2550  1.5911  0.8330
 7495TIP3   OH243975   2.268   6.056   5.688  0.0368  0.0169  0.0253
 7495TIP3    H143976   2.322   5.996   5.636  1.0697 -1.1707  2.3170
 7495TIP3    H243977   2.312   6.141   5.680  1.5342 -0.6471  0.7634
 7496TIP3   OH243978   3.104   5.995  16.685 -0.1949 -0.3705  0.4036
 7496TIP3    H143979   3.078   5.944  16.761 -1.0470  1.7003  1.5973
 7496TIP3    H243980   3.099   6.086  16.714 -0.7350  0.5286 -2.1781
 7497TIP3   OH243981   5.060   0.149   0.680 -0.4695 -0.2377  0.6697
 7497TIP3    H143982   5.044   0.234   0.720 -0.7751 -0.8955  2.0157
 7497TIP3    H243983   5.035   0.160   0.588 -0.9353  0.9901  0.9330
 7498TIP3   OH243984   4.567   3.565  16.932 -0.1781 -0.4675 -0.1567
 7498TIP3    H143985   4.481   3.602  16.914 -0.9845 -1.0535  2.1301
 7498TIP3    H243986   4.579   3.575  17.027  3.3811  1.8699 -0.6590
 7499TIP3   OH243987   3.527   3.940  17.174  0.3011 -0.3414  0.6053
 7499TIP3    H143988   3.441   3.956  17.213 -0.2862 -1.7635 -0.0362
 7499TIP3    H243989   3.530   3.997  17.097  0.6250  0.9340  1.5315
 7500TIP3   OH243990   4.237   6.519   0.725 -0.1815 -0.2604  0.3965
 7500TIP3    H143991   4.248   6.424   0.729 -1.3903 -0.3689  1.6827
 7500TIP3    H243992   4.325   6.553   0.711  0.1693 -1.5979 -0.9016
 7501TIP3   OH243993   2.304   0.508  10.963 -0.3881 -0.3992 -0.3824
 7501TIP3    H143994   2.378   0.448  10.968  1.8975  2.2196 -0.1238
 7501TIP3    H243995   2.253   0.490  11.042  0.3764 -1.7657 -0.1665
 7502TIP3   OH243996   4.614   2.757   4.729  0.1284 -0.0903  0.3928
 7502TIP3    H143997   4.667   2.800   4.662 -1.2832 -0.3202 -0.9309
 7502TIP3    H243998   4.658   2.674   4.745  0.0662 -0.3726 -0.8345
 7503TIP3   OH243999   3.396   1.008   2.147 -0.2531 -0.3558 -0.2825
 7503TIP3    H144000   3.316   1.032   2.102 -0.2860 -0.5618 -0.3344
 7503TIP3    H244001   3.378   1.027   2.239 -1.1221 -2.3392  0.0080
 7504TIP3   OH244002   1.700   0.504  12.247 -0.0630 -0.2440 -0.4660
 7504TIP3    H144003   1.643   0.445  12.296 -0.8812  0.0688 -1.0164
 7504TIP3    H244004   1.788   0.479  12.273 -0.3247 -2.3659 -1.3885
 7505TIP3   OH244005   0.870   0.894   0.243 -0.8264 -0.0536 -0.5032
 7505TIP3    H144006   0.871   0.804   0.212 -0.8504 -0.7193  1.2971
 7505TIP3    H244007   0.818   0.942   0.179 -0.4726 -1.2313 -1.6957
 7506TIP3   OH244008   5.681   1.975  12.646 -0.2202  0.0058  0.1458
 7506TIP3    H144009   5.614   1.915  12.679  2.0443 -1.2340  2.9212
 7506TIP3    H244010   5.692   2.040  12.716  1.4990  0.1302 -0.1923
 7507TIP3   OH244011   5.316   4.415   4.640  0.4516  0.1845 -0.3210
 7507TIP3    H144012   5.276   4.351   4.582  0.5526 -0.5731  0.4370
 7507TIP3    H244013   5.403   4.380   4.659  0.9164  1.0721 -0.7485
 7508TIP3   OH244014   3.461   5.615  11.124  0.3914  0.0980  0.1135
 7508TIP3    H144015   3.456   5.525  11.155  1.9911  0.3040  1.1055
 7508TIP3    H244016   3.523   5.612  11.051  0.4657  0.3921  0.1627
 7509TIP3   OH244017   6.454   5.572  15.743 -0.3588  0.3497 -0.8504
 7509TIP3    H144018   6.473   5.649  15.689 -2.6630  0.8146 -1.1051
 7509TIP3    H244019   6.539   5.530  15.756  0.7146  2.0064 -2.1212
 7510TIP3   OH244020   1.237   0.976  14.460  0.2002 -0.1780 -0.0750
 7510TIP3    H144021   1.275   0.892  14.485  1.1376  0.3924  0.5278
 7510TIP3    H244022   1.221   0.969  14.366  1.3406 -0.6447 -0.2565
 7511TIP3   OH244023   6.478   2.721   6.553  0.7712 -0.0180 -0.5047
 7511TIP3    H144024   6.448   2.794   6.606  0.3250  0.2668 -1.1318
 7511TIP3    H244025   6.402   2.662   6.548  0.7003  0.1199 -1.0987
 7512TIP3   OH244026   2.337   2.366   4.921 -0.1763  0.1877  0.4329
 7512TIP3    H144027   2.265   2.303   4.914  0.9081 -1.0111 -0.2739
 7512TIP3    H244028   2.380   2.362   4.836  1.4754 -0.0257  1.2495
 7513TIP3   OH244029   6.692   1.080   5.272 -0.1225 -0.0228 -0.3445
 7513TIP3    H144030   6.757   1.041   5.213 -0.0202 -2.2344  1.1221
 7513TIP3    H244031   6.743   1.115   5.344 -0.3647  1.1155 -0.7165
 7514TIP3   OH244032   1.699   1.468   5.429  0.3742 -0.4930  0.5748
 7514TIP3    H144033   1.777   1.421   5.399 -0.2697 -1.1988 -0.0629
 7514TIP3    H244034   1.640   1.466   5.354  0.1665  1.0162  0.6730
 7515TIP3   OH244035   5.440   0.712  12.465  0.4280  0.1459 -0.0519
 7515TIP3    H144036   5.456   0.683  12.375 -1.8341 -0.7403 -0.2302
 7515TIP3    H244037   5.387   0.791  12.455  0.7728  0.4603  0.5294
 7516TIP3   OH244038   6.720   2.163   2.271 -0.1764  0.5690 -0.2546
 7516TIP3    H144039   6.702   2.256   2.268  1.9594  1.0460  0.1827
 7516TIP3    H244040   6.746   2.140   2.182  1.6151  0.9629  0.1196
 7517TIP3   OH244041   1.272   3.566   1.658  0.1866  0.8500 -0.5069
 7517TIP3    H144042   1.241   3.475   1.668 -0.5493  0.9682 -1.4952
 7517TIP3    H244043   1.213   3.604   1.593  2.7607  0.9273 -2.9909
 7518TIP3   OH244044   3.919   5.877  12.230  0.7592  0.1826  0.3098
 7518TIP3    H144045   4.015   5.878  12.224  0.8201  3.8380  0.1133
 7518TIP3    H244046   3.897   5.953  12.284 -2.0449 -1.1604  1.2670
 7519TIP3   OH244047   6.477   6.790  13.041 -0.2433  0.4002 -0.0968
 7519TIP3    H144048   6.537   6.764  13.111  0.3746  0.1815 -0.6987
 7519TIP3    H244049   6.441   6.708  13.008  0.0831  0.4403 -0.5700
 7520TIP3   OH244050   6.144   5.752  14.880  0.2386 -0.2250  0.0666
 7520TIP3    H144051   6.182   5.777  14.964  0.5200  2.0808 -0.6470
 7520TIP3    H244052   6.095   5.673  14.898 -0.0625  0.4305  2.5002
 7521TIP3   OH244053   3.547   1.211   2.324 -0.1256 -0.0917  0.0885
 7521TIP3    H144054   3.477   1.274   2.344  0.4207  0.9495 -1.1269
 7521TIP3    H244055   3.588   1.246   2.245 -0.2617 -2.3904 -1.0735
 7522TIP3   OH244056   5.303   3.061  15.093 -0.2890 -0.3060 -0.0401
 7522TIP3    H144057   5.287   3.056  14.999  0.6846  1.0969 -0.3060
 7522TIP3    H244058   5.357   2.984  15.112 -0.8261 -0.8172 -0.5350
 7523TIP3   OH244059   2.749   0.161   4.571  0.6522 -0.7255  0.4515
 7523TIP3    H144060   2.790   0.122   4.494  1.3704 -0.7023  0.8097
 7523TIP3    H244061   2.768   0.100   4.642  0.7704 -0.3016  0.7864
 7524TIP3   OH244062   2.421   1.302   3.364 -0.1371 -0.1656 -0.6345
 7524TIP3    H144063   2.404   1.224   3.310 -0.6184 -0.4194 -0.1364
 7524TIP3    H244064   2.482   1.272   3.431  1.0836  0.3483 -1.4817
 7525TIP3   OH244065   1.982   0.321   1.816  0.4070 -0.2902  0.2194
 7525TIP3    H144066   2.016   0.237   1.785  0.7218 -0.3621  0.7409
 7525TIP3    H244067   1.925   0.298   1.889  1.2336  0.0043  0.9758
 7526TIP3   OH244068   4.089   3.163   0.617 -0.3363 -0.5739  0.1240
 7526TIP3    H144069   4.164   3.218   0.595  0.9504 -2.3883 -0.2997
 7526TIP3    H244070   4.118   3.114   0.694 -0.8739 -1.6625 -0.3548
 7527TIP3   OH244071   5.245   5.148   4.618 -0.4578  0.0249 -0.5076
 7527TIP3    H144072   5.171   5.162   4.677 -0.3681  0.5739 -0.5156
 7527TIP3    H244073   5.228   5.063   4.578  0.3243 -1.1640  1.5310
 7528TIP3   OH244074   1.312   6.632  12.896  0.0940  0.7320  0.3375
 7528TIP3    H144075   1.403   6.615  12.922 -0.0009 -0.7738 -0.2441
 7528TIP3    H244076   1.276   6.682  12.970  1.1355  0.5833  0.9815
 7529TIP3   OH244077   1.761   2.827   4.445 -0.1545 -0.7051  0.1226
 7529TIP3    H144078   1.739   2.744   4.403  0.8977 -0.2146 -1.4774
 7529TIP3    H244079   1.723   2.820   4.533 -3.6411 -1.2631 -1.2438
 7530TIP3   OH244080   5.008   0.777  15.263  0.5406 -0.1885  0.2375
 7530TIP3    H144081   4.958   0.858  15.252  1.7215  0.4843 -0.4201
 7530TIP3    H244082   4.976   0.741  15.346  1.0649  1.7806  1.3831
 7531TIP3   OH244083   6.121   4.358  16.572  0.2970 -0.0069  0.4807
 7531TIP3    H144084   6.057   4.368  16.501 -0.1701 -1.3559  0.6723
 7531TIP3    H244085   6.193   4.308  16.533  0.7726  0.6244  0.5406
 7532TIP3   OH244086   2.863   5.826  12.587 -0.4485 -0.3755 -0.1959
 7532TIP3    H144087   2.783   5.776  12.603 -1.5523  1.1199 -0.7490
 7532TIP3    H244088   2.835   5.918  12.593  1.2172  0.1832 -0.4737
 7533TIP3   OH244089   5.897   0.987   5.977  0.4982 -0.1204  0.3306
 7533TIP3    H144090   5.951   0.908   5.977 -1.3574 -1.4739 -0.9142
 7533TIP3    H244091   5.896   1.014   5.885  1.0037  1.3284  0.7230
 7534TIP3   OH244092   6.717   6.362  15.753 -0.0014  0.1249 -0.2620
 7534TIP3    H144093   6.786   6.385  15.691 -0.6635  1.0490 -0.6839
 7534TIP3    H244094   6.756   6.376  15.839  0.5068  0.1028 -0.4848
 7535TIP3   OH244095   2.737   3.545   5.904  0.2147 -0.4600 -0.0368
 7535TIP3    H144096   2.663   3.605   5.904  0.4677 -0.0983 -1.6843
 7535TIP3    H244097   2.765   3.540   5.812  0.9101 -2.2343  0.2183
 7536TIP3   OH244098   1.495   3.672  15.247  0.6085  0.2766 -0.1706
 7536TIP3    H144099   1.422   3.664  15.309 -1.2052  2.7418 -1.7882
 7536TIP3    H244100   1.567   3.706  15.300  0.3446 -1.3169  1.2968
 7537TIP3   OH244101   2.025   5.231  12.079 -0.4672  0.4522  0.2015
 7537TIP3    H144102   2.051   5.318  12.109 -1.0271  0.6161  0.2354
 7537TIP3    H244103   1.952   5.207  12.136  0.3661 -0.5068  0.8999
 7538TIP3   OH244104   1.926   0.238  16.539  0.5546  0.1272  0.1076
 7538TIP3    H144105   2.001   0.180  16.521  0.1656 -0.2510 -0.3280
 7538TIP3    H244106   1.951   0.285  16.618  1.6266  0.6440 -0.5131
 7539TIP3   OH244107   2.537   2.039   1.075  0.8498  0.9527  0.1438
 7539TIP3    H144108   2.578   2.124   1.061 -0.2540  1.2646 -1.4680
 7539TIP3    H244109   2.444   2.058   1.085  0.5401 -0.0617 -0.5367
 7540TIP3   OH244110   4.620   2.233  17.047  0.1258 -0.2096 -0.1020
 7540TIP3    H144111   4.705   2.266  17.020  0.4713  1.0821  2.3248
 7540TIP3    H244112   4.639   2.167  17.114 -0.7664 -0.2254  0.1528
 7541TIP3   OH244113   0.564   5.169   1.396 -0.6810 -0.0298  0.3258
 7541TIP3    H144114   0.614   5.223   1.335 -0.3464  0.3244  0.9090
 7541TIP3    H244115   0.472   5.185   1.372 -0.6033  1.1048  0.7389
 7542TIP3   OH244116   4.133   3.899   1.356  0.0735  0.5023  0.2467
 7542TIP3    H144117   4.221   3.903   1.393  0.4126 -2.8396  0.1085
 7542TIP3    H244118   4.146   3.868   1.267 -1.2358 -1.4849  0.6810
 7543TIP3   OH244119   4.321   2.789   5.585  0.0267  0.2269  0.0087
 7543TIP3    H144120   4.345   2.837   5.505  1.7406 -0.9773 -0.2629
 7543TIP3    H244121   4.251   2.731   5.557  1.7637 -1.4395 -1.1604
 7544TIP3   OH244122   2.981   0.877   4.533  0.1441  0.5540  0.2907
 7544TIP3    H144123   2.992   0.920   4.448  1.4127 -0.9130 -0.3283
 7544TIP3    H244124   2.942   0.792   4.513  0.9741 -0.0438  1.1032
 7545TIP3   OH244125   4.840   0.421  11.135  0.4448 -0.2165  0.2888
 7545TIP3    H144126   4.905   0.394  11.070 -0.1563  0.0356 -0.4311
 7545TIP3    H244127   4.766   0.363  11.120  1.1951 -1.8690  2.4297
 7546TIP3   OH244128   5.980   0.718  11.149 -0.3618 -0.3436 -0.0899
 7546TIP3    H144129   6.069   0.688  11.166  0.4624  2.0526  0.2085
 7546TIP3    H244130   5.986   0.814  11.149 -2.8501 -0.1071 -0.5775
 7547TIP3   OH244131   3.584   6.579  16.299  0.2312  0.1761  0.3703
 7547TIP3    H144132   3.613   6.525  16.226  0.2512 -1.3061  1.4221
 7547TIP3    H244133   3.646   6.652  16.301  0.8265 -0.2876 -0.4757
 7548TIP3   OH244134   1.578   6.052   5.312  0.2054 -0.3332  0.3692
 7548TIP3    H144135   1.637   6.045   5.387 -0.2232  0.5775  0.8160
 7548TIP3    H244136   1.618   6.119   5.256  1.4125 -2.1747 -1.1004
 7549TIP3   OH244137   6.217   2.967   0.042  0.0204  0.2559 -0.0207
 7549TIP3    H144138   6.299   2.922   0.023  0.1489  0.5777 -0.2447
 7549TIP3    H244139   6.166   2.959  -0.039 -0.8372 -1.3301  0.6173
 7550TIP3   OH244140   5.146   3.021  11.446  0.0782  0.0382  1.1273
 7550TIP3    H144141   5.193   3.081  11.388 -0.0040 -0.8918  0.0584
 7550TIP3    H244142   5.181   3.040  11.533 -1.0664  2.7132  1.0965
 7551TIP3   OH244143   5.148   4.896   3.990  0.5271 -0.1641 -0.2987
 7551TIP3    H144144   5.207   4.838   3.941  0.2987 -1.7603  1.2361
 7551TIP3    H244145   5.068   4.897   3.938  1.2740  0.6324 -1.5024
 7552TIP3   OH244146   6.084   4.762  11.572 -0.6189  0.6066 -0.1450
 7552TIP3    H144147   5.990   4.772  11.582 -0.6161  0.5784 -0.0896
 7552TIP3    H244148   6.119   4.850  11.587 -0.8157  1.1172 -2.3576
 7553TIP3   OH244149   4.517   4.249  11.467 -0.4812  0.1300  0.3558
 7553TIP3    H144150   4.574   4.175  11.447  0.4941  1.0060 -0.2668
 7553TIP3    H244151   4.560   4.293  11.540 -0.4519  0.7011 -0.0004
 7554TIP3   OH244152   5.542   4.147   2.776  0.2932  0.3981  0.8187
 7554TIP3    H144153   5.480   4.207   2.816  0.9863 -0.0993  2.7342
 7554TIP3    H244154   5.487   4.082   2.732 -0.4904  1.0958  0.7339
 7555TIP3   OH244155   6.147   0.407  12.316  0.8223  0.0568  0.0954
 7555TIP3    H144156   6.132   0.344  12.386  0.2033 -0.0083 -0.0918
 7555TIP3    H244157   6.234   0.443  12.334  1.8616 -1.9231 -0.6164
 7556TIP3   OH244158   3.448   6.539   0.052  0.5900 -0.1412  0.3799
 7556TIP3    H144159   3.533   6.498   0.067  0.7331 -0.8157 -1.8873
 7556TIP3    H244160   3.403   6.479  -0.007 -0.5050  1.3631 -0.3780
 7557TIP3   OH244161   2.795   2.633   3.932  0.1996 -0.2883 -0.4427
 7557TIP3    H144162   2.801   2.559   3.992 -2.1497 -0.1276  0.0684
 7557TIP3    H244163   2.792   2.593   3.845 -1.4451 -0.8867 -0.1550
 7558TIP3   OH244164   0.360   5.177  11.991  0.2133  0.2645  0.3496
 7558TIP3    H144165   0.419   5.224  12.050 -0.3840  2.1075 -0.4602
 7558TIP3    H244166   0.322   5.245  11.935 -0.2132 -1.2772 -1.3146
 7559TIP3   OH244167   5.819   0.066  16.475  0.2530  0.1560  0.8443
 7559TIP3    H144168   5.772  -0.015  16.491 -2.8231  1.0989 -2.2069
 7559TIP3    H244169   5.892   0.041  16.419  1.2335 -0.8367  2.4941
 7560TIP3   OH244170   2.572   0.403   4.406  0.5126 -0.5225  0.4435
 7560TIP3    H144171   2.507   0.471   4.423 -0.1441 -1.0620  0.1370
 7560TIP3    H244172   2.557   0.377   4.315  1.1927 -0.6192  0.3528
 7561TIP3   OH244173   5.346   4.717   0.865 -0.3008 -0.2247 -0.0446
 7561TIP3    H144174   5.325   4.784   0.931 -1.7389 -0.7130  0.0340
 7561TIP3    H244175   5.310   4.636   0.901 -0.0260 -0.7303 -0.8797
 7562TIP3   OH244176   0.833   0.045  16.136 -0.1160 -0.3970  0.7254
 7562TIP3    H144177   0.798  -0.011  16.204  1.9585 -1.7066  0.7908
 7562TIP3    H244178   0.878  -0.014  16.076 -0.3581  0.9102 -0.8417
 7563TIP3   OH244179   4.313   5.446   0.811  0.5319  0.3820  0.1680
 7563TIP3    H144180   4.333   5.396   0.732  2.1367  1.9172 -0.4677
 7563TIP3    H244181   4.230   5.409   0.843  0.8836 -1.6203 -1.0714
 7564TIP3   OH244182   5.506   3.029   0.510  0.4423  0.1163  0.5404
 7564TIP3    H144183   5.495   3.080   0.590 -0.3122 -0.6211  0.9154
 7564TIP3    H244184   5.500   2.938   0.538 -1.9842 -0.1628 -0.6074
 7565TIP3   OH244185   4.056   2.841   2.039 -0.4751  0.1877  0.2196
 7565TIP3    H144186   4.059   2.831   1.944  0.0955  1.2551  0.1052
 7565TIP3    H244187   4.085   2.931   2.055  0.4339 -0.2855  1.4613
 7566TIP3   OH244188   3.817   3.829  12.117 -0.3879  0.1942 -0.0689
 7566TIP3    H144189   3.782   3.822  12.206 -0.5312 -0.4732 -0.1686
 7566TIP3    H244190   3.901   3.874  12.127 -1.3505  2.0012  0.1550
 7567TIP3   OH244191   4.610   3.459   0.808  0.3022 -0.0450 -0.0527
 7567TIP3    H144192   4.532   3.440   0.755 -0.6654  0.7150  1.0506
 7567TIP3    H244193   4.606   3.395   0.879 -0.3088  1.0917  0.9773
 7568TIP3   OH244194   3.752   4.887  14.175  0.5733  0.0379 -0.0669
 7568TIP3    H144195   3.693   4.818  14.206  0.5769 -0.2039 -0.5767
 7568TIP3    H244196   3.839   4.858  14.202  0.5431 -0.0225 -0.0351
 7569TIP3   OH244197   6.396   1.648  14.269 -0.5212  0.3122  0.0107
 7569TIP3    H144198   6.323   1.710  14.269 -1.0142 -0.2566 -0.3696
 7569TIP3    H244199   6.354   1.562  14.267  0.1583 -0.0268  0.2510
 7570TIP3   OH244200   4.410   1.985   0.442  0.7028  0.0884  0.0743
 7570TIP3    H144201   4.451   1.946   0.364  0.4776 -1.6315  0.7681
 7570TIP3    H244202   4.433   2.077   0.437  2.1311 -0.2859 -1.1450
 7571TIP3   OH244203   6.639   5.340  16.604  0.1503  0.4928  0.7913
 7571TIP3    H144204   6.572   5.361  16.539 -0.4183 -2.1701  0.3629
 7571TIP3    H244205   6.720   5.378  16.570 -0.9545  3.2828  1.0259
 7572TIP3   OH244206   2.863   3.399  15.316  0.2530  0.6899  0.2834
 7572TIP3    H144207   2.773   3.380  15.290  1.0062 -1.2397 -1.1644
 7572TIP3    H244208   2.860   3.490  15.347 -1.8618  1.2752 -1.3527
 7573TIP3   OH244209   6.473   3.135   4.370  0.0676 -0.1355  0.0317
 7573TIP3    H144210   6.502   3.085   4.446 -0.2593 -2.3292 -1.1939
 7573TIP3    H244211   6.526   3.214   4.371  0.1074 -0.1318  2.4829
 7574TIP3   OH244212   1.602   5.104   4.598  0.3336  0.5108 -0.7864
 7574TIP3    H144213   1.689   5.122   4.561  0.6087 -1.1703 -1.0282
 7574TIP3    H244214   1.620   5.051   4.676 -0.4650  0.6700 -0.4870
 7575TIP3   OH244215   5.183   3.598  13.782 -0.0604 -0.4261 -0.4419
 7575TIP3    H144216   5.156   3.524  13.727 -0.4471 -0.3528 -0.3514
 7575TIP3    H244217   5.134   3.672  13.749  0.6246 -0.1169 -0.7885
 7576TIP3   OH244218   4.458   0.496   4.449  0.1114  0.1080 -0.5099
 7576TIP3    H144219   4.363   0.493   4.434  0.4520 -1.8138 -2.7762
 7576TIP3    H244220   4.468   0.474   4.542 -1.6335 -0.3254 -0.3865
 7577TIP3   OH244221   4.247   4.117  12.465 -0.0829 -0.1240 -0.0188
 7577TIP3    H144222   4.155   4.113  12.439 -0.1970  0.2000  0.3201
 7577TIP3    H244223   4.247   4.174  12.542  0.3125 -0.6448  0.3685
 7578TIP3   OH244224   5.469   1.588   1.082 -0.3946 -0.3926 -0.6516
 7578TIP3    H144225   5.418   1.512   1.054  1.2816 -1.6703 -0.3811
 7578TIP3    H244226   5.522   1.610   1.005 -0.6979  0.3925 -0.6500
 7579TIP3   OH244227   4.386   2.572   0.865  0.1595 -0.0008 -0.6905
 7579TIP3    H144228   4.331   2.591   0.941  2.0985  0.6874  0.6086
 7579TIP3    H244229   4.393   2.476   0.865 -0.3470 -0.0453 -0.3758
 7580TIP3   OH244230   0.623   2.777   3.228  0.3804  0.0699 -0.2722
 7580TIP3    H144231   0.535   2.814   3.215  0.1735 -0.7830 -1.5721
 7580TIP3    H244232   0.671   2.802   3.149  1.0983 -0.0283  0.1278
 7581TIP3   OH244233   2.657   3.269   5.607 -0.1534  0.1871  0.3093
 7581TIP3    H144234   2.681   3.361   5.624  1.9556 -0.3496  0.5340
 7581TIP3    H244235   2.630   3.268   5.515 -0.9325  1.1576  0.5118
 7582TIP3   OH244236   6.554   5.819  12.276 -0.4010  0.0569 -0.4524
 7582TIP3    H144237   6.562   5.734  12.320  0.0656 -0.4119 -1.4259
 7582TIP3    H244238   6.538   5.798  12.184  0.5230  1.0158 -0.8522
 7583TIP3   OH244239   4.549   5.631  10.796 -0.1350 -0.2009  0.1723
 7583TIP3    H144240   4.606   5.699  10.758  0.9402 -1.7457 -1.1380
 7583TIP3    H244241   4.460   5.659  10.775  0.3197  0.5382 -0.8380
 7584TIP3   OH244242   4.060   4.281  12.150  0.3766 -0.1387  0.1899
 7584TIP3    H144243   4.081   4.252  12.239 -0.2989 -0.8518  0.1287
 7584TIP3    H244244   4.056   4.377  12.157  3.1602  0.0612  0.2867
 7585TIP3   OH244245   6.543   4.388   0.356  0.1140  0.4495  0.5964
 7585TIP3    H144246   6.562   4.316   0.416 -1.8307  0.2611  1.0698
 7585TIP3    H244247   6.468   4.432   0.396 -0.6903  0.8382 -1.2649
 7586TIP3   OH244248   4.356   4.889   1.561  0.6325  0.1941 -0.2183
 7586TIP3    H144249   4.443   4.870   1.596 -0.1452  1.0641  2.4307
 7586TIP3    H244250   4.309   4.806   1.567  0.8102  0.0972 -0.1661
 7587TIP3   OH244251   4.197   4.927  14.837 -0.1995 -0.0106  0.1490
 7587TIP3    H144252   4.167   4.848  14.882 -1.4408 -1.0497 -2.3057
 7587TIP3    H244253   4.118   4.964  14.798  0.5533  1.7973  0.2325
 7588TIP3   OH244254   0.778   0.469  15.406 -0.0124 -0.0470  0.6324
 7588TIP3    H144255   0.750   0.384  15.370  0.4993 -0.0424  0.2072
 7588TIP3    H244256   0.790   0.524  15.329  1.9327 -0.2828  0.7160
 7589TIP3   OH244257   4.402   5.578   1.063 -0.5253  0.3963  0.1594
 7589TIP3    H144258   4.386   5.567   0.969 -0.0355  0.3580  0.0744
 7589TIP3    H244259   4.420   5.489   1.095 -0.7989  0.3958  0.3081
 7590TIP3   OH244260   4.595   3.223   5.770 -0.7317 -0.0090  0.0523
 7590TIP3    H144261   4.603   3.129   5.789 -2.1733 -0.2571 -0.4401
 7590TIP3    H244262   4.537   3.256   5.839 -2.2006  0.0103 -1.1439
 7591TIP3   OH244263   5.884   3.788  17.270 -0.3654  0.8939  0.2005
 7591TIP3    H144264   5.935   3.720  17.314 -0.8572 -1.2636 -2.3543
 7591TIP3    H244265   5.808   3.801  17.327 -1.0436 -1.8800  0.0600
 7592TIP3   OH244266   1.290   1.312  13.797 -0.1037 -0.0750  0.4264
 7592TIP3    H144267   1.276   1.401  13.764  1.4605  1.0530  2.5466
 7592TIP3    H244268   1.219   1.260  13.758 -1.4868  2.2251 -0.3082
 7593TIP3   OH244269   5.721   1.461   1.557  0.1779 -0.4198 -0.0085
 7593TIP3    H144270   5.762   1.499   1.634 -0.2784  0.9643 -0.4180
 7593TIP3    H244271   5.681   1.380   1.589  0.2305 -0.0093  1.1437
 7594TIP3   OH244272   0.415   3.631   1.950  0.3944  0.6660 -0.4094
 7594TIP3    H144273   0.504   3.650   1.919  0.4310 -1.4087 -1.7393
 7594TIP3    H244274   0.384   3.561   1.894 -1.3911  0.0134  1.2676
 7595TIP3   OH244275   4.963   5.084  11.600  0.2383 -0.0983 -0.1521
 7595TIP3    H144276   5.041   5.134  11.577 -0.1412  0.6607  0.1562
 7595TIP3    H244277   4.992   4.993  11.604  1.4495  0.3140  1.3864
 7596TIP3   OH244278   4.270   0.580   4.154 -0.5981 -0.3344  0.0793
 7596TIP3    H144279   4.266   0.661   4.103  0.6664 -0.6391 -0.5369
 7596TIP3    H244280   4.257   0.608   4.244  0.4544  0.6481 -0.0474
 7597TIP3   OH244281   5.201   2.219  12.924  0.3353  0.1293 -0.2471
 7597TIP3    H144282   5.284   2.242  12.966 -0.2448  2.3186 -0.1813
 7597TIP3    H244283   5.195   2.278  12.849 -1.9436  1.3693  0.7771
 7598TIP3   OH244284   2.002   4.578   6.332  0.1001  0.3486 -0.3981
 7598TIP3    H144285   2.043   4.609   6.412 -2.3501 -0.6462  1.3714
 7598TIP3    H244286   2.011   4.651   6.270  0.5133  1.8397  1.3520
 7599TIP3   OH244287   3.652   2.102   2.496  0.8943 -0.1637 -0.3030
 7599TIP3    H144288   3.589   2.154   2.546  1.6879  1.1101 -0.5604
 7599TIP3    H244289   3.601   2.059   2.429  0.1131 -0.1997  0.3017
 7600TIP3   OH244290   5.742   6.097   1.704  0.7387  0.3177  0.1040
 7600TIP3    H144291   5.698   6.016   1.728 -0.8398  1.2319  0.4508
 7600TIP3    H244292   5.742   6.098   1.609 -0.9385  0.7558  0.0870
 7601TIP3   OH244293   0.676   5.775   5.813 -0.0244  0.0878  0.2213
 7601TIP3    H144294   0.582   5.760   5.800 -0.1398  0.2800  0.7822
 7601TIP3    H244295   0.703   5.704   5.871  0.0448  0.3771  0.5466
 7602TIP3   OH244296   5.527   5.410   1.316  0.2579  0.3483 -0.1937
 7602TIP3    H144297   5.612   5.367   1.317 -0.0226 -0.2205 -0.3289
 7602TIP3    H244298   5.496   5.405   1.406  0.0170 -0.1690 -0.2996
 7603TIP3   OH244299   2.601   4.592   0.730 -0.1077 -0.4352  0.1592
 7603TIP3    H144300   2.605   4.652   0.805 -1.6333 -0.2713  0.1361
 7603TIP3    H244301   2.672   4.621   0.672 -0.7793  1.3285  0.1739
 7604TIP3   OH244302   1.659   1.592   0.299  0.1117 -0.2585  0.6041
 7604TIP3    H144303   1.695   1.540   0.228 -1.6384 -1.9444  0.8460
 7604TIP3    H244304   1.634   1.527   0.365 -1.4193  0.9505  1.2793
 7605TIP3   OH244305   4.008   2.958  15.243 -0.2400 -0.2647 -0.1335
 7605TIP3    H144306   3.955   2.968  15.323  0.5285  0.6931  0.2822
 7605TIP3    H244307   3.965   2.888  15.194 -3.3943  2.0478 -1.0172
 7606TIP3   OH244308   4.038   0.687  16.216 -0.2726  0.1700  0.4590
 7606TIP3    H144309   3.999   0.759  16.166 -2.2545 -0.5893  0.8113
 7606TIP3    H244310   4.047   0.722  16.305  1.4610  0.8838  0.0412
 7607TIP3   OH244311   4.668   1.692   2.618 -0.5163 -0.0414 -0.4364
 7607TIP3    H144312   4.753   1.706   2.659 -0.6725  1.5487 -0.5824
 7607TIP3    H244313   4.611   1.666   2.690 -0.0960 -0.3221 -0.1982
 7608TIP3   OH244314   0.364   6.714  15.353 -0.5817  0.1461 -0.4961
 7608TIP3    H144315   0.374   6.704  15.259  0.3947 -1.2108 -0.2790
 7608TIP3    H244316   0.398   6.801  15.372 -1.3242  0.6621 -1.4528
 7609TIP3   OH244317   3.055   5.110   4.940  0.1168 -0.1425  0.4712
 7609TIP3    H144318   3.108   5.178   4.983 -0.6104  0.1374  0.9363
 7609TIP3    H244319   3.120   5.046   4.910  1.0413  1.6178 -1.6539
 7610TIP3   OH244320   2.960   0.360   5.731 -0.2447 -0.1821  0.4933
 7610TIP3    H144321   2.865   0.349   5.739 -0.4774  0.6314 -0.8364
 7610TIP3    H244322   2.991   0.279   5.691 -0.7023  0.3800 -1.0623
 7611TIP3   OH244323   0.731   2.816   5.914 -0.3087 -0.3818  0.0072
 7611TIP3    H144324   0.646   2.831   5.956 -1.3116  0.0759 -2.0768
 7611TIP3    H244325   0.769   2.742   5.962 -2.5241 -1.5451  0.0933
 7612TIP3   OH244326   4.967   0.913   5.807  0.5005 -0.1133 -0.1618
 7612TIP3    H144327   5.005   0.843   5.859  0.0037 -0.3901 -0.1595
 7612TIP3    H244328   5.040   0.971   5.786  1.0041 -0.8771 -0.5591
 7613TIP3   OH244329   6.282   1.420  11.218 -0.6310 -0.2908  0.0816
 7613TIP3    H144330   6.187   1.434  11.217 -0.9507 -2.2822 -0.5970
 7613TIP3    H244331   6.311   1.466  11.297 -2.3913 -0.9189  1.1657
 7614TIP3   OH244332   6.499   5.728   2.239  0.2285 -0.2411  0.0290
 7614TIP3    H144333   6.503   5.802   2.179  0.0717  1.5737  2.1366
 7614TIP3    H244334   6.586   5.723   2.278 -0.4937  0.6547  1.8879
 7615TIP3   OH244335   0.471   1.974  13.928 -0.1573  0.0136  0.3365
 7615TIP3    H144336   0.393   1.919  13.942  0.6866 -0.7796  2.4505
 7615TIP3    H244337   0.481   1.979  13.833 -1.5950 -1.6011  0.0484
 7616TIP3   OH244338   5.295   4.516  13.208 -0.1751 -0.0033 -0.2629
 7616TIP3    H144339   5.247   4.597  13.192  0.3149  0.3345 -0.0420
 7616TIP3    H244340   5.382   4.532  13.172  1.1465  0.9772  2.9763
 7617TIP3   OH244341   2.401   4.167   1.162  0.5831  0.0495  0.3825
 7617TIP3    H144342   2.337   4.161   1.092 -1.7253 -1.6110  2.4543
 7617TIP3    H244343   2.471   4.107   1.136  1.9620  2.5775 -2.3581
 7618TIP3   OH244344   1.457   0.795  14.149  0.1445  0.4627  0.2192
 7618TIP3    H144345   1.474   0.880  14.108  1.7759 -0.9162 -2.2077
 7618TIP3    H244346   1.542   0.751  14.148 -0.8560 -1.5777  0.5410
 7619TIP3   OH244347   1.885   6.669  11.397 -0.0142  0.4451  0.0578
 7619TIP3    H144348   1.973   6.705  11.381  0.4580 -0.8016 -0.2904
 7619TIP3    H244349   1.829   6.746  11.403  1.1995  1.3070  0.9339
 7620TIP3   OH244350   0.908   6.272  11.834  0.3496  0.2589  0.1787
 7620TIP3    H144351   0.883   6.243  11.747 -1.5244 -1.2744  1.1307
 7620TIP3    H244352   0.882   6.200  11.892 -1.7443  2.5452  2.3635
 7621TIP3   OH244353   0.008   3.511   2.956 -0.1370 -0.2559  0.2571
 7621TIP3    H144354   0.025   3.602   2.982  3.2049 -1.3106  2.4441
 7621TIP3    H244355  -0.014   3.466   3.037 -0.6363 -1.6371 -0.6059
 7622TIP3   OH244356   2.717   4.472  15.175 -0.2200 -0.6009 -0.2057
 7622TIP3    H144357   2.782   4.403  15.179  0.8248  0.1990 -2.0455
 7622TIP3    H244358   2.661   4.448  15.101  0.0142  0.3539 -0.7162
 7623TIP3   OH244359   3.590   2.729  16.165 -0.0359  0.2237 -0.0202
 7623TIP3    H144360   3.644   2.685  16.100  1.2805  0.8482  0.6033
 7623TIP3    H244361   3.526   2.663  16.192  0.0538 -0.3587 -1.1797
 7624TIP3   OH244362   6.462   4.243   0.756 -0.1376 -0.5609  0.3671
 7624TIP3    H144363   6.542   4.199   0.729 -0.5349 -0.5631 -0.8550
 7624TIP3    H244364   6.462   4.326   0.708 -0.0409  0.2042  1.6524
 7625TIP3   OH244365   5.900   0.913   2.008  0.2225  0.0867 -0.5942
 7625TIP3    H144366   5.972   0.859   2.042 -0.4845 -0.6728 -0.2812
 7625TIP3    H244367   5.846   0.852   1.958 -1.0123  0.3231  0.4046
 7626TIP3   OH244368   3.020   3.041  11.129  0.4700  0.1816  0.3061
 7626TIP3    H144369   3.099   3.095  11.123  1.4637 -1.3422 -1.2382
 7626TIP3    H244370   2.966   3.071  11.056  0.9899 -0.7795 -0.5069
 7627TIP3   OH244371   6.399   6.048  11.690 -0.1762 -0.1898 -0.5441
 7627TIP3    H144372   6.472   6.074  11.746 -0.5233 -2.2023  0.9351
 7627TIP3    H244373   6.406   6.106  11.613  1.8518  0.8911  0.3825
 7628TIP3   OH244374   6.460   2.263   1.916  0.0784  0.0749  0.0813
 7628TIP3    H144375   6.365   2.277   1.921  0.0256 -0.2606  0.1091
 7628TIP3    H244376   6.468   2.169   1.899  0.4185 -0.0036  0.6573
 7629TIP3   OH244377   2.672   5.781  14.773  0.1935 -0.2955 -0.2431
 7629TIP3    H144378   2.696   5.852  14.831 -0.3894  0.0291 -0.3944
 7629TIP3    H244379   2.755   5.754  14.732  0.2437  1.1501 -1.1477
 7630TIP3   OH244380   2.374   5.154  10.489 -0.2008  0.2289 -0.1749
 7630TIP3    H144381   2.409   5.109  10.413 -1.6725 -2.5662  0.6550
 7630TIP3    H244382   2.339   5.236  10.455 -0.0901 -0.5701 -2.3478
 7631TIP3   OH244383   1.157   4.152  12.473 -0.0861  0.1840 -0.3390
 7631TIP3    H144384   1.068   4.166  12.440 -0.0985  1.0771  0.0592
 7631TIP3    H244385   1.144   4.129  12.565  0.1024  0.4939 -0.2346
 7632TIP3   OH244386   3.550   4.975  15.948  0.6941  0.0393  0.3212
 7632TIP3    H144387   3.507   4.910  16.003  0.5617 -0.6792 -0.6079
 7632TIP3    H244388   3.644   4.959  15.961  0.6825 -1.2771 -0.9329
 7633TIP3   OH244389   5.430   1.349  12.116 -0.4488 -0.3827  0.2628
 7633TIP3    H144390   5.523   1.360  12.135  0.3265 -1.2703 -2.5978
 7633TIP3    H244391   5.391   1.432  12.142  1.4915  0.7807 -0.3374
 7634TIP3   OH244392   5.471   2.228  16.551 -0.4312  0.6739 -0.2388
 7634TIP3    H144393   5.547   2.173  16.566  0.3858  1.2144 -2.1006
 7634TIP3    H244394   5.416   2.177  16.490 -1.3916  0.4539  0.7770
 7635TIP3   OH244395   1.550   2.773   2.616 -0.3210  0.1481 -0.0497
 7635TIP3    H144396   1.588   2.838   2.676 -0.6060  0.8246 -0.5944
 7635TIP3    H244397   1.624   2.718   2.591 -0.5246 -1.5681  2.6150
 7636TIP3   OH244398   4.719   0.256   4.635 -0.8660  0.3384  0.2161
 7636TIP3    H144399   4.794   0.288   4.586  0.1349  1.7337  2.4685
 7636TIP3    H244400   4.682   0.335   4.675 -2.6610 -0.5213  0.3318
 7637TIP3   OH244401   6.281   4.350   4.241 -0.3321  0.0916  0.1116
 7637TIP3    H144402   6.341   4.375   4.170  0.9936 -0.7672  0.8880
 7637TIP3    H244403   6.316   4.395   4.318  0.2501 -1.6368  0.8876
 7638TIP3   OH244404   2.740   2.504   0.372  0.1825 -0.1322  0.0187
 7638TIP3    H144405   2.688   2.426   0.392 -0.0750  0.0258 -0.0293
 7638TIP3    H244406   2.792   2.480   0.296  0.2749 -0.3339  0.1438
 7639TIP3   OH244407   2.464   5.243   0.669  0.2605 -0.2435 -0.0695
 7639TIP3    H144408   2.369   5.240   0.681  0.3515  0.0190  0.8370
 7639TIP3    H244409   2.482   5.333   0.642  0.5177  0.6975  2.8170
 7640TIP3   OH244410   4.516   5.696  10.504  0.4855  0.1117  0.3614
 7640TIP3    H144411   4.427   5.727  10.520 -0.5432 -2.0768 -0.6945
 7640TIP3    H244412   4.572   5.758  10.551 -1.4831  2.3095 -0.0165
 7641TIP3   OH244413   6.697   0.219  13.817 -0.0177  0.6314  0.3713
 7641TIP3    H144414   6.673   0.310  13.797  0.8000  0.7090 -0.3414
 7641TIP3    H244415   6.787   0.225  13.850  0.4050 -0.0031 -0.6210
 7642TIP3   OH244416   2.088   6.576   3.244 -0.0789  0.3125  0.0728
 7642TIP3    H144417   2.033   6.650   3.267 -1.3410  0.5442 -3.1085
 7642TIP3    H244418   2.176   6.613   3.232 -0.5725  1.2282 -0.8902
 7643TIP3   OH244419   5.919   1.112   0.397 -0.2762 -0.3118  0.1570
 7643TIP3    H144420   5.953   1.027   0.425  0.5588  0.4145  1.4567
 7643TIP3    H244421   5.855   1.091   0.329  2.6305 -1.7548 -2.4005
 7644TIP3   OH244422   2.816   5.554  13.612 -0.2143  0.2144 -0.3387
 7644TIP3    H144423   2.788   5.465  13.590 -1.2919  0.6026 -0.5538
 7644TIP3    H244424   2.773   5.610  13.548  1.8330  0.7752 -1.3354
 7645TIP3   OH244425   1.262   1.042   4.461  0.1453  0.1571  0.1121
 7645TIP3    H144426   1.181   1.085   4.488  1.5791  1.0047  3.5691
 7645TIP3    H244427   1.245   0.949   4.476 -0.2133  0.3139  0.7191
 7646TIP3   OH244428   1.798   4.721   1.702 -0.0750 -0.0679 -0.0964
 7646TIP3    H144429   1.739   4.716   1.777 -0.3958 -0.6174 -0.3734
 7646TIP3    H244430   1.816   4.814   1.692 -3.8580  0.6505 -2.2088
 7647TIP3   OH244431   5.299   6.781   3.539  0.1077  0.3421  0.2265
 7647TIP3    H144432   5.320   6.839   3.466 -1.4033 -0.8900 -1.2627
 7647TIP3    H244433   5.204   6.785   3.547  0.2385  0.5250  2.2456
 7648TIP3   OH244434   6.331   4.512   0.489 -0.2960 -0.3207 -0.6304
 7648TIP3    H144435   6.357   4.595   0.451  1.2760 -0.7685 -0.6132
 7648TIP3    H244436   6.269   4.535   0.559 -0.1861  0.7887 -0.8899
 7649TIP3   OH244437   1.799   2.157  14.132  0.1535 -0.0506 -0.2007
 7649TIP3    H144438   1.812   2.242  14.176  1.5581 -0.7344  0.7882
 7649TIP3    H244439   1.708   2.158  14.104 -0.9346  0.3805  2.9607
 7650TIP3   OH244440   4.138   6.381  11.150 -0.3814 -0.2596 -0.4703
 7650TIP3    H144441   4.176   6.420  11.072 -1.7914  0.2204 -0.9573
 7650TIP3    H244442   4.110   6.455  11.204 -0.4772 -0.5852 -0.0640
 7651TIP3   OH244443   2.435   0.598   4.750 -0.1488  0.2531 -0.3453
 7651TIP3    H144444   2.454   0.661   4.820 -0.3613 -0.0701  0.0098
 7651TIP3    H244445   2.421   0.651   4.673  1.5996  0.5572 -0.5087
 7652TIP3   OH244446   3.825   4.865   2.727 -0.4270 -0.1811  0.3273
 7652TIP3    H144447   3.841   4.861   2.821  0.4685  0.5198  0.2067
 7652TIP3    H244448   3.901   4.909   2.691 -1.6211  1.2583 -0.5175
 7653TIP3   OH244449   3.507   5.222  13.230 -0.1592  0.6959  0.0894
 7653TIP3    H144450   3.561   5.280  13.176  2.9810  0.6340  2.8167
 7653TIP3    H244451   3.569   5.185  13.293 -3.2264 -0.5262  2.6158
 7654TIP3   OH244452   0.053   6.044   2.244  0.0938 -0.1257 -0.1345
 7654TIP3    H144453   0.066   6.103   2.170  1.5431 -0.7557 -0.4277
 7654TIP3    H244454  -0.028   5.997   2.224 -0.3445  0.7852 -0.5513
 7655TIP3   OH244455   1.325   6.678   2.058  0.6221 -0.1038 -0.1229
 7655TIP3    H144456   1.379   6.614   2.105  0.1783 -0.5167 -0.1710
 7655TIP3    H244457   1.389   6.738   2.019  1.0215 -0.2080  0.3615
 7656TIP3   OH244458   4.928   1.787  11.782 -0.4189 -0.2014 -0.0598
 7656TIP3    H144459   4.907   1.699  11.812  0.3712 -0.1246  0.7623
 7656TIP3    H244460   4.852   1.814  11.729 -1.2595 -0.8527  0.7831
 7657TIP3   OH244461   2.249   3.497   5.608  0.3444 -0.4134 -0.1584
 7657TIP3    H144462   2.262   3.413   5.652  0.3047 -0.9681 -1.1838
 7657TIP3    H244463   2.279   3.483   5.519 -2.2995 -0.1824 -1.1744
 7658TIP3   OH244464   2.602   6.808   4.280 -0.3460 -0.5517 -0.0304
 7658TIP3    H144465   2.541   6.831   4.350  0.8052  0.1206  0.7943
 7658TIP3    H244466   2.633   6.720   4.304  1.9340  0.6310  1.7784
 7659TIP3   OH244467   2.328   2.180   4.285 -0.4093  0.3837 -0.4093
 7659TIP3    H144468   2.286   2.204   4.368  1.1326  0.1985  0.4611
 7659TIP3    H244469   2.256   2.178   4.222 -1.6571  0.3458  0.9495
 7660TIP3   OH244470   5.850   3.732  13.992 -0.1893  0.0867 -0.0641
 7660TIP3    H144471   5.758   3.708  14.004  0.1916 -2.3286 -1.3780
 7660TIP3    H244472   5.887   3.733  14.080 -0.8854 -1.6851  0.2775
 7661TIP3   OH244473   2.650   6.165  17.252 -0.0721  0.0776  0.9246
 7661TIP3    H144474   2.555   6.169  17.261 -0.1946  0.5123 -0.3187
 7661TIP3    H244475   2.664   6.120  17.168  0.8255 -0.3339  1.2816
 7662TIP3   OH244476   2.013   2.420   3.360 -0.2059 -0.1748  0.2028
 7662TIP3    H144477   2.063   2.498   3.381 -0.4316 -0.4713  1.9577
 7662TIP3    H244478   2.059   2.381   3.286  0.3237  1.2146 -0.2161
 7663TIP3   OH244479   4.034   5.208  12.678  0.6250  0.3018 -0.0346
 7663TIP3    H144480   3.996   5.121  12.672 -0.0753  0.4598  1.5347
 7663TIP3    H244481   4.104   5.209  12.612 -0.0009 -1.0878 -0.7536
 7664TIP3   OH244482   5.914   3.408  10.526  0.2479  0.9228 -0.1160
 7664TIP3    H144483   5.927   3.348  10.600 -0.6011  0.1729 -0.5598
 7664TIP3    H244484   5.998   3.452  10.517  0.9774 -0.3554  0.0917
 7665TIP3   OH244485   5.410   1.089  15.617  0.6998 -0.5146  0.3543
 7665TIP3    H144486   5.429   1.084  15.524  3.0230  0.6106  0.7035
 7665TIP3    H244487   5.371   1.175  15.629  0.7409 -0.5136  0.4797
 7666TIP3   OH244488   1.009   1.648   1.442  0.4136 -0.3031  0.3601
 7666TIP3    H144489   0.927   1.637   1.394  0.5159  1.3216 -0.2414
 7666TIP3    H244490   1.065   1.577   1.410 -0.2436 -0.5106 -0.3561
 7667TIP3   OH244491   2.586   5.490   2.548 -0.2620  0.2511 -0.7420
 7667TIP3    H144492   2.678   5.465   2.553 -0.1365  0.4241 -1.9278
 7667TIP3    H244493   2.544   5.419   2.499 -0.9883 -0.3632  0.7001
 7668TIP3   OH244494   3.532   5.314   0.154 -0.0305 -0.5246  0.0804
 7668TIP3    H144495   3.509   5.402   0.126  0.7052 -0.0881  0.7900
 7668TIP3    H244496   3.589   5.280   0.085  1.7139  0.5107  0.9426
 7669TIP3   OH244497   5.863   2.425   3.897 -0.0359 -0.1354  0.1859
 7669TIP3    H144498   5.799   2.373   3.849 -1.4653  3.9294 -2.8638
 7669TIP3    H244499   5.890   2.493   3.836  3.6745  1.2545  2.9472
 7670TIP3   OH244500   5.421   5.473   5.150 -0.3090 -0.2048  0.6410
 7670TIP3    H144501   5.459   5.407   5.091  0.4037  0.0147  0.8380
 7670TIP3    H244502   5.424   5.433   5.237 -0.7023 -0.2552  0.6322
 7671TIP3   OH244503   2.653   3.330   4.403 -0.0146  0.3315  0.4480
 7671TIP3    H144504   2.648   3.352   4.496  0.1141  0.7769  0.3526
 7671TIP3    H244505   2.746   3.335   4.383  0.0475 -0.5320  0.4712
 7672TIP3   OH244506   6.606   0.412  13.988  0.3010 -0.4677  0.2888
 7672TIP3    H144507   6.618   0.349  14.059 -1.1434  1.1540  2.0803
 7672TIP3    H244508   6.604   0.497  14.031 -2.8714  0.4524 -1.3533
 7673TIP3   OH244509   3.057   2.619   5.845 -0.1293 -0.4735 -0.2799
 7673TIP3    H144510   3.046   2.545   5.786 -0.1496 -1.7758  1.2992
 7673TIP3    H244511   3.151   2.625   5.860 -0.1830 -0.6575  0.1598
 7674TIP3   OH244512   1.822   3.845  12.123 -0.5271  0.1065 -0.7752
 7674TIP3    H144513   1.818   3.891  12.040 -1.1806 -0.1469 -0.8964
 7674TIP3    H244514   1.907   3.868  12.160  0.6451 -1.3313 -2.4003
 7675TIP3   OH244515   1.671   2.927   6.245 -0.0486 -0.4716 -0.5567
 7675TIP3    H144516   1.618   2.991   6.292 -1.6103 -3.0150  1.4749
 7675TIP3    H244517   1.762   2.949   6.267 -0.6026  0.3002  1.1336
 7676TIP3   OH244518   3.753   1.275  11.421 -0.7422 -0.2823  0.5524
 7676TIP3    H144519   3.844   1.256  11.398 -0.3071 -0.0821  2.0076
 7676TIP3    H244520   3.745   1.369  11.410 -0.7920 -0.3072  0.3728
 7677TIP3   OH244521   4.840   5.455  13.087  0.3747  0.0168 -0.2001
 7677TIP3    H144522   4.839   5.396  13.012  1.4083  0.2381 -0.3976
 7677TIP3    H244523   4.790   5.409  13.155  0.3278 -0.6428 -0.6783
 7678TIP3   OH244524   0.930   2.618   3.762  0.5524 -0.0327  0.4627
 7678TIP3    H144525   0.850   2.656   3.725  0.8634 -0.5364 -0.7494
 7678TIP3    H244526   0.978   2.584   3.687  1.7098 -0.1333  1.2225
 7679TIP3   OH244527   1.799   3.780   5.412  0.0844  0.1923  0.3836
 7679TIP3    H144528   1.891   3.795   5.392 -0.6029  0.5708 -3.3070
 7679TIP3    H244529   1.787   3.686   5.406 -0.1808  0.3107 -2.0557
 7680TIP3   OH244530   0.687   3.682   6.432 -0.1618  0.1048 -0.1846
 7680TIP3    H144531   0.780   3.675   6.410 -0.1319  0.2757 -0.1142
 7680TIP3    H244532   0.683   3.661   6.526 -0.2365 -0.2227 -0.2596
 7681TIP3   OH244533   6.311   6.081   0.959  0.2892  0.2491  0.2642
 7681TIP3    H144534   6.311   6.012   0.891  2.4979  0.0671  0.3948
 7681TIP3    H244535   6.403   6.098   0.976 -0.2061  0.9088  2.6479
 7682TIP3   OH244536   2.259   3.808  16.652  0.1457 -0.1257 -0.2723
 7682TIP3    H144537   2.338   3.786  16.603  0.9545  0.6145  0.6739
 7682TIP3    H244538   2.275   3.774  16.741 -1.4275 -1.7486 -0.5371
 7683TIP3   OH244539   1.734   2.251  16.296 -0.4620 -0.5216 -0.9469
 7683TIP3    H144540   1.647   2.286  16.316 -0.4687 -1.3211  0.5494
 7683TIP3    H244541   1.748   2.274  16.204 -1.2753  1.6733 -0.6000
 7684TIP3   OH244542   6.156   2.427   5.275  0.6020  0.1698 -0.2129
 7684TIP3    H144543   6.180   2.347   5.228  1.4734  0.1951  0.1668
 7684TIP3    H244544   6.109   2.479   5.210 -1.6714 -1.4194  0.0644
 7685TIP3   OH244545   6.188   1.396   4.983 -0.1012 -0.1672 -0.6134
 7685TIP3    H144546   6.206   1.459   4.913 -2.3768 -1.2889 -2.3655
 7685TIP3    H244547   6.215   1.312   4.947  0.7036 -0.5265  0.7669
 7686TIP3   OH244548   4.233   5.549   2.476 -0.2469 -0.4122  0.6323
 7686TIP3    H144549   4.294   5.538   2.549  0.0828 -0.0644  0.4108
 7686TIP3    H244550   4.283   5.519   2.399 -0.4670 -0.4279  0.4959
 7687TIP3   OH244551   1.288   1.129  17.180 -0.2163 -0.2011  0.4149
 7687TIP3    H144552   1.299   1.038  17.209 -1.8248  0.1497  2.3524
 7687TIP3    H244553   1.263   1.122  17.088  1.2014 -1.6112  0.1000
 7688TIP3   OH244554   0.756   4.624  14.759  0.1037  0.2005  0.2531
 7688TIP3    H144555   0.704   4.698  14.726  0.8315  0.2447 -0.8473
 7688TIP3    H244556   0.691   4.559  14.784 -0.5098  0.2538 -1.1030
 7689TIP3   OH244557   5.279   4.098   4.023  0.4009 -0.5003  0.7203
 7689TIP3    H144558   5.206   4.037   4.031  1.8051 -2.0368  2.5289
 7689TIP3    H244559   5.249   4.163   3.959 -1.8038 -2.1129  0.0182
 7690TIP3   OH244560   3.544   5.850   4.037 -0.3543  0.0278 -0.4501
 7690TIP3    H144561   3.504   5.769   4.005 -1.2235 -0.2139  1.1439
 7690TIP3    H244562   3.533   5.846   4.132  1.9184  0.8119 -0.0956
 7691TIP3   OH244563   1.818   3.828   3.609  0.7735 -0.6024  0.1239
 7691TIP3    H144564   1.821   3.891   3.681  2.1051 -0.0176 -0.4041
 7691TIP3    H244565   1.764   3.756   3.641  0.3942  0.1778  1.2658
 7692TIP3   OH244566   4.111   2.279   2.677  0.3381  0.1078  0.0893
 7692TIP3    H144567   4.064   2.278   2.593  3.1122  0.4675 -1.5837
 7692TIP3    H244568   4.058   2.336   2.733 -0.8591  1.0434 -1.8855
 7693TIP3   OH244569   4.374   2.597  11.791 -0.2068  0.0068 -0.1217
 7693TIP3    H144570   4.318   2.637  11.858  0.6806  0.3448  0.4290
 7693TIP3    H244571   4.410   2.519  11.833 -1.0486 -0.7844 -0.8213
 7694TIP3   OH244572   4.789   5.127   1.288  0.0728  0.1785  0.2411
 7694TIP3    H144573   4.747   5.175   1.216 -0.5545 -1.0436 -0.2296
 7694TIP3    H244574   4.882   5.149   1.280 -0.2177  1.4328  0.1442
 7695TIP3   OH244575   1.203   0.482  13.410 -0.2947  0.1391 -0.3506
 7695TIP3    H144576   1.288   0.438  13.398  0.1663  0.4321  1.5775
 7695TIP3    H244577   1.153   0.458  13.332  1.4454 -0.2932 -1.3950
 7696TIP3   OH244578   2.579   4.776   0.920  0.0800 -0.4985 -0.1862
 7696TIP3    H144579   2.566   4.719   0.996  0.1430 -0.3840 -0.0900
 7696TIP3    H244580   2.638   4.845   0.950 -0.2104 -0.2291 -0.2209
 7697TIP3   OH244581   5.355   6.701   1.908 -0.5377 -0.2768  0.2065
 7697TIP3    H144582   5.305   6.639   1.856 -0.2228  0.8164 -1.4956
 7697TIP3    H244583   5.429   6.725   1.852 -2.0665  3.6773 -0.4518
 7698TIP3   OH244584   4.474   2.803   2.227  0.2951  0.2557 -0.2290
 7698TIP3    H144585   4.444   2.814   2.137  0.7810 -1.0865 -0.5871
 7698TIP3    H244586   4.442   2.716   2.252  2.0186 -0.3272  0.1001
 7699TIP3   OH244587   1.828   2.615  14.786 -0.3776 -0.2616  0.3257
 7699TIP3    H144588   1.871   2.689  14.743  0.1282 -1.8884 -2.1918
 7699TIP3    H244589   1.885   2.593  14.859  0.9883  0.1141 -0.5925
 7700TIP3   OH244590   1.029   0.656  17.279  0.2359 -0.1267  0.3568
 7700TIP3    H144591   0.950   0.663  17.332 -2.2535 -0.5426 -2.9544
 7700TIP3    H244592   1.039   0.742  17.239 -0.2889 -0.8377 -1.4066
 7701TIP3   OH244593   3.982   6.037   2.547  0.6117  0.2722  0.3878
 7701TIP3    H144594   3.979   6.053   2.642  1.9937 -0.1047  0.5246
 7701TIP3    H244595   4.004   6.122   2.510 -0.9715  0.6671  0.2852
 7702TIP3   OH244596   5.508   0.281  15.266  1.0007 -0.1169 -0.0501
 7702TIP3    H144597   5.479   0.192  15.286  1.8125 -0.5864 -0.9374
 7702TIP3    H244598   5.600   0.273  15.244  0.9518  0.8749 -0.6900
 7703TIP3   OH244599   5.814   6.715  11.082  0.1106 -0.1123  0.2613
 7703TIP3    H144600   5.819   6.646  11.016 -0.3054  0.2968 -0.2030
 7703TIP3    H244601   5.823   6.669  11.165 -2.0698 -0.9890  0.0741
 7704TIP3   OH244602   6.132   3.087  14.769  0.1356 -0.7607  0.2645
 7704TIP3    H144603   6.151   2.997  14.795  0.3218 -0.7693  0.1082
 7704TIP3    H244604   6.167   3.140  14.840  2.1403 -0.6979 -0.6799
 7705TIP3   OH244605   5.167   6.079   5.948  0.2105  0.9688 -0.4699
 7705TIP3    H144606   5.262   6.074   5.935  0.2463 -0.1774  0.1577
 7705TIP3    H244607   5.136   6.132   5.874  1.2415  0.7227 -1.1016
 7706TIP3   OH244608   5.915   5.977  15.539  0.2743 -0.0570  0.0280
 7706TIP3    H144609   5.998   5.939  15.509  0.4184  0.3191 -0.0567
 7706TIP3    H244610   5.919   5.970  15.634  0.0998 -0.6654 -0.0058
 7707TIP3   OH244611   6.561   3.285  13.419 -0.2421  0.1678  0.3919
 7707TIP3    H144612   6.531   3.363  13.373  3.3023  0.8116 -1.2151
 7707TIP3    H244613   6.491   3.221  13.407 -1.7957  2.0463 -1.2021
 7708TIP3   OH244614   1.600   2.738  15.549  0.3554  0.6083  0.0476
 7708TIP3    H144615   1.563   2.814  15.505  0.1394 -0.2229 -1.3000
 7708TIP3    H244616   1.594   2.757  15.642 -1.4151  1.4431 -0.2076
 7709TIP3   OH244617   5.717   5.374   6.112  0.1383 -0.1791  0.5114
 7709TIP3    H144618   5.631   5.334   6.124 -0.2299  0.7773  1.1854
 7709TIP3    H244619   5.777   5.318   6.162 -0.0107 -1.0894 -0.3097
 7710TIP3   OH244620   6.793   1.491   5.748  0.5776  0.1370  0.7320
 7710TIP3    H144621   6.793   1.397   5.765 -0.1878 -0.1134 -0.4829
 7710TIP3    H244622   6.725   1.526   5.805  2.9362  0.4964  3.5440
 7711TIP3   OH244623   1.336   2.177  12.749 -0.6313  0.1059 -0.3665
 7711TIP3    H144624   1.314   2.260  12.706 -2.0120 -0.5912 -1.0695
 7711TIP3    H244625   1.266   2.118  12.724 -0.6183 -0.8019  1.5672
 7712TIP3   OH244626   1.486   6.281   0.740 -0.5658  0.0069  0.5011
 7712TIP3    H144627   1.561   6.314   0.692 -0.9310  0.7147  0.3995
 7712TIP3    H244628   1.513   6.196   0.773 -0.0072 -0.0939 -0.2126
 7713TIP3   OH244629   4.850   2.324  17.295 -0.3101 -0.0473 -0.2348
 7713TIP3    H144630   4.944   2.310  17.281 -0.1720 -0.1065  0.7129
 7713TIP3    H244631   4.837   2.417  17.280 -0.0473  0.0138 -0.0778
 7714TIP3   OH244632   0.427   6.750  13.161  0.4593 -0.5689  0.1299
 7714TIP3    H144633   0.389   6.679  13.213 -0.0347  0.5491  1.3659
 7714TIP3    H244634   0.503   6.711  13.118 -1.3837 -2.5681 -1.4875
 7715TIP3   OH244635   3.768   6.551  11.190  0.7831 -0.4274  0.1014
 7715TIP3    H144636   3.721   6.579  11.111  1.2831 -0.3719 -0.1801
 7715TIP3    H244637   3.804   6.465  11.166  2.2876  0.2872 -0.3001
 7716TIP3   OH244638   4.540   1.863   4.617  0.4784 -0.0408  0.6446
 7716TIP3    H144639   4.584   1.938   4.657  0.5875 -0.2403  0.9056
 7716TIP3    H244640   4.464   1.900   4.572  0.4258  0.2015  0.9292
 7717TIP3   OH244641   5.350   3.506  14.470  0.2938 -0.3888 -0.0121
 7717TIP3    H144642   5.314   3.571  14.410  1.1037 -0.4824 -0.6140
 7717TIP3    H244643   5.427   3.548  14.508 -0.3939 -0.2011  1.2438
 7718TIP3   OH244644   1.121   4.442   1.030  0.0066 -0.2617  0.4447
 7718TIP3    H144645   1.110   4.487   0.946  0.9338 -0.8799 -0.0239
 7718TIP3    H244646   1.209   4.403   1.025 -1.9502 -5.3140 -0.7539
 7719TIP3   OH244647   1.844   4.672   4.094 -0.7498  0.0844  0.1310
 7719TIP3    H144648   1.864   4.616   4.019  1.0903 -0.8226  1.2210
 7719TIP3    H244649   1.929   4.684   4.138 -1.7536  0.6091  2.0545
 7720TIP3   OH244650   3.666   1.378  15.745 -0.8450  0.4247  0.2735
 7720TIP3    H144651   3.597   1.335  15.795 -0.4980  0.4683  0.8002
 7720TIP3    H244652   3.625   1.401  15.661 -1.2418 -0.2552  0.2736
 7721TIP3   OH244653   3.567   0.567   0.868 -0.0453  0.2845 -0.2588
 7721TIP3    H144654   3.600   0.633   0.807 -0.0030 -0.1665 -0.7271
 7721TIP3    H244655   3.598   0.596   0.954  0.4022  0.5965 -0.5232
 7722TIP3   OH244656   5.016   6.346  10.716 -0.2465 -0.1211 -0.2632
 7722TIP3    H144657   5.041   6.370  10.627 -1.3172  0.4167 -0.4341
 7722TIP3    H244658   5.052   6.258  10.728  1.1046  0.3423 -0.7186
 7723TIP3   OH244659   2.975   3.502  16.473 -0.1418 -0.5567 -0.1633
 7723TIP3    H144660   3.024   3.571  16.518 -0.3111  0.6240 -1.6926
 7723TIP3    H244661   2.929   3.456  16.543  1.4887 -0.3615  1.0969
 7724TIP3   OH244662   0.851   4.302  13.879 -0.1640  0.4294  0.5262
 7724TIP3    H144663   0.900   4.295  13.797 -0.5994 -0.1746  0.3050
 7724TIP3    H244664   0.785   4.369  13.862 -0.1565  0.4138  0.4333
 7725TIP3   OH244665   1.018   2.217   2.884 -0.6155  0.2709  0.0254
 7725TIP3    H144666   0.957   2.201   2.812  0.5690 -0.5699 -0.8442
 7725TIP3    H244667   1.021   2.133   2.931 -0.7763  0.5724  0.5760
 7726TIP3   OH244668   1.332   2.085   0.169  0.2645 -0.4404 -0.2402
 7726TIP3    H144669   1.353   1.994   0.188  0.2242 -0.7239 -1.4695
 7726TIP3    H244670   1.248   2.082   0.124 -0.0956  0.2743  0.3699
 7727TIP3   OH244671   3.629   6.709   2.763 -0.4865  0.2710  0.3165
 7727TIP3    H144672   3.578   6.643   2.717 -1.1223  0.3427  0.8958
 7727TIP3    H244673   3.594   6.792   2.731  1.4479  0.3859 -1.6754
 7728TIP3   OH244674   0.756   2.551   2.892  0.3890 -0.2349  0.4518
 7728TIP3    H144675   0.806   2.506   2.959  1.0541 -0.5711 -0.2654
 7728TIP3    H244676   0.738   2.638   2.930  1.5266 -0.0993  0.7044
 7729TIP3   OH244677   4.273   2.554  15.817  0.1993 -0.0788 -0.2873
 7729TIP3    H144678   4.197   2.612  15.812 -0.1284 -0.5910 -1.5879
 7729TIP3    H244679   4.240   2.468  15.794  1.6610  0.2086 -4.1380
 7730TIP3   OH244680   1.062   2.827  12.073 -0.4613 -0.1782  0.3117
 7730TIP3    H144681   1.110   2.795  11.996 -1.9377  0.1816 -0.8086
 7730TIP3    H244682   1.070   2.922  12.068  0.9424 -0.1913  1.6536
 7731TIP3   OH244683   5.889   3.038   5.353 -0.0049 -0.1184  0.0686
 7731TIP3    H144684   5.879   3.132   5.372 -0.0862  0.1741 -1.2883
 7731TIP3    H244685   5.801   3.003   5.363  0.0459 -0.0864  0.6951
 7732TIP3   OH244686   5.032   3.551  15.062  0.6779 -0.2360  0.1077
 7732TIP3    H144687   5.017   3.562  15.156  0.0478  0.5926 -0.0743
 7732TIP3    H244688   5.098   3.482  15.056  2.0862  0.9571  1.2276
 7733TIP3   OH244689   4.138   0.501  12.192 -0.6944  0.1908 -0.2759
 7733TIP3    H144690   4.055   0.542  12.215  0.3572  1.9708  0.5186
 7733TIP3    H244691   4.124   0.408  12.209 -2.4079  0.4949  0.1518
 7734TIP3   OH244692   0.019   2.128  12.604  0.3569 -0.2042  0.1203
 7734TIP3    H144693  -0.054   2.088  12.651  2.3822 -3.4520  0.8108
 7734TIP3    H244694   0.040   2.207  12.654 -1.6172 -0.0510  0.7910
 7735TIP3   OH244695   6.509   3.795   5.423 -0.8680  0.2512  0.0551
 7735TIP3    H144696   6.449   3.765   5.354 -0.8250  0.3096 -0.0079
 7735TIP3    H244697   6.510   3.724   5.487 -0.3838 -0.0908 -0.3341
 7736TIP3   OH244698   4.846   6.441   1.794  0.2165 -0.7393 -0.1884
 7736TIP3    H144699   4.868   6.419   1.703 -0.1198 -1.6687 -0.0630
 7736TIP3    H244700   4.764   6.394   1.810  0.2643 -0.5641  0.5905
 7737TIP3   OH244701   1.061   3.993   2.808 -0.1587  0.1112  0.1349
 7737TIP3    H144702   1.065   4.061   2.741 -0.3451 -0.8158 -0.8395
 7737TIP3    H244703   1.150   3.959   2.815 -0.3123 -0.4004 -0.3023
 7738TIP3   OH244704   6.202   2.095  14.965  0.6900 -0.4279  0.1146
 7738TIP3    H144705   6.190   2.185  14.998  0.5855  0.1510 -1.4062
 7738TIP3    H244706   6.123   2.078  14.914  1.7735 -0.4005 -1.6835
 7739TIP3   OH244707   1.219   4.980   5.239 -0.0846 -0.0400 -0.0884
 7739TIP3    H144708   1.191   4.960   5.328  0.5297 -0.2753  0.0548
 7739TIP3    H244709   1.258   4.899   5.207  0.8349  0.4074 -0.1259
 7740TIP3   OH244710   3.966   4.039  14.287  0.1713 -0.0035  0.4600
 7740TIP3    H144711   3.918   4.120  14.270  1.2258  0.0757 -2.8845
 7740TIP3    H244712   4.052   4.053  14.249  0.5964 -2.4706  0.3323
 7741TIP3   OH244713   0.050   4.044   3.534  0.4616 -0.2748 -0.3074
 7741TIP3    H144714  -0.035   4.087   3.536 -0.1039 -1.3557  1.1739
 7741TIP3    H244715   0.090   4.065   3.619  0.9594 -1.1270 -0.3139
 7742TIP3   OH244716   4.556   3.914   4.187 -0.3102  0.0454  0.1623
 7742TIP3    H144717   4.617   3.848   4.154  1.1488  0.1240  2.4515
 7742TIP3    H244718   4.587   3.996   4.150 -0.7550 -0.2436 -0.8890
 7743TIP3   OH244719   6.634   3.680  14.641  0.0138  0.5609 -0.3109
 7743TIP3    H144720   6.676   3.595  14.629  0.5024  0.7382  0.0735
 7743TIP3    H244721   6.541   3.661  14.640 -0.0526 -0.8183  4.6014
 7744TIP3   OH244722   5.636   1.973   0.712 -0.3745 -0.0808  0.0419
 7744TIP3    H144723   5.554   1.947   0.670 -0.0078  2.2402 -2.3430
 7744TIP3    H244724   5.679   2.029   0.648  2.7666 -0.6015  1.5171
 7745TIP3   OH244725   0.113   0.795  16.106  0.1556 -0.0971  0.1375
 7745TIP3    H144726   0.033   0.777  16.156  0.6578  0.6229  1.2579
 7745TIP3    H244727   0.169   0.719  16.122  0.8795  0.7344  1.9342
 7746TIP3   OH244728   4.339   0.732   0.335 -0.4551 -0.7413 -0.7184
 7746TIP3    H144729   4.412   0.794   0.345 -0.8867 -0.5167  1.5245
 7746TIP3    H244730   4.270   0.783   0.292 -0.3086 -0.0554 -0.1627
 7747TIP3   OH244731   2.374   3.422  14.559  0.3175 -0.3963 -0.0980
 7747TIP3    H144732   2.314   3.484  14.599  1.4716 -0.4632  1.8465
 7747TIP3    H244733   2.442   3.476  14.518 -0.3216 -0.3567 -1.1610
 7748TIP3   OH244734   6.665   1.937   5.548  0.6357  0.0448 -0.0916
 7748TIP3    H144735   6.617   2.018   5.533  1.0463  0.6903  1.8215
 7748TIP3    H244736   6.753   1.965   5.572  1.4591 -1.0705 -1.6384
 7749TIP3   OH244737   4.195   5.774  15.420  0.1161 -0.3777  0.3371
 7749TIP3    H144738   4.273   5.819  15.454  1.1335 -1.7560 -0.0768
 7749TIP3    H244739   4.135   5.773  15.494 -0.5921  2.9112 -0.0412
 7750TIP3   OH244740   4.170   2.253  16.341  0.0106  0.3583 -0.1763
 7750TIP3    H144741   4.132   2.167  16.325 -0.5265  0.8268 -1.6032
 7750TIP3    H244742   4.259   2.235  16.373 -0.2137 -0.7191 -0.1337
 7751TIP3   OH244743   2.408   1.712  16.531  0.1185  0.0885  0.1910
 7751TIP3    H144744   2.494   1.739  16.501 -0.7298  0.1200 -2.4581
 7751TIP3    H244745   2.347   1.768  16.482 -1.4794 -1.6469  0.0934
 7752TIP3   OH244746   5.124   4.400  15.657  0.1642 -0.4320 -0.1007
 7752TIP3    H144747   5.203   4.419  15.707 -0.6259 -0.7234  1.3106
 7752TIP3    H244748   5.125   4.306  15.644  0.1533 -0.4087 -0.2782
 7753TIP3   OH244749   2.512   3.272  14.720  0.2207  0.4371  0.1903
 7753TIP3    H144750   2.603   3.291  14.697 -0.1241  0.2840 -1.4452
 7753TIP3    H244751   2.461   3.324  14.658 -0.7772 -1.7863 -0.9657
 7754TIP3   OH244752   1.572   3.072   6.483  0.0759  0.0242 -0.5834
 7754TIP3    H144753   1.562   2.980   6.507  0.7906  0.2034  0.4408
 7754TIP3    H244754   1.489   3.113   6.509  0.3064 -0.0556  0.2950
 7755TIP3   OH244755   0.119   1.216   4.411  0.8558  0.0224  0.1697
 7755TIP3    H144756   0.092   1.296   4.367  1.6936  1.1308  1.5851
 7755TIP3    H244757   0.075   1.219   4.496  0.4263 -1.3336  0.0230
 7756TIP3   OH244758   6.632   6.385  12.046  0.0808 -0.1223 -0.2900
 7756TIP3    H144759   6.603   6.460  11.995  2.3836  0.6331 -0.5885
 7756TIP3    H244760   6.584   6.391  12.128  0.5095  1.9114 -0.1542
 7757TIP3   OH244761   4.065   0.879  12.218  0.1865  0.3307  0.5552
 7757TIP3    H144762   4.058   0.898  12.125  0.4163  0.6136  0.5959
 7757TIP3    H244763   4.054   0.784  12.224  2.9068 -0.0805 -0.0433
 7758TIP3   OH244764   4.576   1.994  15.704 -0.2786 -0.0438  0.5305
 7758TIP3    H144765   4.534   2.054  15.642 -0.0646  1.1345  1.4900
 7758TIP3    H244766   4.667   1.991  15.675 -0.3165 -0.0039  0.4038
 7759TIP3   OH244767   5.837   3.866  11.790  0.1257 -0.3430 -0.4533
 7759TIP3    H144768   5.812   3.864  11.882 -0.8421  0.1554 -0.6937
 7759TIP3    H244769   5.858   3.775  11.769 -3.8244 -1.3548 -0.8220
 7760TIP3   OH244770   5.559   5.342  15.074  0.1709  0.2907 -0.4534
 7760TIP3    H144771   5.548   5.297  15.158 -0.8631  1.0115 -0.1750
 7760TIP3    H244772   5.579   5.273  15.011  0.1715 -0.3537  0.2507
 7761TIP3   OH244773   2.314   3.140   0.230 -0.3587  0.5894  0.1019
 7761TIP3    H144774   2.327   3.054   0.190  0.3289 -0.5762  2.6301
 7761TIP3    H244775   2.222   3.142   0.255  0.0671 -0.3668  1.9309
 7762TIP3   OH244776   5.253   4.199  16.904 -0.5751  0.2175 -0.0341
 7762TIP3    H144777   5.289   4.217  16.991 -0.6292 -2.1282  0.5381
 7762TIP3    H244778   5.176   4.256  16.897  0.4524  1.7608  0.6821
 7763TIP3   OH244779   3.336   0.093  17.003  0.4077 -0.2258  0.2567
 7763TIP3    H144780   3.390   0.021  17.034  0.1509 -1.6536 -2.3196
 7763TIP3    H244781   3.353   0.165  17.064  2.4214 -1.7480  1.5839
 7764TIP3   OH244782   4.321   2.277   4.663 -0.2696  0.5794  0.0342
 7764TIP3    H144783   4.299   2.299   4.573  1.5528 -3.8892 -1.8217
 7764TIP3    H244784   4.407   2.316   4.677  0.2453 -0.1830 -0.9032
 7765TIP3   OH244785   4.793   2.542   4.725  0.6035  0.0646 -0.3534
 7765TIP3    H144786   4.829   2.546   4.636  0.1720 -4.1279 -0.9580
 7765TIP3    H244787   4.837   2.467   4.765 -2.0357 -0.6454  1.5215
 7766TIP3   OH244788   3.034   3.663   1.804 -0.8037 -0.2702  0.1032
 7766TIP3    H144789   3.102   3.726   1.782  1.1840 -2.0363  0.8346
 7766TIP3    H244790   3.001   3.633   1.719  0.3125 -0.3823 -0.3032
 7767TIP3   OH244791   4.573   4.046   3.279 -0.4248  0.3658  0.2835
 7767TIP3    H144792   4.635   4.076   3.345  0.4888 -1.6491  0.4031
 7767TIP3    H244793   4.620   3.981   3.228 -1.8436  0.1902 -0.8912
 7768TIP3   OH244794   5.523   3.655   2.084  0.4096 -0.1516  0.3147
 7768TIP3    H144795   5.600   3.687   2.132  1.2273 -1.9009  0.2416
 7768TIP3    H244796   5.504   3.723   2.020  1.2333  0.8011  1.0585
 7769TIP3   OH244797   5.800   2.168   3.182 -0.1142  0.6390  0.7644
 7769TIP3    H144798   5.723   2.207   3.141 -0.4968  0.6588  1.4846
 7769TIP3    H244799   5.811   2.083   3.139  0.1535  1.1203 -0.1418
 7770TIP3   OH244800   1.974   3.397   4.037 -0.0700 -0.4423  0.0891
 7770TIP3    H144801   2.053   3.396   3.983 -0.9879 -1.4108 -1.3058
 7770TIP3    H244802   1.975   3.483   4.079  2.5812 -1.0521  1.4813
 7771TIP3   OH244803   2.777   2.520  11.962  0.0082  0.0493  0.1234
 7771TIP3    H144804   2.764   2.465  11.885  0.0188 -1.3258  1.0523
 7771TIP3    H244805   2.709   2.492  12.023 -0.1428  1.2714  0.5392
 7772TIP3   OH244806   5.913   1.146   2.809  0.7784  0.0262 -0.0585
 7772TIP3    H144807   5.975   1.218   2.802  1.3753 -0.6600 -4.3236
 7772TIP3    H244808   5.845   1.165   2.745 -1.7671 -0.8983  2.1593
 7773TIP3   OH244809   0.213   1.285  17.123  0.3925 -0.4135  0.2330
 7773TIP3    H144810   0.125   1.248  17.125  0.3308 -0.4153 -1.3208
 7773TIP3    H244811   0.261   1.234  17.189 -0.5211 -1.0317  0.4441
 7774TIP3   OH244812   4.228   2.321   2.238 -0.5869  0.3263 -0.0669
 7774TIP3    H144813   4.268   2.236   2.220  0.7862  1.1606 -1.2104
 7774TIP3    H244814   4.165   2.304   2.308  0.8602 -1.3215  0.9172
 7775TIP3   OH244815   4.019   1.035  14.805 -0.1221 -0.1627  0.8611
 7775TIP3    H144816   4.074   0.991  14.870  2.0739 -0.5818 -1.1848
 7775TIP3    H244817   4.079   1.065  14.737 -2.4574 -1.2558 -1.8973
 7776TIP3   OH244818   4.188   3.046  12.037  0.0547  0.4066  0.2195
 7776TIP3    H144819   4.103   3.006  12.055  0.3762 -0.5007 -0.1858
 7776TIP3    H244820   4.168   3.121  11.982 -0.4762  0.1153  0.0044
 7777TIP3   OH244821   4.885   5.549   1.040 -0.2530 -0.0191  0.0367
 7777TIP3    H144822   4.897   5.563   1.134 -0.8762  0.3752  0.0623
 7777TIP3    H244823   4.836   5.626   1.010 -2.5546 -1.4515 -0.0892
 7778TIP3   OH244824   3.116   4.597   6.115  0.6826 -0.3505 -0.0960
 7778TIP3    H144825   3.154   4.514   6.141  0.5438 -0.3377  0.1474
 7778TIP3    H244826   3.082   4.635   6.196  1.2313  0.1933 -0.1131
 7779TIP3   OH244827   3.364   4.835   4.193  0.6520 -0.7974 -0.1514
 7779TIP3    H144828   3.382   4.927   4.208 -1.1004 -0.7175  1.7917
 7779TIP3    H244829   3.428   4.809   4.126  0.2242  2.1519 -1.8690
 7780TIP3   OH244830   4.401   0.030   3.610  0.6177  0.2364 -0.2197
 7780TIP3    H144831   4.354   0.111   3.593 -0.6409 -0.5740 -0.7040
 7780TIP3    H244832   4.444   0.009   3.527  0.3830  0.0543 -0.2960
 7781TIP3   OH244833   6.495   4.083   4.734  0.5805 -0.7709 -0.1911
 7781TIP3    H144834   6.524   4.041   4.815  1.2189 -1.3127 -0.6894
 7781TIP3    H244835   6.569   4.073   4.674  0.2487 -0.0614 -0.7314
 7782TIP3   OH244836   5.163   6.780  15.863  0.1091  0.7040  0.4375
 7782TIP3    H144837   5.175   6.856  15.920  0.2547  1.2927 -0.3592
 7782TIP3    H244838   5.246   6.773  15.815 -0.3535  0.7934 -0.3817
 7783TIP3   OH244839   2.992   4.918  15.072  0.5969 -0.4119  0.3407
 7783TIP3    H144840   2.980   4.966  14.990  0.4788  0.5152  0.8852
 7783TIP3    H244841   2.935   4.841  15.063  0.4721 -0.2412 -0.3857
 7784TIP3   OH244842   4.228   4.145   3.689 -0.4902 -0.0785 -0.1447
 7784TIP3    H144843   4.162   4.151   3.758 -0.2451 -0.4213  0.1252
 7784TIP3    H244844   4.182   4.106   3.614 -0.0340 -2.6989  0.8342
 7785TIP3   OH244845   4.901   5.952  11.084  0.4609  0.0698  0.6637
 7785TIP3    H144846   4.977   6.006  11.063 -0.8652  1.3299 -1.2113
 7785TIP3    H244847   4.832   5.984  11.026 -1.6153 -0.8073  2.5026
 7786TIP3   OH244848   4.059   4.765   3.909  0.5071 -0.8349 -0.0199
 7786TIP3    H144849   3.988   4.821   3.940 -0.5482 -2.2060  0.0918
 7786TIP3    H244850   4.139   4.811   3.937 -0.2102  1.7043 -1.7803
 7787TIP3   OH244851   4.138   0.890  15.454  0.2509  0.1115  0.5697
 7787TIP3    H144852   4.233   0.892  15.464  0.3895  1.5343 -0.7162
 7787TIP3    H244853   4.106   0.963  15.507  0.0216  0.6058 -0.2387
 7788TIP3   OH244854   6.568   2.139  15.340 -1.0681  0.1399 -0.3600
 7788TIP3    H144855   6.583   2.193  15.262  1.0698 -0.5255 -0.4563
 7788TIP3    H244856   6.542   2.202  15.408 -1.5144  0.8989 -1.2137
 7789TIP3   OH244857   0.591   4.662   4.177 -0.0050  0.3066 -0.8259
 7789TIP3    H144858   0.539   4.677   4.098  0.1964 -0.8548 -1.1927
 7789TIP3    H244859   0.659   4.729   4.173 -1.1379  1.5104 -0.6075
 7790TIP3   OH244860   2.169   0.903  12.350 -0.1600  0.1596  0.7011
 7790TIP3    H144861   2.253   0.944  12.331  0.3802 -1.6407 -1.2005
 7790TIP3    H244862   2.178   0.814  12.315 -3.2445  0.2578 -0.6354
 7791TIP3   OH244863   2.354   3.179  16.420 -0.6394 -0.1101  0.1193
 7791TIP3    H144864   2.406   3.134  16.353 -0.2057  1.3642 -0.5697
 7791TIP3    H244865   2.304   3.109  16.462  0.1050 -1.2461 -0.8186
 7792TIP3   OH244866   0.676   2.995  15.919 -0.5170  0.2047 -0.4613
 7792TIP3    H144867   0.707   3.084  15.935 -2.1830  0.7081  0.2150
 7792TIP3    H244868   0.583   2.998  15.942 -0.5259 -1.8023 -0.0844
 7793TIP3   OH244869   1.857   4.185  13.144 -0.3830  0.4893  0.1537
 7793TIP3    H144870   1.929   4.149  13.196 -1.0691 -1.2616 -0.0604
 7793TIP3    H244871   1.897   4.203  13.059 -0.5204 -2.2082 -0.5731
 7794TIP3   OH244872   0.483   0.685   3.232 -0.7666  0.1576  0.2855
 7794TIP3    H144873   0.517   0.768   3.263  4.0955 -1.0815 -0.8332
 7794TIP3    H244874   0.449   0.642   3.310  0.6072  1.5392  1.7145
 7795TIP3   OH244875   2.057   6.272  12.910 -0.2783 -0.2606 -0.5604
 7795TIP3    H144876   1.986   6.222  12.950 -0.7091  0.8541  0.1307
 7795TIP3    H244877   2.013   6.328  12.846 -0.1883  1.1523  0.5699
 7796TIP3   OH244878   2.616   5.417   4.477 -0.1437  0.3150  0.9674
 7796TIP3    H144879   2.553   5.368   4.423 -0.4937  1.9205 -0.1718
 7796TIP3    H244880   2.673   5.460   4.413  0.7088  0.6700  1.9488
 7797TIP3   OH244881   3.045   3.333   5.971  0.6606  0.2140 -0.1987
 7797TIP3    H144882   3.122   3.352   5.916 -0.2793  0.3561 -1.5225
 7797TIP3    H244883   3.009   3.420   5.992 -0.0652  0.1268 -0.9964
 7798TIP3   OH244884   0.347   1.642  11.471  0.1605 -0.2758 -0.5540
 7798TIP3    H144885   0.435   1.627  11.505  0.3915  1.5468 -0.2356
 7798TIP3    H244886   0.358   1.644  11.375  0.5789  0.4157 -0.5040
 7799TIP3   OH244887   3.816   2.331   6.286  0.0902 -0.0962 -0.6665
 7799TIP3    H144888   3.904   2.359   6.311  0.5930 -1.6858 -0.5376
 7799TIP3    H244889   3.758   2.387   6.338  0.9996  1.0570 -0.8335
 7800TIP3   OH244890   4.458   3.102  11.204 -0.4393 -0.0787  0.0094
 7800TIP3    H144891   4.378   3.056  11.226 -1.2087  0.8988 -0.6135
 7800TIP3    H244892   4.484   3.065  11.119 -0.6206  0.0739 -0.1147
 7801TIP3   OH244893   6.310   4.168   5.776  0.2881 -0.4124  0.3923
 7801TIP3    H144894   6.300   4.149   5.870 -0.5960 -0.0171  0.3911
 7801TIP3    H244895   6.224   4.201   5.750  0.4438 -0.7983 -0.6294
 7802TIP3   OH244896   3.359   3.595   1.535  0.1250  0.1548  0.4132
 7802TIP3    H144897   3.334   3.602   1.444 -0.6511 -3.1255  0.2470
 7802TIP3    H244898   3.454   3.608   1.535  0.5021 -2.0204 -1.2948
 7803TIP3   OH244899   2.475   4.742  17.297  0.1260 -0.0297  0.2479
 7803TIP3    H144900   2.478   4.652  17.263  1.2594  0.7100 -1.7618
 7803TIP3    H244901   2.562   4.757  17.333 -0.2999  0.0313  1.2749
 7804TIP3   OH244902   6.057   3.444  14.254 -0.5709 -0.1107 -0.3779
 7804TIP3    H144903   6.136   3.393  14.239 -1.2794 -0.7795 -1.9791
 7804TIP3    H244904   5.993   3.381  14.287 -0.5547  0.3821  0.6689
 7805TIP3   OH244905   3.456   6.604  16.682  0.5108  0.0133 -0.8608
 7805TIP3    H144906   3.506   6.527  16.657 -0.0953 -0.0751 -1.8485
 7805TIP3    H244907   3.503   6.678  16.643  1.2738  0.2086  0.3529
 7806TIP3   OH244908   6.733   1.934  12.425  0.0904 -0.0705 -0.4870
 7806TIP3    H144909   6.775   1.850  12.408  0.4782 -0.0408  0.2532
 7806TIP3    H244910   6.783   1.971  12.498 -0.6277  0.3977 -0.2171
 7807TIP3   OH244911   6.678   3.511  17.024 -0.4584 -0.0034 -0.5031
 7807TIP3    H144912   6.771   3.528  17.009 -0.0979 -0.9242  0.6183
 7807TIP3    H244913   6.636   3.596  17.010  0.9513  1.2518  2.1463
 7808TIP3   OH244914   2.744   0.524  11.642 -0.1934  0.5349  0.4358
 7808TIP3    H144915   2.822   0.469  11.645 -0.7513 -0.3250 -0.1540
 7808TIP3    H244916   2.741   0.556  11.552 -1.6772 -1.2503 -0.2388
 7809TIP3   OH244917   1.059   1.995   3.824 -0.4579  0.8396 -0.3744
 7809TIP3    H144918   1.147   1.983   3.790  0.2191  0.9995  1.2623
 7809TIP3    H244919   1.015   2.050   3.758  0.4361  0.2283 -1.5132
 7810TIP3   OH244920   2.759   5.809  16.302  0.1222 -0.2679  0.5040
 7810TIP3    H144921   2.752   5.895  16.261  0.0253 -0.4530  0.1217
 7810TIP3    H244922   2.710   5.817  16.384  0.7608  0.2574  0.8378
 7811TIP3   OH244923   0.658   1.661  14.155 -0.6139  0.1714  0.2224
 7811TIP3    H144924   0.748   1.649  14.187 -0.3936  1.6186  0.2074
 7811TIP3    H244925   0.637   1.578  14.111  0.7223 -0.1774  0.1934
 7812TIP3   OH244926   1.141   1.271   5.101 -0.2525 -0.5450  0.1969
 7812TIP3    H144927   1.188   1.348   5.068 -0.8163  0.8259  2.3900
 7812TIP3    H244928   1.085   1.244   5.029  0.9245  0.2712 -1.0713
 7813TIP3   OH244929   6.562   4.294  17.061  0.4606  0.3894  0.7479
 7813TIP3    H144930   6.485   4.250  17.024  2.1575 -1.9858 -0.2609
 7813TIP3    H244931   6.570   4.256  17.149  1.7195 -1.1460  0.0116
 7814TIP3   OH244932   5.315   5.663   1.940 -0.7498 -0.2435 -0.0371
 7814TIP3    H144933   5.337   5.605   2.012 -1.6181  1.4706  1.6949
 7814TIP3    H244934   5.397   5.706   1.917 -0.9225  1.1694  1.8077
 7815TIP3   OH244935   0.218   0.601   5.698 -0.1910 -0.5672 -0.2568
 7815TIP3    H144936   0.127   0.622   5.676  0.4682  2.1979 -0.7087
 7815TIP3    H244937   0.236   0.519   5.651 -2.4955 -1.3308  0.0811
 7816TIP3   OH244938   1.516   4.224  16.966 -0.8275 -0.0714  0.3432
 7816TIP3    H144939   1.427   4.223  17.002 -0.1642 -0.3435  2.0679
 7816TIP3    H244940   1.531   4.135  16.936 -1.5187  0.2449 -1.0186
 7817TIP3   OH244941   1.473   2.515  15.642  0.3144 -0.0397  0.1301
 7817TIP3    H144942   1.470   2.456  15.566  1.6472  0.5137 -0.3816
 7817TIP3    H244943   1.513   2.595  15.608 -0.7014  0.8723  1.0185
 7818TIP3   OH244944   4.562   5.575  13.839  0.3424 -0.0688  0.0167
 7818TIP3    H144945   4.628   5.571  13.770  1.1896  1.1685  0.7139
 7818TIP3    H244946   4.521   5.489  13.838  1.2597 -0.5219 -1.1201
 7819TIP3   OH244947   2.877   2.995   6.038  0.3140  0.0026  0.4844
 7819TIP3    H144948   2.967   3.000   6.071 -0.5911  2.7974  3.1204
 7819TIP3    H244949   2.876   3.054   5.963  0.1070  2.9676  2.6106
 7820TIP3   OH244950   6.277   5.087  13.637 -0.0580  0.5703  0.2634
 7820TIP3    H144951   6.343   5.145  13.600 -1.4943  1.7064 -0.6266
 7820TIP3    H244952   6.276   5.011  13.578 -0.0946  0.9081 -0.1760
 7821TIP3   OH244953   3.057   5.139  10.372  0.9939  0.0381  0.2782
 7821TIP3    H144954   3.075   5.186  10.454 -0.8145  0.1580  0.6481
 7821TIP3    H244955   3.138   5.092  10.353  2.2861  1.9378  0.8078
 7822TIP3   OH244956   2.191   1.773   5.211 -0.2817  0.0438  0.1196
 7822TIP3    H144957   2.236   1.689   5.226 -2.4324 -1.2880 -0.3873
 7822TIP3    H244958   2.260   1.833   5.183  1.1296 -1.9250 -0.8505
 7823TIP3   OH244959   1.264   1.140   5.591  0.2515  0.3058  0.1163
 7823TIP3    H144960   1.298   1.060   5.630  0.3741  0.4312  0.2712
 7823TIP3    H244961   1.237   1.194   5.666  0.9618  0.7596  0.0605
 7824TIP3   OH244962   0.620   5.127  16.045  0.5362  0.5168  0.1225
 7824TIP3    H144963   0.608   5.132  15.950  0.2018  1.3678  0.2046
 7824TIP3    H244964   0.698   5.181  16.062  1.1762 -0.4180  0.2333
 7825TIP3   OH244965   3.692   1.639   4.565  0.2803  0.2588  0.4860
 7825TIP3    H144966   3.641   1.710   4.525 -0.9849 -0.5628  0.5601
 7825TIP3    H244967   3.776   1.679   4.588  0.7378  0.9733 -2.1649
 7826TIP3   OH244968   1.489   5.031  14.560 -0.4615  0.2232 -0.3964
 7826TIP3    H144969   1.516   5.119  14.537 -0.2127  0.0213 -0.8922
 7826TIP3    H244970   1.416   5.011  14.501  1.0562 -0.8031 -2.0019
 7827TIP3   OH244971   6.742   4.861  12.875  0.4239  0.5272 -0.2525
 7827TIP3    H144972   6.764   4.769  12.886 -0.9974  0.0572 -1.1062
 7827TIP3    H244973   6.805   4.907  12.930  1.5387 -0.9057 -0.2721
 7828TIP3   OH244974   5.745   2.320  11.401  0.2200 -0.2404  0.1950
 7828TIP3    H144975   5.819   2.377  11.423 -0.3175  0.6499 -0.2560
 7828TIP3    H244976   5.710   2.357  11.319 -1.9116  0.5439  1.3726
 7829TIP3   OH244977   1.754   1.106   4.743  0.4140  0.2632 -0.4715
 7829TIP3    H144978   1.768   1.022   4.699  0.3969  0.1174 -0.2036
 7829TIP3    H244979   1.660   1.114   4.752  0.1803  1.6423 -3.0342
 7830TIP3   OH244980   0.216   4.783  16.475  0.4489  0.0606  0.3609
 7830TIP3    H144981   0.236   4.845  16.405 -2.6537  0.0072 -0.7562
 7830TIP3    H244982   0.284   4.797  16.540  2.7724  0.9832 -2.0978
 7831TIP3   OH244983   0.428   5.150   3.049 -0.2579 -0.0477  0.3267
 7831TIP3    H144984   0.508   5.114   3.087 -0.7021  0.8809  2.2515
 7831TIP3    H244985   0.413   5.098   2.970  1.0570 -1.6703  1.0907
 7832TIP3   OH244986   4.166   4.940   3.198  0.2544  0.2538  0.0589
 7832TIP3    H144987   4.174   4.861   3.145 -1.6148 -1.0718  1.5826
 7832TIP3    H244988   4.122   5.003   3.142 -0.0521 -0.4853 -0.5477
 7833TIP3   OH244989   6.771   3.365   4.636  0.0424 -0.0099  0.1978
 7833TIP3    H144990   6.761   3.422   4.560  2.1237 -0.8572 -0.7904
 7833TIP3    H244991   6.746   3.278   4.604 -2.5631  0.1213  1.5402
 7834TIP3   OH244992   4.856   2.433   5.171 -0.3156  0.3594 -0.0714
 7834TIP3    H144993   4.928   2.385   5.129  0.1128 -1.0316  2.0810
 7834TIP3    H244994   4.787   2.435   5.106  0.6262 -0.8991 -1.1559
 7835TIP3   OH244995   2.110   0.735   5.316 -0.3960  0.3613  0.1719
 7835TIP3    H144996   2.108   0.830   5.325 -0.6211  0.3931 -0.2072
 7835TIP3    H244997   2.105   0.703   5.406  0.0756  0.7105  0.3262
 7836TIP3   OH244998   3.947   2.312   1.999 -0.0391  0.1485  1.0097
 7836TIP3    H144999   3.980   2.358   2.076  1.6612  0.6816  0.0014
 7836TIP3    H245000   3.896   2.378   1.952  1.6755  0.8318  0.0160
 7837TIP3   OH245001   1.571   0.545  13.665  0.0214 -0.5046  0.0034
 7837TIP3    H145002   1.623   0.508  13.736 -1.2134  0.8363  1.7156
 7837TIP3    H245003   1.610   0.631  13.649 -0.1854 -0.4805 -0.3922
 7838TIP3   OH245004   2.523   6.291  14.433  0.6193 -0.0084  0.1488
 7838TIP3    H145005   2.502   6.200  14.455 -0.7675 -0.2728 -1.9341
 7838TIP3    H245006   2.559   6.328  14.514  0.1091 -2.0701  1.3903
 7839TIP3   OH245007   6.599   0.666  15.337  0.1769 -0.3456 -0.5267
 7839TIP3    H145008   6.529   0.679  15.401  1.0939  2.8350  0.0020
 7839TIP3    H245009   6.608   0.751  15.294  2.1798 -1.3211 -2.1953
 7840TIP3   OH245010   4.658   4.203  16.887 -0.5078  0.0751 -0.4701
 7840TIP3    H145011   4.589   4.269  16.892  0.6286  1.3853 -1.4526
 7840TIP3    H245012   4.738   4.250  16.910  0.2174 -1.1881 -0.2880
 7841TIP3   OH245013   1.606   2.426  12.662  0.4680  0.3018 -0.2077
 7841TIP3    H145014   1.537   2.405  12.600  0.8741 -1.4970 -0.0996
 7841TIP3    H245015   1.566   2.488  12.722 -0.9756 -0.4854 -0.3098
 7842TIP3   OH245016   2.646   0.073  17.196  0.2723  0.1292  0.6931
 7842TIP3    H145017   2.687   0.015  17.261  1.4421  0.4383  0.2630
 7842TIP3    H245018   2.600   0.013  17.137  0.9132 -0.3263  0.6401
 7843TIP3   OH245019   5.644   5.250   0.103 -0.2691 -0.1630 -0.2243
 7843TIP3    H145020   5.575   5.277   0.163 -1.9958 -0.2593 -2.0748
 7843TIP3    H245021   5.692   5.182   0.150 -1.2655  0.0841  1.2033
 7844TIP3   OH245022   4.738   1.045   2.256 -0.4872  0.0462  0.3389
 7844TIP3    H145023   4.747   1.140   2.257 -0.9990  0.1362 -0.9130
 7844TIP3    H245024   4.782   1.018   2.176  1.5332 -1.0298  1.7290
 7845TIP3   OH245025   0.608   6.122  14.709 -0.0199 -0.5201  0.5897
 7845TIP3    H145026   0.576   6.209  14.733 -0.6958 -0.9362  1.2452
 7845TIP3    H245027   0.637   6.084  14.792  1.5327 -0.4364  0.1176
 7846TIP3   OH245028   4.507   3.726   0.762  0.4174  0.6091 -0.0840
 7846TIP3    H145029   4.552   3.642   0.753 -0.3664  0.0754  0.8637
 7846TIP3    H245030   4.498   3.739   0.856 -1.0022  0.9183 -0.2441
 7847TIP3   OH245031   3.421   0.849   3.906 -0.2265 -0.1249 -0.0628
 7847TIP3    H145032   3.390   0.773   3.954  0.0329  0.2435  0.7018
 7847TIP3    H245033   3.473   0.814   3.835  0.9972 -0.6410  1.0511
 7848TIP3   OH245034   6.510   4.896  17.020 -0.7862  0.3884 -0.2421
 7848TIP3    H145035   6.492   4.818  17.074 -0.3553  0.1625 -0.4224
 7848TIP3    H245036   6.429   4.947  17.025 -0.7121  0.4306  0.7185
 7849TIP3   OH245037   6.540   3.513   5.408  0.0531  0.1034 -0.4493
 7849TIP3    H145038   6.633   3.533   5.412  0.5494 -1.4709 -2.4412
 7849TIP3    H245039   6.532   3.424   5.441 -0.3811 -0.5612 -2.2172
 7850TIP3   OH245040   5.576   0.962  15.831 -0.6644  0.0586 -0.1404
 7850TIP3    H145041   5.497   0.987  15.784 -0.3892  2.0875  0.3716
 7850TIP3    H245042   5.635   0.928  15.764 -1.4015  0.0070 -0.7656
 7851TIP3   OH245043   0.380   5.378   4.052  0.4336  0.9793 -0.1117
 7851TIP3    H145044   0.465   5.333   4.057  0.5720  1.1475 -0.7418
 7851TIP3    H245045   0.376   5.431   4.131  0.1075 -0.4011  0.8361
 7852TIP3   OH245046   4.029   4.240  14.059 -0.1246 -0.5569  0.2284
 7852TIP3    H145047   4.058   4.150  14.046  0.9307 -0.1214 -0.5809
 7852TIP3    H245048   3.949   4.247  14.008 -0.3229 -1.0824  0.4582
 7853TIP3   OH245049   1.148   4.657  11.565  0.4190  0.2628  0.3905
 7853TIP3    H145050   1.210   4.584  11.562  1.3869  1.0944 -2.0538
 7853TIP3    H245051   1.194   4.727  11.610  1.0952  0.7084 -0.9636
 7854TIP3   OH245052   0.635   3.161   2.359 -0.3519  0.0610 -0.2509
 7854TIP3    H145053   0.689   3.239   2.354  0.2787 -0.2582  1.1735
 7854TIP3    H245054   0.614   3.151   2.452  0.6497 -2.1498 -0.1880
 7855TIP3   OH245055   1.796   4.487  12.863 -0.1532  0.5934 -0.2529
 7855TIP3    H145056   1.843   4.493  12.946  1.5542 -0.0846 -1.1149
 7855TIP3    H245057   1.809   4.573  12.822  0.1295  0.4869 -0.3865
 7856TIP3   OH245058   0.843   1.062   1.622  0.0119 -0.0367  0.0839
 7856TIP3    H145059   0.937   1.046   1.614  0.0696  0.3910 -0.1047
 7856TIP3    H245060   0.805   1.024   1.542  0.1381  0.6786 -0.3177
 7857TIP3   OH245061   1.325   5.160  16.138  0.0994 -0.0807 -0.1019
 7857TIP3    H145062   1.291   5.224  16.076 -2.4711 -0.3945  0.8673
 7857TIP3    H245063   1.306   5.075  16.098 -1.6030 -0.2861  1.0365
 7858TIP3   OH245064   6.079   6.531   4.076  0.2931 -0.0338 -0.3989
 7858TIP3    H145065   6.016   6.460   4.091 -0.9994  1.3101  0.8988
 7858TIP3    H245066   6.079   6.544   3.981  0.7834 -1.9196 -0.6921
 7859TIP3   OH245067   0.012   6.148  11.737 -0.2646 -0.6553  0.1749
 7859TIP3    H145068   0.053   6.207  11.800  0.6877 -0.3282 -0.7218
 7859TIP3    H245069   0.023   6.192  11.653 -1.9515 -0.8437 -0.1920
 7860TIP3   OH245070   0.285   1.376  15.220  0.4927 -0.1123 -0.2257
 7860TIP3    H145071   0.300   1.422  15.138 -0.5682 -1.1074 -1.0146
 7860TIP3    H245072   0.293   1.443  15.288  0.3406  0.9380 -1.2255
 7861TIP3   OH245073   3.077   4.397   6.519  0.1354 -0.6735  0.0163
 7861TIP3    H145074   3.073   4.334   6.591  1.8038 -0.9176 -0.0864
 7861TIP3    H245075   3.167   4.429   6.519  0.2748 -0.9072 -2.1513
 7862TIP3   OH245076   0.510   0.668   6.435 -0.1317  0.7355 -0.0066
 7862TIP3    H145077   0.510   0.573   6.424 -0.2559  0.3049  2.8525
 7862TIP3    H245078   0.602   0.693   6.426 -0.1501  0.4317 -1.1797
 7863TIP3   OH245079   3.958   5.735   3.086  0.3223  0.5478  0.0326
 7863TIP3    H145080   3.957   5.797   3.013  1.6417  0.8627  0.2690
 7863TIP3    H245081   3.915   5.781   3.157 -2.1751 -0.2279 -0.8597
 7864TIP3   OH245082   2.643   4.765   6.012  0.0841  0.6895 -0.0359
 7864TIP3    H145083   2.640   4.684   6.062  1.1295  0.9591  0.5025
 7864TIP3    H245084   2.722   4.809   6.043 -0.9462  2.3485  0.3361
 7865TIP3   OH245085   0.351   0.711  10.239  0.1911 -0.5094  0.1338
 7865TIP3    H145086   0.330   0.763  10.162  1.6920  0.3093  0.2346
 7865TIP3    H245087   0.407   0.640  10.205  3.0022  1.2781  0.7098
 7866TIP3   OH245088   3.688   5.511  16.381 -0.1129  0.3718 -0.3724
 7866TIP3    H145089   3.778   5.480  16.378 -0.0987  0.4961 -1.3173
 7866TIP3    H245090   3.635   5.436  16.354 -0.2514  0.4543 -0.3343
 7867TIP3   OH245091   0.461   6.683   2.233  0.4015  0.0014 -0.0854
 7867TIP3    H145092   0.521   6.757   2.226  0.1337  0.2592  0.3090
 7867TIP3    H245093   0.374   6.721   2.217  0.2260 -0.1553  0.4786
 7868TIP3   OH245094   0.608   1.439  14.015 -0.1396  0.3503 -0.5566
 7868TIP3    H145095   0.577   1.407  13.930 -2.5613 -1.4045  0.8304
 7868TIP3    H245096   0.658   1.366  14.051 -0.0715  0.6501 -0.0358
 7869TIP3   OH245097   0.673   0.360  15.701  0.2612  0.3329 -0.3203
 7869TIP3    H145098   0.738   0.290  15.696  0.7509  0.7154  0.5770
 7869TIP3    H245099   0.612   0.332  15.770  0.5911  0.8886  0.2070
 7870TIP3   OH245100   1.147   2.063  17.267  0.1716 -0.0851 -0.0119
 7870TIP3    H145101   1.159   1.972  17.240 -0.7377 -0.5705  1.1047
 7870TIP3    H245102   1.192   2.115  17.201  0.5647 -1.3448 -0.7536
 7871TIP3   OH245103   3.334   2.404   2.188 -0.1924  0.5355  0.4636
 7871TIP3    H145104   3.338   2.445   2.102 -1.2092 -0.5825 -0.1493
 7871TIP3    H245105   3.330   2.310   2.170  1.0597  0.1808  1.7921
 7872TIP3   OH245106   0.883   4.650   2.880 -0.0511  0.1393  0.3757
 7872TIP3    H145107   0.804   4.601   2.906 -0.3963  1.0685  1.1128
 7872TIP3    H245108   0.938   4.648   2.958 -0.4816  1.7348  0.7453
 7873TIP3   OH245109   4.866   5.305   6.510 -0.6539 -0.4263  0.8257
 7873TIP3    H145110   4.828   5.371   6.568 -0.2166  0.8382 -0.2788
 7873TIP3    H245111   4.867   5.225   6.562 -2.6779  0.0288  1.6873
 7874TIP3   OH245112   6.101   1.811   3.404 -0.0452 -0.0125  0.2177
 7874TIP3    H145113   6.117   1.832   3.496 -0.9341 -1.1770  0.6689
 7874TIP3    H245114   6.162   1.739   3.385 -0.5706 -0.4556  0.1994
 7875TIP3   OH245115   3.166   0.671   1.388  0.0064  0.4299  0.1687
 7875TIP3    H145116   3.137   0.588   1.351  1.1141 -0.3965  1.0812
 7875TIP3    H245117   3.103   0.736   1.355 -2.5636 -1.1568  1.6518
 7876TIP3   OH245118   5.066   5.217  14.733 -0.2324 -0.2456 -0.2173
 7876TIP3    H145119   5.035   5.274  14.663 -0.3102  0.0680  0.0711
 7876TIP3    H245120   5.029   5.131  14.712 -0.9153  0.0201 -0.1330
 7877TIP3   OH245121   6.224   4.695  13.256  0.3661  0.1128  0.0827
 7877TIP3    H145122   6.295   4.705  13.192 -1.0346 -1.7056 -1.8956
 7877TIP3    H245123   6.144   4.691  13.203 -1.2687  1.8351  2.1966
 7878TIP3   OH245124   5.637   0.459   5.955 -0.4793 -0.5916  0.1000
 7878TIP3    H145125   5.653   0.521   5.883  0.2736 -0.4459  0.3782
 7878TIP3    H245126   5.649   0.373   5.915 -0.3232 -0.5184 -0.0157
 7879TIP3   OH245127   6.094   5.610   5.477 -0.0152  0.7308 -0.3437
 7879TIP3    H145128   6.164   5.675   5.487  0.3526  0.4788 -1.1559
 7879TIP3    H245129   6.022   5.659   5.437 -0.5455  1.1383  1.0775
 7880TIP3   OH245130   2.621   3.586  14.517  0.2847 -0.1097 -0.3465
 7880TIP3    H145131   2.696   3.630  14.475  0.7013 -0.5631 -0.0893
 7880TIP3    H245132   2.576   3.655  14.565  1.5949 -0.1554  1.0023
 7881TIP3   OH245133   3.923   0.405   4.180 -0.2427  0.0836  0.0960
 7881TIP3    H145134   3.841   0.451   4.165 -0.7507 -1.3165 -1.8805
 7881TIP3    H245135   3.930   0.398   4.275 -1.5304  1.7038  0.3525
 7882TIP3   OH245136   6.101   4.860  12.757 -0.4749 -0.6626  0.0913
 7882TIP3    H145137   6.170   4.808  12.716 -0.1290 -0.0601 -0.1109
 7882TIP3    H245138   6.060   4.906  12.684 -0.6940 -0.5578  0.2814
 7883TIP3   OH245139   3.162   0.016  17.286  0.4104 -0.2495  0.2697
 7883TIP3    H145140   3.167  -0.079  17.298 -0.6154 -0.4920 -1.0521
 7883TIP3    H245141   3.245   0.040  17.246  0.5207 -0.6336  0.2629
 7884TIP3   OH245142   6.701   2.415   1.810  0.1996 -0.1877  0.1383
 7884TIP3    H145143   6.613   2.424   1.846  0.1197  0.0515 -0.1095
 7884TIP3    H245144   6.707   2.324   1.780  0.1907 -0.3263  0.5499
 7885TIP3   OH245145   4.447   0.383  13.775 -0.4168 -0.0408 -0.1822
 7885TIP3    H145146   4.462   0.394  13.869 -0.2350  0.7195 -0.2932
 7885TIP3    H245147   4.396   0.303  13.768 -3.2101  1.4995  0.8306
 7886TIP3   OH245148   1.731   0.730   2.762 -0.4638 -0.2682 -0.1371
 7886TIP3    H145149   1.745   0.823   2.752 -1.2446 -0.0103  0.8940
 7886TIP3    H245150   1.644   0.715   2.726 -0.9504 -0.3098  0.9884
 7887TIP3   OH245151   2.325   1.059  12.635 -0.5227 -0.2494  0.0557
 7887TIP3    H145152   2.335   0.978  12.684 -1.6002 -0.7903 -0.5919
 7887TIP3    H245153   2.413   1.076  12.599  0.4681  0.4894  2.5645
 7888TIP3   OH245154   0.182   4.478  11.337 -0.0297 -0.4271 -0.4035
 7888TIP3    H145155   0.199   4.384  11.330 -0.0491 -0.4860  0.2584
 7888TIP3    H245156   0.263   4.514  11.373 -1.6378 -0.9516  4.5952
 7889TIP3   OH245157   2.031   0.135   1.173 -0.0627 -0.4581  0.0891
 7889TIP3    H145158   2.092   0.083   1.120 -0.8333 -1.8340  0.4997
 7889TIP3    H245159   2.038   0.098   1.261 -0.5656  0.1997  0.4148
 7890TIP3   OH245160   1.261   1.024  13.059 -0.9576 -0.1506 -0.6993
 7890TIP3    H145161   1.165   1.018  13.052 -1.1301  0.8044  0.5762
 7890TIP3    H245162   1.286   0.948  13.111 -0.9420 -0.7129 -1.5054
 7891TIP3   OH245163   5.436   6.324  10.912 -0.5612 -0.3499 -0.0422
 7891TIP3    H145164   5.482   6.392  10.863 -2.6423  1.0272 -0.2260
 7891TIP3    H245165   5.398   6.268  10.845 -1.5477  0.2360  0.0056
 7892TIP3   OH245166   1.163   3.642   3.664  0.0623 -0.4585  0.5043
 7892TIP3    H145167   1.079   3.685   3.650 -0.9494 -1.8152  2.0161
 7892TIP3    H245168   1.195   3.677   3.748  0.9409 -0.0678  0.0202
 7893TIP3   OH245169   1.578   4.703  14.989  0.1369  0.5623  0.0049
 7893TIP3    H145170   1.617   4.753  15.060 -1.4119  1.1431  0.4878
 7893TIP3    H245171   1.565   4.766  14.919 -0.0665  0.4108 -0.0962
 7894TIP3   OH245172   0.860   6.134   2.449  0.5243 -0.0582  0.1553
 7894TIP3    H145173   0.870   6.209   2.391  3.1698 -1.1772 -0.9898
 7894TIP3    H245174   0.919   6.152   2.522 -1.6959  0.6566  1.9097
 7895TIP3   OH245175   1.905   3.598   4.744  0.3706 -0.4351  0.1013
 7895TIP3    H145176   1.860   3.588   4.828  0.3260 -0.1916  0.1067
 7895TIP3    H245177   1.993   3.627   4.768  0.2021  0.1431  0.0447
 7896TIP3   OH245178   0.070   5.403  16.492  0.2978 -0.4534  0.3317
 7896TIP3    H145179   0.110   5.483  16.457 -0.9281  0.2532  0.4880
 7896TIP3    H245180   0.142   5.356  16.534  1.2461  0.0454 -0.6799
 7897TIP3   OH245181   2.047   2.073  16.124 -0.0543 -0.1358 -0.2282
 7897TIP3    H145182   2.027   2.047  16.034  0.8116 -1.1131 -0.1592
 7897TIP3    H245183   2.090   2.158  16.116 -0.5884  0.0979 -0.6719
 7898TIP3   OH245184   3.704   6.685   1.488 -0.0300 -0.1557 -0.3907
 7898TIP3    H145185   3.675   6.707   1.577  0.5776 -0.6616 -0.0583
 7898TIP3    H245186   3.624   6.687   1.436 -0.3399  0.4731  0.1023
 7899TIP3   OH245187   2.698   3.826   4.979  0.6215  0.0331 -0.1404
 7899TIP3    H145188   2.772   3.790   4.931 -0.5455 -0.7499 -1.4560
 7899TIP3    H245189   2.644   3.750   5.001 -0.1009  0.6355  0.2387
 7900TIP3   OH245190   2.341   3.520  12.488  0.6333 -0.0643  0.0957
 7900TIP3    H145191   2.346   3.613  12.509 -0.7193  0.4082 -1.4360
 7900TIP3    H245192   2.370   3.515  12.397 -0.3832 -0.9548 -0.2043
 7901TIP3   OH245193   0.700   1.623   5.632  0.0347 -1.0303 -0.4210
 7901TIP3    H145194   0.779   1.600   5.681 -0.5800  1.4421  1.9715
 7901TIP3    H245195   0.723   1.705   5.587 -0.8164 -0.8714 -0.5758
 7902TIP3   OH245196   6.071   5.850   2.533 -0.0106  0.3906  0.3576
 7902TIP3    H145197   6.076   5.780   2.598 -0.3767  1.1313  1.1998
 7902TIP3    H245198   6.160   5.856   2.497  0.6671  1.1225  2.0524
 7903TIP3   OH245199   4.051   0.161   4.077 -0.0007  0.1675 -0.1046
 7903TIP3    H145200   3.995   0.226   4.119 -1.2792 -1.9503  1.6874
 7903TIP3    H245201   4.138   0.202   4.074 -0.7452  1.9226  0.9095
 7904TIP3   OH245202   1.835   3.503  12.761 -0.3767  0.0148  0.1592
 7904TIP3    H145203   1.809   3.426  12.811  0.9588 -0.4093  0.2364
 7904TIP3    H245204   1.890   3.468  12.691 -0.1569  0.8500 -0.0913
 7905TIP3   OH245205   0.158   3.047  15.361  0.6363 -0.3037 -0.5639
 7905TIP3    H145206   0.099   3.056  15.286 -0.5337 -2.3756  0.0057
 7905TIP3    H245207   0.236   3.006  15.325  0.9725  0.6854 -0.9931
 7906TIP3   OH245208   6.204   2.009   4.056 -0.0169  0.5677 -0.1094
 7906TIP3    H145209   6.134   1.945   4.043  1.2375 -0.7355 -0.7095
 7906TIP3    H245210   6.228   1.998   4.148  0.6392 -0.3430 -0.3694
 7907TIP3   OH245211   6.099   0.294   6.561  0.0171  0.2490 -0.0210
 7907TIP3    H145212   6.030   0.232   6.585  1.9997 -1.4079  1.7164
 7907TIP3    H245213   6.166   0.240   6.520  1.5107  1.3326  0.9161
 7908TIP3   OH245214   3.903   2.945   5.685  0.1104 -0.0774  0.3463
 7908TIP3    H145215   3.870   3.031   5.711 -0.1421  0.3068 -1.1473
 7908TIP3    H245216   3.986   2.936   5.731 -0.5958  0.2625  1.7669
 7909TIP3   OH245217   1.006   6.198  14.846 -0.2968 -0.2561  0.0215
 7909TIP3    H145218   1.011   6.137  14.920 -0.8695  1.1876  1.3189
 7909TIP3    H245219   0.933   6.256  14.868  0.8700  1.5524 -0.6338
 7910TIP3   OH245220   5.224   5.992   0.343  0.3049  0.2458 -0.0460
 7910TIP3    H145221   5.264   5.914   0.305  2.0799 -0.0193  2.1692
 7910TIP3    H245222   5.130   5.972   0.348 -0.4741  0.9594 -5.5582
 7911TIP3   OH245223   6.527   0.135  15.937 -0.1241  0.5712 -0.0034
 7911TIP3    H145224   6.522   0.039  15.938  2.5721  0.3261 -1.1976
 7911TIP3    H245225   6.470   0.161  15.865 -1.5994 -0.0155  0.9057
 7912TIP3   OH245226   2.184   3.047  15.848 -0.4618  0.1292 -0.4707
 7912TIP3    H145227   2.156   3.030  15.758  0.4068 -1.2446 -0.4999
 7912TIP3    H245228   2.261   3.104  15.839 -1.3947  1.4291 -0.5017
 7913TIP3   OH245229   0.616   6.542   5.460 -0.1148 -0.3149  0.1495
 7913TIP3    H145230   0.526   6.511   5.447 -0.5116 -1.3313  4.0062
 7913TIP3    H245231   0.607   6.638   5.463 -0.9191 -0.3650 -0.2649
 7914TIP3   OH245232   6.500   4.595  12.328  0.7369 -0.2774 -0.3181
 7914TIP3    H145233   6.500   4.639  12.413 -1.2731  1.0211 -0.9110
 7914TIP3    H245234   6.416   4.548  12.325  0.9769 -0.6735 -1.3804
 7915TIP3   OH245235   6.416   3.803  12.904 -0.4053  0.9528  0.3588
 7915TIP3    H145236   6.330   3.828  12.871 -0.3288  0.1336 -0.5134
 7915TIP3    H245237   6.424   3.710  12.884 -0.1992  0.4819  2.4333
 7916TIP3   OH245238   1.370   2.821  11.895 -0.1830  0.7662  0.8285
 7916TIP3    H145239   1.445   2.783  11.850 -2.5581 -3.5486 -0.0158
 7916TIP3    H245240   1.326   2.874  11.828 -1.1279 -1.7641 -0.6681
 7917TIP3   OH245241   6.100   0.331   1.600  0.0072  0.1516 -0.2987
 7917TIP3    H145242   6.026   0.316   1.659 -0.2042 -2.1490 -1.0591
 7917TIP3    H245243   6.176   0.338   1.657 -0.1773 -2.1205  0.2959
 7918TIP3   OH245244   2.476   0.561   1.457  0.5696 -0.2226 -0.1524
 7918TIP3    H145245   2.555   0.517   1.426 -0.4802 -2.0277 -0.4159
 7918TIP3    H245246   2.501   0.599   1.541  1.8279 -0.3808 -0.4312
 7919TIP3   OH245247   6.350   5.279   2.929 -0.0783  0.1207  0.0664
 7919TIP3    H145248   6.317   5.355   2.978  0.5100 -0.6717  1.7669
 7919TIP3    H245249   6.429   5.253   2.976  1.1322 -0.0775 -1.9349
 7920TIP3   OH245250   4.564   1.037   5.169 -0.1701  0.6273 -0.4647
 7920TIP3    H145251   4.553   0.951   5.130 -1.9552 -0.1213  1.5361
 7920TIP3    H245252   4.599   1.020   5.257  0.2230  2.0162 -0.3228
 7921TIP3   OH245253   0.212   6.216  12.794 -0.5085  0.1069  0.7309
 7921TIP3    H145254   0.223   6.240  12.702  0.5077  0.6698  0.9891
 7921TIP3    H245255   0.123   6.179  12.799 -0.7731  0.5715 -0.3619
 7922TIP3   OH245256   5.426   4.706  14.194 -0.3178 -0.3542 -0.4106
 7922TIP3    H145257   5.502   4.693  14.137  0.4014 -0.8625  0.6430
 7922TIP3    H245258   5.422   4.627  14.247  0.2243  0.9125  1.6188
 7923TIP3   OH245259   2.185   3.273   6.749 -0.0063  0.7414 -0.4235
 7923TIP3    H145260   2.152   3.185   6.731 -1.3226  0.9846  0.6648
 7923TIP3    H245261   2.239   3.294   6.673  0.0308 -0.8461 -0.8816
 7924TIP3   OH245262   0.574   4.819  15.516  0.2821  0.1546  0.0194
 7924TIP3    H145263   0.607   4.882  15.580  1.6462 -0.0647 -0.4493
 7924TIP3    H245264   0.650   4.796  15.463  0.0873 -2.6606  0.8025
 7925TIP3   OH245265   3.819   0.841  15.518  0.1924 -0.3014 -0.3591
 7925TIP3    H145266   3.883   0.770  15.528  0.8928  0.0364 -2.1129
 7925TIP3    H245267   3.872   0.920  15.513 -0.3225 -0.0153 -1.8404
 7926TIP3   OH245268   3.133   5.687   1.861  0.0123  0.5582 -0.1085
 7926TIP3    H145269   3.212   5.673   1.913  0.5549 -1.4440 -1.3769
 7926TIP3    H245270   3.155   5.762   1.805  1.1795 -0.1554 -0.6611
 7927TIP3   OH245271   0.669   3.252   4.991 -0.6228 -0.2434  0.4896
 7927TIP3    H145272   0.611   3.198   4.937 -0.4118 -1.9021  1.8577
 7927TIP3    H245273   0.618   3.271   5.070 -0.0777  0.1244  0.7586
 7928TIP3   OH245274   0.305   6.515   1.576  0.1113  0.4161 -0.1673
 7928TIP3    H145275   0.218   6.489   1.544  0.2267  0.4252 -0.4905
 7928TIP3    H245276   0.303   6.611   1.574 -0.3824  0.4622  1.2054
 7929TIP3   OH245277   1.575   2.427   3.853  0.0504  0.4514 -0.6123
 7929TIP3    H145278   1.653   2.452   3.804 -1.2852  1.4344 -2.3642
 7929TIP3    H245279   1.519   2.382   3.789 -1.1164  0.3965  0.3936
 7930TIP3   OH245280   5.894   2.532  11.969  0.2438 -0.3737 -0.1691
 7930TIP3    H145281   5.871   2.615  12.010 -0.8815 -0.8355  0.1440
 7930TIP3    H245282   5.965   2.496  12.023  0.7556  0.3787 -0.3249
 7931TIP3   OH245283   5.064   4.319   0.384 -0.3202  0.1652 -0.8579
 7931TIP3    H145284   5.065   4.227   0.410 -0.6557  0.2820 -0.4235
 7931TIP3    H245285   5.014   4.320   0.303 -0.9614  0.0615 -0.4711
 7932TIP3   OH245286   5.142   3.576   1.429  0.6480  1.1617  0.2572
 7932TIP3    H145287   5.209   3.640   1.456  1.7466 -0.4573  1.5773
 7932TIP3    H245288   5.192   3.496   1.410 -0.7199  0.5723 -0.9926
 7933TIP3   OH245289   0.136   6.751  16.985  0.4527 -0.3717 -0.6059
 7933TIP3    H145290   0.140   6.670  16.933  1.8534 -2.0928  1.9379
 7933TIP3    H245291   0.080   6.730  17.059 -0.0502  1.3942 -0.4399
 7934TIP3   OH245292   3.727   2.799  13.351  0.0779 -0.3072  0.6704
 7934TIP3    H145293   3.754   2.885  13.318 -2.1562  0.9432  1.8643
 7934TIP3    H245294   3.789   2.779  13.421  4.0252 -2.3564 -2.9735
 7935TIP3   OH245295   1.532   6.057  14.195 -0.5024 -0.1734 -1.1432
 7935TIP3    H145296   1.483   5.980  14.167  0.7216 -0.3723 -2.8475
 7935TIP3    H245297   1.496   6.129  14.143  0.5360 -0.2056 -1.9328
 7936TIP3   OH245298   4.972   2.072  12.310  0.3668 -0.6890  0.2905
 7936TIP3    H145299   4.897   2.016  12.291  0.2972 -1.5102  2.6589
 7936TIP3    H245300   4.945   2.122  12.387  1.3527  0.8394 -0.3272
 7937TIP3   OH245301   5.296   2.969   2.496  0.8146 -0.2565 -0.0290
 7937TIP3    H145302   5.299   3.015   2.579  1.5672 -0.9109  0.3125
 7937TIP3    H245303   5.379   2.991   2.453 -0.0662  1.0613 -1.1661
 7938TIP3   OH245304   6.811   2.745  11.657 -0.8265  0.1102 -0.2306
 7938TIP3    H145305   6.730   2.783  11.621 -2.0914 -1.4036  0.8694
 7938TIP3    H245306   6.803   2.758  11.752  0.0756 -0.3550 -0.0834
 7939TIP3   OH245307   3.773   5.347  15.548  0.2569 -0.1724  0.0427
 7939TIP3    H145308   3.817   5.421  15.506  0.5899 -0.6350 -0.4288
 7939TIP3    H245309   3.723   5.387  15.620 -0.9655  0.7174 -1.2604
 7940TIP3   OH245310   2.332   0.837  11.599 -0.0583 -0.4674 -0.0818
 7940TIP3    H145311   2.270   0.856  11.670  1.4173 -0.2966  1.1981
 7940TIP3    H245312   2.316   0.745  11.577 -0.6851 -0.4543  0.3039
 7941TIP3   OH245313   6.008   5.180   4.344 -0.3897  0.0174  0.1640
 7941TIP3    H145314   5.946   5.209   4.411  0.1267 -0.1369  0.7189
 7941TIP3    H245315   5.971   5.097   4.312 -0.1287 -0.4250  0.9763
 7942TIP3   OH245316   3.567   2.204   6.415 -0.6024 -0.1467 -0.4661
 7942TIP3    H145317   3.608   2.277   6.460 -1.0058 -0.1950 -0.0159
 7942TIP3    H245318   3.633   2.135   6.415 -0.9525 -0.5149  0.9922
 7943TIP3   OH245319   4.661   1.663   1.309 -0.2938 -0.0145 -0.2731
 7943TIP3    H145320   4.665   1.627   1.221 -0.8971 -0.1071 -0.2692
 7943TIP3    H245321   4.746   1.705   1.322  0.0919 -0.6748 -0.6054
 7944TIP3   OH245322   3.140   0.889  17.132  0.1891  0.2811 -0.2945
 7944TIP3    H145323   3.185   0.957  17.083  2.2113 -1.3115 -0.7616
 7944TIP3    H245324   3.173   0.897  17.222 -0.4778  0.6342 -0.0683
 7945TIP3   OH245325   4.561   2.983   5.916  0.4922  0.1589  0.5018
 7945TIP3    H145326   4.529   2.901   5.880 -0.7276  0.6765  0.3732
 7945TIP3    H245327   4.486   3.023   5.959  1.3741  0.6296  1.6774
 7946TIP3   OH245328   1.453   3.169   5.121  0.0827  0.5443 -0.4547
 7946TIP3    H145329   1.421   3.120   5.197  1.1690 -1.4573 -1.2113
 7946TIP3    H245330   1.374   3.199   5.076 -0.7025 -1.4941 -0.5355
 7947TIP3   OH245331   4.640   5.551  16.301  0.0976  0.1089 -0.2997
 7947TIP3    H145332   4.693   5.573  16.224  0.9581 -0.7952  0.0155
 7947TIP3    H245333   4.704   5.542  16.372 -0.7503  1.7852  0.7525
 7948TIP3   OH245334   4.675   1.343   1.865 -0.0032  0.4269 -0.2326
 7948TIP3    H145335   4.676   1.251   1.892 -2.0477  0.6501  0.8326
 7948TIP3    H245336   4.591   1.376   1.897  1.1353  2.9712  0.3691
 7949TIP3   OH245337   0.894   5.312   4.267 -0.0722  0.3695  0.4382
 7949TIP3    H145338   0.861   5.277   4.349  1.1306 -0.3458  0.6399
 7949TIP3    H245339   0.965   5.253   4.242 -1.3324 -0.3084 -1.8924
 7950TIP3   OH245340   4.157   5.585  15.789 -0.7865 -0.7763 -1.0132
 7950TIP3    H145341   4.186   5.508  15.741 -2.1676 -3.4502  2.0829
 7950TIP3    H245342   4.067   5.600  15.760 -0.1666  0.4633 -2.4187
 7951TIP3   OH245343   5.900   0.927  15.059 -0.0130 -0.5107  0.3169
 7951TIP3    H145344   5.821   0.953  15.106 -0.4569 -1.9791  0.4477
 7951TIP3    H245345   5.894   0.973  14.975 -0.2747  0.4914  0.8719
 7952TIP3   OH245346   1.093   1.944   6.700 -0.2082 -0.1071  0.4564
 7952TIP3    H145347   1.184   1.970   6.686 -0.4618  0.6655  0.1927
 7952TIP3    H245348   1.064   1.995   6.775  0.2353 -2.0202  2.0098
 7953TIP3   OH245349   6.568   1.042   0.535  0.1648  0.1271  0.1992
 7953TIP3    H145350   6.594   1.073   0.448  1.4826 -0.4178  0.3729
 7953TIP3    H245351   6.642   1.065   0.591 -1.1199  1.4735  1.4417
 7954TIP3   OH245352   4.678   3.731  12.104  0.5043 -0.4216  0.1425
 7954TIP3    H145353   4.632   3.815  12.107 -0.4577 -0.9595  1.1036
 7954TIP3    H245354   4.644   3.682  12.178  0.3847 -2.0160 -0.9095
 7955TIP3   OH245355   5.875   6.664  12.434 -0.6504  0.5384 -0.1295
 7955TIP3    H145356   5.897   6.685  12.525 -1.1956  0.5424  0.0043
 7955TIP3    H245357   5.824   6.583  12.440  2.8490 -1.9572 -0.7694
 7956TIP3   OH245358   0.521   5.529   0.060 -0.2766 -0.5099  0.1221
 7956TIP3    H145359   0.546   5.473  -0.014 -1.3117 -1.2118  0.2800
 7956TIP3    H245360   0.601   5.537   0.112 -0.5816 -3.7437  1.3147
 7957TIP3   OH245361   0.931   4.303  12.338  0.0339 -0.2634  0.0755
 7957TIP3    H145362   0.851   4.316  12.287  0.2588  0.2154 -0.1525
 7957TIP3    H245363   1.002   4.326  12.279  0.2699  1.0497  0.8425
 7958TIP3   OH245364   3.205   6.330   2.648 -0.0087  0.5959 -0.4607
 7958TIP3    H145365   3.185   6.378   2.568  1.1627  1.7812 -0.0687
 7958TIP3    H245366   3.283   6.279   2.627  0.2371  0.8240 -0.1203
 7959TIP3   OH245367   4.943   3.170  11.779  0.3951 -0.5891 -0.6553
 7959TIP3    H145368   4.883   3.201  11.847  0.5449  0.2801 -0.9094
 7959TIP3    H245369   4.994   3.248  11.754  0.8143 -1.0511 -1.2762
 7960TIP3   OH245370   6.117   3.427   2.080 -0.2435  0.0202  0.4829
 7960TIP3    H145371   6.118   3.426   2.176  2.0218  1.7271  0.5405
 7960TIP3    H245372   6.046   3.366   2.057 -1.1545 -0.0986  3.2121
 7961TIP3   OH245373   2.991   1.656  17.037 -0.1755  0.3262 -0.0323
 7961TIP3    H145374   2.955   1.592  17.099 -0.0082  0.0041 -0.2631
 7961TIP3    H245375   3.049   1.711  17.090 -0.5937  0.5076  0.2365
 7962TIP3   OH245376   2.125   3.751  16.304 -0.3970  0.1322  0.3168
 7962TIP3    H145377   2.203   3.748  16.360 -1.4445 -2.4969  1.7635
 7962TIP3    H245378   2.053   3.722  16.359 -1.4395 -3.0326 -2.3825
 7963TIP3   OH245379   2.003   0.151   5.898  0.4539  1.0855  0.3313
 7963TIP3    H145380   2.040   0.172   5.812 -0.0757  2.5366  0.4312
 7963TIP3    H245381   1.920   0.108   5.879  0.9227  0.2312  0.1321
 7964TIP3   OH245382   5.918   5.629  11.552  0.1258  0.1089 -0.2472
 7964TIP3    H145383   5.942   5.678  11.473 -2.3265 -1.2667 -1.9580
 7964TIP3    H245384   5.947   5.540  11.535 -0.3491 -0.1901  0.4636
 7965TIP3   OH245385   6.747   3.839   0.738 -0.1282  0.0404 -0.1571
 7965TIP3    H145386   6.751   3.783   0.815  0.4334 -1.5682 -1.2848
 7965TIP3    H245387   6.839   3.863   0.721 -0.4945  2.8699  1.3263
 7966TIP3   OH245388   6.341   4.763   2.987  0.4469  0.0740  0.4444
 7966TIP3    H145389   6.411   4.715   2.944  1.9922  0.2375  2.6158
 7966TIP3    H245390   6.385   4.838   3.028 -1.1012  0.5538  1.3206
 7967TIP3   OH245391   4.138   1.559  13.915 -0.1911 -0.2027  0.7063
 7967TIP3    H145392   4.148   1.653  13.900 -1.4674 -0.1853 -0.1173
 7967TIP3    H245393   4.113   1.552  14.007 -1.4770  0.3793  0.4176
 7968TIP3   OH245394   1.176   5.049   1.651  0.1823 -0.1013 -0.5680
 7968TIP3    H145395   1.102   4.988   1.653  0.2765 -0.2005  0.3574
 7968TIP3    H245396   1.144   5.127   1.696  0.8008 -0.3433  0.3113
 7969TIP3   OH245397   5.772   4.101   0.085 -0.5442  0.1016 -0.3340
 7969TIP3    H145398   5.857   4.117   0.125  0.4331 -0.8274 -1.8880
 7969TIP3    H245399   5.739   4.022   0.129 -0.7604  0.6348  0.4776
 7970TIP3   OH245400   0.125   6.558   5.004 -0.0240  0.4360 -0.3356
 7970TIP3    H145401   0.095   6.467   4.997 -0.2811  0.6509 -2.9043
 7970TIP3    H245402   0.072   6.595   5.074  0.4405 -1.4885  1.1206
 7971TIP3   OH245403   5.274   0.919   4.296 -0.3198 -0.0007 -0.1806
 7971TIP3    H145404   5.241   0.905   4.207 -0.9660  0.2060  0.0148
 7971TIP3    H245405   5.309   0.835   4.323  2.4985  0.5953 -1.6559
 7972TIP3   OH245406   6.554   4.625   6.280 -0.2344 -0.6129  0.8063
 7972TIP3    H145407   6.635   4.662   6.315 -0.6056 -0.7850  1.9097
 7972TIP3    H245408   6.581   4.575   6.203  0.9500 -2.0049  2.0692
 7973TIP3   OH245409   2.351   6.775   5.449 -0.6154 -0.0657 -0.6016
 7973TIP3    H145410   2.399   6.850   5.414 -1.6565  1.4695  1.0895
 7973TIP3    H245411   2.259   6.801   5.445 -1.2350 -2.2150 -2.0758
 7974TIP3   OH245412   1.685   2.569   2.321  0.4753 -0.0763  0.3227
 7974TIP3    H145413   1.693   2.513   2.245  1.4747  0.6242 -0.1139
 7974TIP3    H245414   1.605   2.540   2.365 -0.5539  0.0327 -1.4150
 7975TIP3   OH245415   3.279   2.685   0.484 -0.0036 -0.4669  0.6003
 7975TIP3    H145416   3.222   2.758   0.510 -0.9874 -1.1310  0.3689
 7975TIP3    H245417   3.238   2.650   0.405  1.4931 -0.1302 -0.3551
 7976TIP3   OH245418   1.391   5.724   0.384  0.0893  0.2043 -0.1217
 7976TIP3    H145419   1.484   5.711   0.365  0.2763  0.6172  0.4902
 7976TIP3    H245420   1.347   5.706   0.301  0.5255 -1.8619  0.0226
 7977TIP3   OH245421   4.403   0.356   2.171  0.9034  0.0042 -0.1947
 7977TIP3    H145422   4.355   0.326   2.094  0.6200 -0.1029  0.0184
 7977TIP3    H245423   4.490   0.377   2.139  0.6424  0.4465 -0.6466
 7978TIP3   OH245424   0.937   5.913  16.507  0.1290  0.6569 -0.3156
 7978TIP3    H145425   0.863   5.973  16.502 -0.1846  0.2215 -1.2225
 7978TIP3    H245426   0.932   5.876  16.595  1.1758  2.9758  0.7807
 7979TIP3   OH245427   5.547   2.554   3.097 -0.2090  0.1711 -0.1086
 7979TIP3    H145428   5.557   2.566   3.003  0.3095 -0.7793 -0.1843
 7979TIP3    H245429   5.549   2.459   3.110  2.9267  0.3002  1.1557
 7980TIP3   OH245430   6.717   1.826   2.786 -0.2647 -0.0724  0.5056
 7980TIP3    H145431   6.766   1.838   2.705 -0.1232  0.2398  0.6351
 7980TIP3    H245432   6.772   1.771   2.840 -1.0916 -1.7373 -0.2458
 7981TIP3   OH245433   4.950   4.436   3.238  0.5683 -1.0539  0.9411
 7981TIP3    H145434   5.000   4.513   3.210 -0.5209 -1.0799 -1.2980
 7981TIP3    H245435   4.859   4.458   3.220  0.2246 -2.8739  0.2136
 7982TIP3   OH245436   2.915   4.067  13.515  0.5554 -0.0785  0.0188
 7982TIP3    H145437   2.959   4.052  13.432  0.7496 -0.9207  0.2587
 7982TIP3    H245438   2.841   4.005  13.515  0.4223  0.0734  0.3671
 7983TIP3   OH245439   3.894   4.560   0.969  0.5355 -0.3447 -0.2768
 7983TIP3    H145440   3.813   4.527   0.930 -0.2734  2.3688 -1.1415
 7983TIP3    H245441   3.926   4.488   1.023 -2.6939 -1.3795  0.4755
 7984TIP3   OH245442   0.190   4.720  12.128 -0.4999 -0.5495  0.2661
 7984TIP3    H145443   0.124   4.695  12.193  0.0039  1.2549  1.5384
 7984TIP3    H245444   0.185   4.816  12.125  1.4610 -0.4297 -0.2428
 7985TIP3   OH245445   4.443   5.582  12.601  0.0571  0.1143 -0.7409
 7985TIP3    H145446   4.491   5.613  12.525  1.3708 -0.8288 -0.3172
 7985TIP3    H245447   4.507   5.533  12.653 -1.6347 -2.4976 -0.9008
 7986TIP3   OH245448   1.583   2.553   2.946  0.1347  0.7127  0.4478
 7986TIP3    H145449   1.583   2.556   2.850  0.7917 -0.6535  0.3803
 7986TIP3    H245450   1.671   2.581   2.971  0.2329  0.2715  0.6083
 7987TIP3   OH245451   5.527   1.654  10.532 -0.2150  0.0872  0.1292
 7987TIP3    H145452   5.575   1.688  10.608 -1.8421  0.1131  1.2047
 7987TIP3    H245453   5.497   1.567  10.559  0.1522 -0.3893 -0.9388
 7988TIP3   OH245454   0.339   5.774   3.109  0.0892  0.4000 -0.2710
 7988TIP3    H145455   0.327   5.860   3.068 -0.8516 -0.1150 -1.1074
 7988TIP3    H245456   0.434   5.761   3.107  0.3175  1.7030  0.5034
 7989TIP3   OH245457   2.059   2.000  13.019 -0.3173 -0.4622 -0.0820
 7989TIP3    H145458   2.006   1.921  13.015 -1.2027  0.1464 -0.8443
 7989TIP3    H245459   2.142   1.976  12.977 -0.5077 -1.0378 -0.1275
 7990TIP3   OH245460   5.634   5.807  14.969  0.9156  0.0120  0.4130
 7990TIP3    H145461   5.650   5.755  15.048  3.0593  0.5702  0.4081
 7990TIP3    H245462   5.690   5.884  14.980 -1.8193  2.1463  0.1961
 7991TIP3   OH245463   6.567   4.411  10.647  0.2780 -1.0092  0.2934
 7991TIP3    H145464   6.545   4.481  10.587  2.1155 -0.1713  0.5430
 7991TIP3    H245465   6.506   4.422  10.721 -0.5733 -0.7652 -0.4262
 7992TIP3   OH245466   4.750   5.429  16.754  0.2027 -0.1426 -0.5569
 7992TIP3    H145467   4.699   5.422  16.674 -1.6667  0.0974  0.5630
 7992TIP3    H245468   4.729   5.349  16.803  1.3600 -0.3078 -0.3026
 7993TIP3   OH245469   0.263   1.982   2.077  0.1934  0.0927 -0.5327
 7993TIP3    H145470   0.168   1.988   2.074  0.0347 -0.3573  1.5391
 7993TIP3    H245471   0.281   1.888   2.075  0.7568  0.1991 -2.8229
 7994TIP3   OH245472   4.736   6.302  15.240 -0.2250  0.1903  0.0925
 7994TIP3    H145473   4.676   6.230  15.257 -0.6316  0.2834 -0.8936
 7994TIP3    H245474   4.680   6.379  15.233  0.2167  0.6527  1.3059
 7995TIP3   OH245475   3.208   3.772  15.819  0.4787 -0.0110 -0.1052
 7995TIP3    H145476   3.224   3.809  15.732 -0.4452 -0.4428 -0.4682
 7995TIP3    H245477   3.218   3.847  15.878  0.4023  0.4420 -0.6487
 7996TIP3   OH245478   4.665   4.172   6.091 -0.3741  0.3348  0.6126
 7996TIP3    H145479   4.718   4.165   6.170 -0.8445  0.6905  0.9562
 7996TIP3    H245480   4.576   4.184   6.122 -0.9060 -1.7055  0.0615
 7997TIP3   OH245481   0.397   6.423   4.525  0.2409  0.5243 -0.0786
 7997TIP3    H145482   0.414   6.344   4.576 -1.9305  0.4990  0.7153
 7997TIP3    H245483   0.428   6.402   4.437 -0.5817 -1.3777  0.0306
 7998TIP3   OH245484   1.662   2.652   1.604  0.0318  0.6309  0.4259
 7998TIP3    H145485   1.719   2.601   1.546 -0.0369  0.4482  0.5189
 7998TIP3    H245486   1.706   2.650   1.689 -0.6981 -0.5307  0.8076
 7999TIP3   OH245487   5.816   1.314   1.337  0.4152  0.0425 -0.1682
 7999TIP3    H145488   5.771   1.359   1.409 -0.3582  1.2367 -1.3504
 7999TIP3    H245489   5.764   1.336   1.260  1.1103 -1.3893 -1.0692
 8000TIP3   OH245490   5.102   0.489   4.321  0.0102  0.0267 -0.0940
 8000TIP3    H145491   5.093   0.552   4.250  2.3839 -0.7765 -1.2271
 8000TIP3    H245492   5.196   0.484   4.337 -0.2371 -1.9838  1.1103
 8001TIP3   OH245493   5.522   2.649  15.668  0.3561 -0.4114  0.2111
 8001TIP3    H145494   5.607   2.684  15.695  0.0843  0.6980 -0.3297
 8001TIP3    H245495   5.537   2.554  15.661  0.9700 -0.5048  2.1781
 8002TIP3   OH245496   6.174   1.659  15.236  0.2006  0.2465 -0.5622
 8002TIP3    H145497   6.239   1.700  15.179  0.1454  0.8018 -0.2218
 8002TIP3    H245498   6.199   1.684  15.324 -0.5286  0.5346 -0.4359
 8003TIP3   OH245499   4.769   1.710  15.469  0.1301  0.5238  0.1020
 8003TIP3    H145500   4.750   1.734  15.378  0.0891 -1.0768 -0.3392
 8003TIP3    H245501   4.853   1.664  15.465 -0.1965 -0.1512  0.7553
 8004TIP3   OH245502   4.737   4.856  12.808  0.0920  0.1706  0.0508
 8004TIP3    H145503   4.670   4.798  12.843  0.5233 -0.5067 -0.2352
 8004TIP3    H245504   4.735   4.842  12.713 -1.3042  2.2375 -0.2967
 8005TIP3   OH245505   4.092   0.033   4.825 -0.0040 -0.2635 -0.0882
 8005TIP3    H145506   4.155  -0.036   4.802  0.6001  0.9312 -2.2908
 8005TIP3    H245507   4.142   0.091   4.883  1.1392  0.8146 -2.0200
 8006TIP3   OH245508   4.537   1.005  13.971 -0.3451 -0.2353  0.1981
 8006TIP3    H145509   4.574   1.083  14.013 -1.2608  0.3504 -0.0421
 8006TIP3    H245510   4.581   0.932  14.013  1.7964  0.4272 -0.7477
 8007TIP3   OH245511   1.962   5.975  13.422  0.2236 -0.1751 -0.1879
 8007TIP3    H145512   1.982   5.882  13.427  0.3583 -0.1608 -0.4114
 8007TIP3    H245513   1.952   6.003  13.513  0.3040 -0.3809 -0.1146
 8008TIP3   OH245514   3.595   1.432   0.323 -0.1506  0.2430  0.0455
 8008TIP3    H145515   3.685   1.464   0.315 -0.0924  0.7263  2.0680
 8008TIP3    H245516   3.557   1.443   0.236  1.3486  1.2728 -0.5121
 8009TIP3   OH245517   1.859   4.312  15.368 -0.3241  0.0313 -0.5629
 8009TIP3    H145518   1.907   4.270  15.296 -0.5468  0.0168 -0.7030
 8009TIP3    H245519   1.770   4.324  15.334 -1.0565 -2.0481  0.5012
 8010TIP3   OH245520   1.880   5.592   0.885 -0.7313 -0.6328 -1.0050
 8010TIP3    H145521   1.851   5.622   0.799  0.9587 -1.0839 -1.7766
 8010TIP3    H245522   1.975   5.605   0.885 -0.2132 -3.5830 -0.4678
 8011TIP3   OH245523   3.042   2.967  11.609  0.5012 -0.1061  0.1667
 8011TIP3    H145524   3.130   2.964  11.570 -0.1606  0.4360 -1.4806
 8011TIP3    H245525   2.993   2.900  11.561 -0.2720  0.3726  0.2864
 8012TIP3   OH245526   4.666   5.098  16.558  0.0612 -0.6879 -0.1022
 8012TIP3    H145527   4.753   5.139  16.555 -0.5219  0.5843 -0.1840
 8012TIP3    H245528   4.660   5.049  16.476  1.6392 -2.8475  0.9721
 8013TIP3   OH245529   1.501   0.470   2.760 -0.3463 -0.2098  0.4300
 8013TIP3    H145530   1.517   0.559   2.794  0.8260  0.5557 -1.8811
 8013TIP3    H245531   1.409   0.472   2.732 -1.1215 -0.6341  2.6887
 8014TIP3   OH245532   6.440   4.100  15.706 -0.2031  0.5657  0.1541
 8014TIP3    H145533   6.394   4.023  15.671 -0.1475  1.2107 -1.4557
 8014TIP3    H245534   6.391   4.174  15.671  0.4789  1.2617  0.6487
 8015TIP3   OH245535   6.143   2.158   0.302 -0.3996  0.2179  0.2472
 8015TIP3    H145536   6.183   2.072   0.287  1.8011  1.1537  0.3745
 8015TIP3    H245537   6.117   2.156   0.395 -0.2456 -0.2694  0.2839
 8016TIP3   OH245538   3.886   6.716   0.023 -0.1177 -0.3326 -0.3692
 8016TIP3    H145539   3.815   6.682   0.077  0.6451 -0.6114  0.4788
 8016TIP3    H245540   3.920   6.791   0.072 -0.4508  0.3982 -1.2363
 8017TIP3   OH245541   5.313   5.001   0.347  0.1069 -0.2600  0.1418
 8017TIP3    H145542   5.382   4.941   0.374  1.0523  0.5131 -0.5177
 8017TIP3    H245543   5.287   5.046   0.427  1.6123  0.7097  0.1044
 8018TIP3   OH245544   1.115   2.400  12.897  0.0310  0.6073 -0.5148
 8018TIP3    H145545   1.020   2.405  12.885 -0.0404  1.1604  0.2044
 8018TIP3    H245546   1.146   2.489  12.878  0.4443  0.3508 -1.0464
 8019TIP3   OH245547   2.567   5.667   5.901 -0.0815  0.3080  0.7479
 8019TIP3    H145548   2.595   5.594   5.846 -2.3154 -0.9619  1.1760
 8019TIP3    H245549   2.558   5.628   5.989  0.5525  1.5812  1.3970
 8020TIP3   OH245550   3.818   4.974  16.008 -0.2467 -0.2233 -0.0961
 8020TIP3    H145551   3.777   5.030  16.075 -0.4648 -0.0363 -0.3857
 8020TIP3    H245552   3.865   5.036  15.951  0.0132 -0.3907 -0.0629
 8021TIP3   OH245553   1.595   0.044  13.313 -0.6786 -0.5265 -0.0615
 8021TIP3    H145554   1.647   0.073  13.388 -1.8957 -0.5747  0.8349
 8021TIP3    H245555   1.614  -0.049  13.305 -0.3844 -0.4774  0.0545
 8022TIP3   OH245556   4.800   2.384  11.846  0.2165 -0.0662  0.3225
 8022TIP3    H145557   4.827   2.385  11.754  1.1447  1.4127  0.5702
 8022TIP3    H245558   4.825   2.297  11.878  0.7087 -0.2709 -0.5948
 8023TIP3   OH245559   2.500   5.561  13.725  0.2069  0.2814  0.4496
 8023TIP3    H145560   2.573   5.590  13.780  0.3574  1.4893 -0.3308
 8023TIP3    H245561   2.426   5.552  13.785 -0.2041  3.6633  0.6424
 8024TIP3   OH245562   0.222   1.209   3.105  0.3018  0.3198  0.6220
 8024TIP3    H145563   0.221   1.118   3.075 -1.2288  1.1339 -2.1910
 8024TIP3    H245564   0.143   1.218   3.159 -1.6559  0.6961 -2.0625
 8025TIP3   OH245565   2.141   0.612   3.707 -0.0944 -0.1091 -0.1129
 8025TIP3    H145566   2.127   0.623   3.800  0.2453  0.5056 -0.1288
 8025TIP3    H245567   2.144   0.517   3.694 -1.4853 -0.2150  0.2801
 8026TIP3   OH245568   4.264   1.485   5.755  0.1524 -0.1514  0.3136
 8026TIP3    H145569   4.275   1.518   5.666 -0.8749  1.1929  0.6359
 8026TIP3    H245570   4.294   1.395   5.752  1.2238  0.2218 -1.1170
 8027TIP3   OH245571   4.109   6.320  12.724 -0.0947  0.4214  0.2376
 8027TIP3    H145572   4.199   6.351  12.728  0.0313  0.4080 -1.7389
 8027TIP3    H245573   4.074   6.336  12.812  1.4864  1.4298  0.7137
 8028TIP3   OH245574   4.203   3.447   5.865  0.4363 -0.3127 -0.7693
 8028TIP3    H145575   4.178   3.471   5.955 -0.3724  1.2346 -1.3595
 8028TIP3    H245576   4.253   3.523   5.834  0.7322 -0.8481 -1.6229
 8029TIP3   OH245577   4.909   4.492   5.299 -0.1274  0.2511  1.0430
 8029TIP3    H145578   4.828   4.542   5.287 -0.7139 -0.0909  3.0756
 8029TIP3    H245579   4.977   4.558   5.310 -0.1979  0.5460 -0.1822
 8030TIP3   OH245580   4.584   5.021   4.236 -0.1177  0.1952  0.6476
 8030TIP3    H145581   4.578   4.925   4.229 -1.0412  0.3251 -0.6628
 8030TIP3    H245582   4.493   5.051   4.235  0.1850  1.1292  0.2557
 8031TIP3   OH245583   0.209   3.508  15.174 -0.8579 -0.1657 -0.1018
 8031TIP3    H145584   0.256   3.457  15.240  0.6591 -1.3393 -1.9784
 8031TIP3    H245585   0.205   3.596  15.210 -1.3186 -1.0429  2.1349
 8032TIP3   OH245586   0.377   6.475  12.306  0.0795  0.4336 -0.0120
 8032TIP3    H145587   0.419   6.420  12.372  0.0656 -0.0158 -0.3723
 8032TIP3    H245588   0.404   6.564  12.328  1.3840  0.1488 -0.3492
 8033TIP3   OH245589   0.945   3.128  12.712  0.1272 -0.0946 -0.1052
 8033TIP3    H145590   0.899   3.212  12.709 -0.1264 -0.2095  0.4728
 8033TIP3    H245591   1.019   3.143  12.771  0.5463 -0.0550 -0.6293
 8034TIP3   OH245592   5.076   0.676  15.928 -0.4274  0.2155 -0.0130
 8034TIP3    H145593   5.003   0.738  15.924 -3.2524 -2.8943 -1.9707
 8034TIP3    H245594   5.084   0.654  16.021 -3.6686 -0.9846  0.1064
 8035TIP3   OH245595   5.961   4.595  13.428 -0.0354 -0.1066 -0.2115
 8035TIP3    H145596   5.911   4.522  13.390  1.4516  0.0222 -2.5855
 8035TIP3    H245597   6.049   4.584  13.393 -0.0758  3.6834 -1.9463
 8036TIP3   OH245598   3.361   0.601   3.773  0.1673 -0.2892 -0.3056
 8036TIP3    H145599   3.282   0.641   3.736  0.2613  0.0918 -0.1030
 8036TIP3    H245600   3.432   0.634   3.718  0.3850  0.8016  0.5809
 8037TIP3   OH245601   4.847   0.281  14.918  0.2268 -0.2028 -0.6985
 8037TIP3    H145602   4.892   0.202  14.889 -0.5311 -0.6209 -0.7632
 8037TIP3    H245603   4.763   0.279  14.871  0.6175  1.1841 -1.5137
 8038TIP3   OH245604   1.810   0.410   3.928  0.2561 -0.6405  0.0241
 8038TIP3    H145605   1.836   0.342   3.866  0.9761  0.1513 -0.5504
 8038TIP3    H245606   1.726   0.379   3.963 -1.6355  0.2046 -3.3744
 8039TIP3   OH245607   5.140   4.269  13.145 -0.0006 -0.0315 -0.3627
 8039TIP3    H145608   5.161   4.338  13.207 -0.6949  0.6418 -0.8644
 8039TIP3    H245609   5.163   4.188  13.191 -1.2411  0.3950  1.0951
 8040TIP3   OH245610   5.101   5.726   5.138  0.2047  0.3892 -0.3174
 8040TIP3    H145611   5.075   5.789   5.205  1.1714  0.1863  0.2667
 8040TIP3    H245612   5.197   5.729   5.138  0.2560 -0.9554 -0.4012
 8041TIP3   OH245613   0.874   2.402  11.981  0.9307 -0.5764  0.1480
 8041TIP3    H145614   0.878   2.310  12.009 -0.3233 -0.6961  0.0038
 8041TIP3    H245615   0.927   2.449  12.046 -0.7486 -1.0273  1.9394
 8042TIP3   OH245616   1.502   0.369   5.420  0.0021 -0.0052 -0.0508
 8042TIP3    H145617   1.431   0.308   5.400 -0.4632 -0.0100  1.5010
 8042TIP3    H245618   1.503   0.429   5.346 -0.5933 -0.9227 -0.8336
 8043TIP3   OH245619   2.031   1.378   0.342  0.0505 -0.1816  0.6521
 8043TIP3    H145620   2.120   1.357   0.368  0.0386  0.7916  1.5860
 8043TIP3    H245621   1.978   1.355   0.418 -0.0971  1.9747  1.2818
 8044TIP3   OH245622   1.073   6.596   3.182 -0.3126  0.0466 -0.3048
 8044TIP3    H145623   1.078   6.511   3.226  1.1033  0.0660 -0.3952
 8044TIP3    H245624   1.027   6.577   3.100  1.1413 -0.9202 -0.9376
 8045TIP3   OH245625   6.407   4.935   0.901 -0.0921 -0.2614  0.3270
 8045TIP3    H145626   6.471   5.004   0.882 -1.1390  0.7675  0.4549
 8045TIP3    H245627   6.367   4.961   0.984  0.1379 -1.5151  0.8445
 8046TIP3   OH245628   1.358   3.388   3.730  0.4996  0.2163 -0.1566
 8046TIP3    H145629   1.311   3.366   3.650  0.9067 -0.6756 -0.1626
 8046TIP3    H245630   1.422   3.317   3.741  1.8788  1.4111 -0.1836
 8047TIP3   OH245631   6.529   1.101   0.989  0.1902  0.3325 -0.8465
 8047TIP3    H145632   6.469   1.039   1.031 -0.7205  2.2058  0.7790
 8047TIP3    H245633   6.615   1.057   0.993 -0.1295 -0.2346  1.6830
 8048TIP3   OH245634   6.456   6.611   2.840  0.7097 -0.5286  0.0337
 8048TIP3    H145635   6.415   6.610   2.754  1.2006  0.9411 -0.2426
 8048TIP3    H245636   6.393   6.654   2.897  1.0416 -0.0463  0.0432
 8049TIP3   OH245637   6.735   0.034  13.614  0.3909  0.0922 -0.0649
 8049TIP3    H145638   6.741   0.106  13.677 -1.6092 -0.4223  0.8051
 8049TIP3    H245639   6.791  -0.035  13.651  0.5355  0.3934  0.2804
 8050TIP3   OH245640   5.279   5.369  16.825 -0.8428 -0.2383 -0.0893
 8050TIP3    H145641   5.331   5.347  16.902 -1.6042  1.6088  1.0162
 8050TIP3    H245642   5.189   5.354  16.851 -1.0227 -1.2506 -1.2291
 8051TIP3   OH245643   2.495   6.573  13.463 -0.1346  0.6168  0.1849
 8051TIP3    H145644   2.547   6.620  13.527  1.3502 -1.6188  0.7411
 8051TIP3    H245645   2.406   6.577  13.496  0.7211 -1.3657  3.1095
 8052TIP3   OH245646   6.454   3.582  13.423 -0.1081  0.2218  0.2659
 8052TIP3    H145647   6.525   3.602  13.483 -0.9329 -0.0959  1.3740
 8052TIP3    H245648   6.378   3.627  13.459 -1.0686 -1.5745  0.5762
 8053TIP3   OH245649   0.183   5.388  14.094  0.0547 -0.2272 -0.0356
 8053TIP3    H145650   0.167   5.399  14.000  2.7727  1.0268 -0.4531
 8053TIP3    H245651   0.154   5.471  14.133 -0.0277 -0.3031  0.0645
 8054TIP3   OH245652   3.701   1.429  12.286 -0.3344 -0.4930  0.0264
 8054TIP3    H145653   3.707   1.504  12.346 -0.9377 -0.7531  0.4219
 8054TIP3    H245654   3.607   1.414  12.276 -0.2252 -0.8699 -0.4707
 8055TIP3   OH245655   5.427   4.660  13.793 -0.3205  0.3577 -0.4401
 8055TIP3    H145656   5.514   4.632  13.765  0.1205 -0.0364  1.1973
 8055TIP3    H245657   5.435   4.755  13.804 -0.7501  0.6616 -2.3675
 8056TIP3   OH245658   3.436   2.399  15.634  0.2255 -0.1861 -0.1999
 8056TIP3    H145659   3.461   2.485  15.668 -2.0443  1.6825 -2.8202
 8056TIP3    H245660   3.345   2.387  15.663  0.1563 -1.1918 -0.7794
 8057TIP3   OH245661   2.260   3.483  10.559 -0.1314  0.6131 -0.0740
 8057TIP3    H145662   2.225   3.537  10.489  1.9319 -1.1923 -2.6706
 8057TIP3    H245663   2.353   3.505  10.562  0.1479 -0.5962  0.9113
 8058TIP3   OH245664   1.591   5.396  12.874 -0.3469  0.9050 -0.5571
 8058TIP3    H145665   1.672   5.412  12.825 -0.8882  1.0255 -1.4244
 8058TIP3    H245666   1.544   5.331  12.823  0.2228 -0.9552  1.1384
 8059TIP3   OH245667   4.028   4.728   0.085 -0.4826 -0.2782  0.0473
 8059TIP3    H145668   3.972   4.784   0.138 -0.4494 -0.5465  0.3690
 8059TIP3    H245669   3.966   4.674   0.034 -0.5234  0.6059 -0.8805
 8060TIP3   OH245670   5.526   1.458  17.255  0.0062 -0.0848 -0.2176
 8060TIP3    H145671   5.521   1.446  17.160  2.4832 -0.6051 -0.3519
 8060TIP3    H245672   5.524   1.553  17.267 -1.6117 -0.0393 -0.6473
 8061TIP3   OH245673   3.800   1.496  14.134  0.0141 -0.8448 -0.4617
 8061TIP3    H145674   3.798   1.442  14.213  0.6883 -0.2488 -0.0341
 8061TIP3    H245675   3.884   1.542  14.137  0.2892 -1.2133 -1.7983
 8062TIP3   OH245676   3.926   4.904  15.410 -0.3342  0.2508  0.2108
 8062TIP3    H145677   3.968   4.926  15.327  1.0878  1.7030  1.2375
 8062TIP3    H245678   3.999   4.893  15.471 -1.3526  2.4763  1.9880
 8063TIP3   OH245679   6.614   5.693   0.072  0.1368  0.2671 -0.6194
 8063TIP3    H145680   6.603   5.662   0.162 -2.4944  0.5651 -0.7480
 8063TIP3    H245681   6.706   5.676   0.052  0.6922 -0.2527  1.9395
 8064TIP3   OH245682   1.230   5.690  16.998  0.0908  0.3304  0.1399
 8064TIP3    H145683   1.252   5.696  16.905  0.5422  3.0346  0.3381
 8064TIP3    H245684   1.298   5.635  17.036  1.7748  1.7522 -0.6733
 8065TIP3   OH245685   1.148   4.519  14.473 -0.7896  0.3258 -0.6879
 8065TIP3    H145686   1.069   4.565  14.445 -0.3606  0.5604 -1.5222
 8065TIP3    H245687   1.218   4.583  14.461 -0.5370  0.3338  0.6349
 8066TIP3   OH245688   6.548   6.407  11.632  0.0931  0.5657  0.4734
 8066TIP3    H145689   6.464   6.382  11.592  0.1857 -0.4186  0.8656
 8066TIP3    H245690   6.583   6.325  11.666  1.0879  1.0202  0.5660
 8067TIP3   OH245691   6.157   4.588   0.717 -0.1705  0.0993 -0.2230
 8067TIP3    H145692   6.083   4.648   0.727 -2.3651 -2.5754  1.0367
 8067TIP3    H245693   6.221   4.616   0.782 -0.6611  1.6531 -0.3792
 8068TIP3   OH245694   3.058   3.593   1.210 -0.5230  0.0794 -0.1539
 8068TIP3    H145695   2.979   3.644   1.231 -2.0251 -2.1554 -0.1006
 8068TIP3    H245696   3.072   3.539   1.288  2.6453  2.1615  0.9305
 8069TIP3   OH245697   2.476   4.386  14.982  0.2553  0.6049 -0.4587
 8069TIP3    H145698   2.381   4.395  14.978  0.3353  1.4864 -0.7112
 8069TIP3    H245699   2.491   4.293  14.998 -0.5883 -0.0991 -3.1579
 8070TIP3   OH245700   6.268   5.814   1.920  0.0312  0.4145 -0.2586
 8070TIP3    H145701   6.311   5.757   1.985 -0.1263 -1.0780 -1.4085
 8070TIP3    H245702   6.175   5.791   1.926  0.0522  0.0249 -1.2030
 8071TIP3   OH245703   6.182   4.834   6.022 -0.0772 -0.6199 -0.3216
 8071TIP3    H145704   6.160   4.807   5.934 -1.2643 -1.7383  0.2910
 8071TIP3    H245705   6.100   4.864   6.060  0.1224 -1.4787  0.8492
 8072TIP3   OH245706   1.804   4.906  14.060  0.9150 -0.3397  0.2002
 8072TIP3    H145707   1.712   4.893  14.081  0.2002  1.7613 -1.3154
 8072TIP3    H245708   1.817   5.000  14.065  2.9362 -0.5613  0.1298
 8073TIP3   OH245709   3.298   2.514   6.746 -0.0539  0.3005 -0.7051
 8073TIP3    H145710   3.264   2.443   6.693 -2.1495  1.4888 -1.0391
 8073TIP3    H245711   3.253   2.504   6.830  2.3151 -0.8279  0.5428
 8074TIP3   OH245712   4.406   4.134   5.807  0.1455  0.1392 -0.1817
 8074TIP3    H145713   4.332   4.091   5.765 -1.6246  0.9494  1.8935
 8074TIP3    H245714   4.385   4.132   5.901  1.5578  2.5436  0.2857
 8075TIP3   OH245715   6.374   4.538   3.221 -0.4344 -0.2784 -0.2223
 8075TIP3    H145716   6.352   4.573   3.135  0.2804 -0.5373 -0.5221
 8075TIP3    H245717   6.293   4.501   3.254 -0.5086 -1.0153 -1.1892
 8076TIP3   OH245718   4.784   6.808  13.910 -0.0159 -0.7129 -0.4719
 8076TIP3    H145719   4.698   6.827  13.872 -0.3893  0.1998  0.7474
 8076TIP3    H245720   4.795   6.714  13.898 -1.1533 -0.8288 -0.7532
 8077TIP3   OH245721   4.195   1.531  16.006 -0.1289  0.5029  0.0181
 8077TIP3    H145722   4.200   1.626  16.015  0.0359  0.5210 -0.2414
 8077TIP3    H245723   4.128   1.505  16.069 -1.2561  0.9534 -0.9527
 8078TIP3   OH245724   2.858   6.023   5.014  0.4536 -0.4280  0.0868
 8078TIP3    H145725   2.945   6.049   5.045  0.2535 -0.4824  0.7115
 8078TIP3    H245726   2.807   6.105   5.015  1.3227  0.3468 -3.3844
 8079TIP3   OH245727   3.524   5.189   2.143 -0.2722  0.3587 -0.1999
 8079TIP3    H145728   3.458   5.243   2.101 -0.3944  0.7458  0.4646
 8079TIP3    H245729   3.473   5.125   2.195 -0.1264  0.2116 -0.2370
 8080TIP3   OH245730   1.205   1.946  13.793 -0.2145  0.4029 -0.3788
 8080TIP3    H145731   1.236   2.011  13.730  2.9042 -0.9793 -0.4764
 8080TIP3    H245732   1.190   1.867  13.741 -1.9655  0.4192  0.0344
 8081TIP3   OH245733   1.856   4.506   2.004 -0.8230 -0.4094  0.4604
 8081TIP3    H145734   1.854   4.418   2.041 -1.4194 -0.4069  0.4395
 8081TIP3    H245735   1.926   4.504   1.939  1.0478 -0.1102  2.3513
 8082TIP3   OH245736   0.190   2.561  12.613 -0.0871 -0.0883  0.4824
 8082TIP3    H145737   0.253   2.492  12.593  0.8597  0.7932  0.3352
 8082TIP3    H245738   0.192   2.568  12.709  0.6944  0.5080  0.4366
 8083TIP3   OH245739   4.569   2.305   4.067 -0.1306  0.0180 -0.4532
 8083TIP3    H145740   4.637   2.361   4.103  0.3176 -1.4666  1.1412
 8083TIP3    H245741   4.508   2.292   4.139 -0.8181 -0.6398 -1.1324
 8084TIP3   OH245742   0.541   5.389  15.158  0.3530  0.2343  0.4362
 8084TIP3    H145743   0.467   5.432  15.201 -2.1948 -0.4952 -2.7830
 8084TIP3    H245744   0.515   5.297  15.153  1.4538 -0.0426 -0.8039
 8085TIP3   OH245745   3.180   4.220   4.990 -0.1100 -0.1048 -0.2641
 8085TIP3    H145746   3.140   4.135   5.005  0.2682 -0.1483  0.5659
 8085TIP3    H245747   3.251   4.203   4.928 -0.2890 -0.3162 -0.4111
 8086TIP3   OH245748   4.029   0.832   0.644  0.3882 -0.2501  0.1346
 8086TIP3    H145749   3.965   0.762   0.660  0.6668 -0.4752  0.2557
 8086TIP3    H245750   4.046   0.870   0.730  0.9491 -0.6514  0.2043
 8087TIP3   OH245751   1.179   3.256   1.669  0.1648 -0.0321 -0.7579
 8087TIP3    H145752   1.209   3.208   1.746  1.0991  0.4913 -0.7754
 8087TIP3    H245753   1.213   3.207   1.594  1.3297  0.7449 -0.7718
 8088TIP3   OH245754   5.005   4.199  16.061 -1.0739 -0.0566 -0.2297
 8088TIP3    H145755   5.099   4.218  16.053 -1.2947  0.8941 -0.5577
 8088TIP3    H245756   5.000   4.104  16.051 -0.2302 -0.0312 -1.0162
 8089TIP3   OH245757   1.494   2.753   3.352  0.3731  0.2670 -0.1990
 8089TIP3    H145758   1.496   2.660   3.373 -3.8687  0.2508  1.0256
 8089TIP3    H245759   1.517   2.797   3.434 -2.7429  0.1506  0.8771
 8090TIP3   OH245760   3.249   4.983  13.420 -0.2513 -0.7149  0.3520
 8090TIP3    H145761   3.331   4.935  13.434  0.6612  0.8395  0.4968
 8090TIP3    H245762   3.256   5.017  13.331 -1.2100 -1.4235 -0.0114
 8091TIP3   OH245763   5.804   5.296  13.531 -0.2279  0.0816  0.2538
 8091TIP3    H145764   5.854   5.222  13.565  1.8430  0.8700 -0.9119
 8091TIP3    H245765   5.750   5.258  13.462  0.1186 -0.4869  0.2839
 8092TIP3   OH245766   4.462   3.743  12.600 -0.1815  0.0140 -0.0817
 8092TIP3    H145767   4.506   3.658  12.592 -0.4079 -0.1937  0.7867
 8092TIP3    H245768   4.389   3.726  12.659  1.1819  1.3270  2.1204
 8093TIP3   OH245769   4.123   4.149   1.491  0.0788  0.0921  0.4779
 8093TIP3    H145770   4.116   4.066   1.442  1.9549  0.1455  0.0452
 8093TIP3    H245771   4.181   4.128   1.564 -0.3889  0.7442  1.0423
 8094TIP3   OH245772   3.914   6.657   5.702 -0.2836 -0.1673 -0.4224
 8094TIP3    H145773   3.936   6.727   5.764 -0.6798  0.9485 -1.4939
 8094TIP3    H245774   3.907   6.579   5.756 -0.4491  0.7297  0.9133
 8095TIP3   OH245775   5.935   4.398   5.416 -0.0474 -0.5095 -0.0572
 8095TIP3    H145776   5.983   4.444   5.347  1.7639 -2.3563 -0.1440
 8095TIP3    H245777   5.963   4.440   5.497  1.6549 -1.4073 -0.1268
 8096TIP3   OH245778   6.391   2.480   3.218 -0.2303 -0.3308 -0.1156
 8096TIP3    H145779   6.320   2.536   3.188 -1.0445 -1.4644 -0.3813
 8096TIP3    H245780   6.469   2.536   3.216 -1.2887  1.2766  1.3190
 8097TIP3   OH245781   5.033   5.057  13.419 -0.0598  0.0258  0.1086
 8097TIP3    H145782   5.098   4.986  13.419  0.5411  0.4635 -2.4479
 8097TIP3    H245783   4.952   5.015  13.391 -0.2651 -0.0596  0.8247
 8098TIP3   OH245784   2.414   4.295   5.038  0.3222 -0.6340  0.1232
 8098TIP3    H145785   2.424   4.202   5.017 -1.2453 -0.9448  0.6335
 8098TIP3    H245786   2.456   4.306   5.123  0.7616 -0.8031 -0.0693
 8099TIP3   OH245787   4.944   1.099   0.805 -0.2561 -0.0574  0.0234
 8099TIP3    H145788   4.876   1.104   0.872 -1.7343 -1.9624 -1.2218
 8099TIP3    H245789   4.960   1.190   0.780  0.1618  0.6849  2.7181
 8100TIP3   OH245790   0.343   6.011   4.823  0.2973  0.0285 -0.0908
 8100TIP3    H145791   0.299   6.017   4.908  0.7828 -1.7026  0.3278
 8100TIP3    H245792   0.437   6.007   4.845  0.6804  2.6634 -0.9096
 8101TIP3   OH245793   2.019   1.222   1.201 -0.4173  0.3122  0.3064
 8101TIP3    H145794   1.985   1.311   1.197 -2.8747 -0.4037  2.2816
 8101TIP3    H245795   2.041   1.209   1.294  0.1617 -1.0406  0.0091
 8102TIP3   OH245796   3.919   4.770   1.795  0.3940  0.3796  0.3395
 8102TIP3    H145797   3.922   4.768   1.700 -0.3172  0.2189  0.3118
 8102TIP3    H245798   4.001   4.731   1.823  1.1816  1.5791 -0.1963
 8103TIP3   OH245799   0.819   2.886   2.943  0.3037  0.2778 -0.5394
 8103TIP3    H145800   0.848   2.976   2.929 -0.9492  0.5506 -1.5268
 8103TIP3    H245801   0.889   2.847   2.995  1.2562  1.5865 -0.7719
 8104TIP3   OH245802   3.028   4.898   5.560  0.3283 -0.4600 -0.2011
 8104TIP3    H145803   3.117   4.932   5.552  0.5488 -0.8680  0.5013
 8104TIP3    H245804   3.010   4.857   5.476  0.6304  0.0279 -0.5088
 8105TIP3   OH245805   4.922   3.171  16.531 -0.4183 -0.1988  0.2057
 8105TIP3    H145806   4.971   3.161  16.613 -1.2130  1.3088  0.9205
 8105TIP3    H245807   4.836   3.133  16.550 -0.7219  0.4776  0.2003
 8106TIP3   OH245808   5.279   5.223  13.434 -0.0929 -0.1938  0.1385
 8106TIP3    H145809   5.192   5.192  13.412 -0.8547  1.7972  0.1277
 8106TIP3    H245810   5.334   5.192  13.362 -0.5159 -2.4562  0.7306
 8107TIP3   OH245811   0.634   3.779   4.541 -0.1198 -0.1200  0.2083
 8107TIP3    H145812   0.716   3.738   4.513 -0.0002 -1.0046  1.7565
 8107TIP3    H245813   0.570   3.708   4.540 -0.8323  0.5125 -0.7443
 8108TIP3   OH245814   0.376   5.588   4.736  0.0951 -0.6132  0.4876
 8108TIP3    H145815   0.469   5.574   4.719  0.3752  1.4750  0.1065
 8108TIP3    H245816   0.360   5.544   4.820  1.4297 -0.9603  0.5773
 8109TIP3   OH245817   1.278   3.404  12.784 -0.9674 -0.6379  0.0737
 8109TIP3    H145818   1.258   3.497  12.788 -0.1837 -0.4178 -0.9299
 8109TIP3    H245819   1.372   3.400  12.770 -1.1168 -1.5703 -0.7459
 8110TIP3   OH245820   0.057   0.632  16.475 -0.2109 -0.1060  0.0867
 8110TIP3    H145821   0.034   0.641  16.568 -1.2998 -0.5621 -0.1202
 8110TIP3    H245822  -0.025   0.648  16.428  0.0290 -1.1268 -0.7280
 8111TIP3   OH245823   4.960   4.060   3.802 -0.2966 -0.0424  0.2814
 8111TIP3    H145824   5.006   4.000   3.742  0.5157 -0.1847  1.0305
 8111TIP3    H245825   4.942   4.007   3.879 -0.3628  0.4445  0.6025
 8112TIP3   OH245826   0.902   6.009  12.003  0.0491 -0.3800  0.3570
 8112TIP3    H145827   0.838   6.052  12.061  1.1898 -0.6152  1.8738
 8112TIP3    H245828   0.897   5.917  12.026  0.1839 -0.5494 -0.2833
 8113TIP3   OH245829   3.513   5.108  15.041 -0.2164  0.6436  0.3298
 8113TIP3    H145830   3.531   5.029  15.093  2.1100  0.2370 -0.9268
 8113TIP3    H245831   3.431   5.089  14.996  0.1952 -1.0264  0.2074
 8114TIP3   OH245832   0.448   1.031  16.605  0.3502  0.6990 -0.2805
 8114TIP3    H145833   0.495   0.948  16.611  0.3023  0.6606 -0.4480
 8114TIP3    H245834   0.480   1.071  16.525  0.3777  0.8456 -0.1969
 8115TIP3   OH245835   2.091   3.944  13.046 -0.3052  0.4398 -0.0042
 8115TIP3    H145836   2.139   4.004  12.988 -1.3637  0.3433 -1.0249
 8115TIP3    H245837   2.099   3.984  13.133  3.2512 -0.5897  0.3018
 8116TIP3   OH245838   6.203   2.408   3.504  0.1173 -0.1427  0.0143
 8116TIP3    H145839   6.284   2.368   3.474 -0.7397 -0.3133 -2.2701
 8116TIP3    H245840   6.207   2.402   3.599  2.8747  0.1135 -0.0182
 8117TIP3   OH245841   2.126   2.552  15.617  0.1859  0.2122  0.2251
 8117TIP3    H145842   2.041   2.573  15.655 -0.1306 -1.2006  0.3490
 8117TIP3    H245843   2.109   2.477  15.560  1.4225 -0.3488  0.5731
 8118TIP3   OH245844   5.449   5.908   3.831  0.2688  0.2334 -0.3934
 8118TIP3    H145845   5.429   5.873   3.745  0.2176  1.4078 -0.8866
 8118TIP3    H245846   5.543   5.922   3.830  0.0412  1.9902 -0.9835
 8119TIP3   OH245847   2.859   5.882  11.863 -0.9239 -0.8080 -0.6184
 8119TIP3    H145848   2.925   5.843  11.806 -0.7725 -0.6039 -0.5812
 8119TIP3    H245849   2.872   5.976  11.854  0.0475 -0.7658  0.8283
 8120TIP3   OH245850   3.083   3.325   1.815 -0.2742 -0.0063  0.2624
 8120TIP3    H145851   3.057   3.372   1.895  0.4371  0.6394  0.1250
 8120TIP3    H245852   3.105   3.237   1.845  1.4189  0.6456  1.0287
 8121TIP3   OH245853   0.442   2.850  12.778  0.2399 -0.3831 -0.4570
 8121TIP3    H145854   0.505   2.921  12.767 -0.4795  0.1404 -1.4167
 8121TIP3    H245855   0.478   2.795  12.848 -0.1876  2.0086  1.7819
 8122TIP3   OH245856   5.071   6.476   2.153  0.1214 -0.4131  0.1314
 8122TIP3    H145857   5.122   6.556   2.142  1.2384 -1.3696 -2.7515
 8122TIP3    H245858   4.982   6.500   2.130 -0.8864  1.1586  4.7164
 8123TIP3   OH245859   1.429   0.997   5.976  0.1027 -0.9514 -0.2183
 8123TIP3    H145860   1.396   0.950   5.899 -1.8786 -1.4151  0.8295
 8123TIP3    H245861   1.407   0.940   6.050 -0.0533  0.4551  0.8664
 8124TIP3   OH245862   4.176   4.118  16.224 -0.0314 -0.3217  0.2686
 8124TIP3    H145863   4.208   4.032  16.250  1.1618  0.5816  2.0724
 8124TIP3    H245864   4.241   4.150  16.161 -1.3123 -1.3133 -1.6299
 8125TIP3   OH245865   3.838   3.049  13.081 -0.4282  0.1450 -0.0333
 8125TIP3    H145866   3.884   3.133  13.072  0.9017 -0.6667 -1.3927
 8125TIP3    H245867   3.764   3.068  13.139  0.3236  2.0485  0.3881
 8126TIP3   OH245868   4.994   1.869  15.896 -0.5353  0.0140  0.3176
 8126TIP3    H145869   4.925   1.806  15.917 -1.6158  0.9287 -0.3345
 8126TIP3    H245870   5.009   1.916  15.977 -1.2276  0.3062  0.2849
 8127TIP3   OH245871   3.262   4.486  16.281  0.1468 -0.0424  0.2150
 8127TIP3    H145872   3.258   4.575  16.247  0.4884  0.0032  0.2954
 8127TIP3    H245873   3.177   4.447  16.257  0.2145  0.1275 -0.2991
 8128TIP3   OH245874   4.985   5.394  13.794  0.6125 -0.3856  0.0278
 8128TIP3    H145875   4.959   5.465  13.735  0.0001 -0.2206  0.4848
 8128TIP3    H245876   4.920   5.326  13.778  2.2668 -1.6612 -1.8030
 8129TIP3   OH245877   6.637   4.112   7.020 -0.2571  0.8691 -0.1541
 8129TIP3    H145878   6.717   4.163   7.008 -0.3268  1.0674  0.2266
 8129TIP3    H245879   6.668   4.022   7.034 -0.0924  0.9684  0.1339
 8130TIP3   OH245880   4.011   4.421   0.153  0.2472  0.9916  0.1334
 8130TIP3    H145881   3.927   4.393   0.116  0.0886 -0.1084  1.2664
 8130TIP3    H245882   4.000   4.411   0.248  1.2668  1.9691  0.3743
 8131TIP3   OH245883   5.853   6.321   5.323 -0.3961  0.2491 -0.2928
 8131TIP3    H145884   5.884   6.241   5.281  2.2286 -0.0131  1.9156
 8131TIP3    H245885   5.885   6.315   5.413 -2.2536  2.6680  0.6322
 8132TIP3   OH245886   0.364   3.656   0.315  0.4382 -0.1351  0.0315
 8132TIP3    H145887   0.312   3.682   0.391  1.7082 -0.8959  1.2024
 8132TIP3    H245888   0.455   3.670   0.342  0.9151 -0.4778 -1.3298
 8133TIP3   OH245889   1.910   5.491   3.492 -0.1762 -0.4778  0.1088
 8133TIP3    H145890   1.954   5.565   3.534  0.7763 -0.4387 -0.8891
 8133TIP3    H245891   1.862   5.448   3.562  0.1418  0.4485  0.9194
 8134TIP3   OH245892   4.732   4.351   1.023  0.4931  0.0710  0.4039
 8134TIP3    H145893   4.713   4.429   1.076 -0.1762  0.0048  0.2679
 8134TIP3    H245894   4.712   4.377   0.933 -0.4803 -0.4833  0.4425
 8135TIP3   OH245895   0.142   5.085  10.980 -0.4809 -0.6835  0.0055
 8135TIP3    H145896   0.152   5.103  10.887  0.7769  2.7893  0.6359
 8135TIP3    H245897   0.087   5.157  11.012  2.0952  0.3870  2.4360
 8136TIP3   OH245898   0.943   6.603  15.597  0.3559  0.0010  0.3383
 8136TIP3    H145899   1.024   6.562  15.568  0.4607  1.4619 -1.6553
 8136TIP3    H245900   0.953   6.696  15.575 -1.1558  0.5466  1.7063
 8137TIP3   OH245901   1.654   5.413  15.067 -0.4681  0.1083 -0.5253
 8137TIP3    H145902   1.715   5.340  15.078  1.5465  1.8370  0.5675
 8137TIP3    H245903   1.581   5.393  15.126  1.3402  0.1834  1.9161
 8138TIP3   OH245904   3.706   5.097  13.364 -0.5504  0.0641 -0.2107
 8138TIP3    H145905   3.779   5.134  13.315  0.7282 -0.0555  1.4898
 8138TIP3    H245906   3.743   5.078  13.450 -2.6299  0.1164  0.7535
 8139TIP3   OH245907   5.954   2.644  14.792  0.5175  0.0455 -0.2006
 8139TIP3    H145908   5.990   2.679  14.873  2.4973 -3.2377  0.4923
 8139TIP3    H245909   5.869   2.607  14.817  1.4330 -1.5884  0.5950
 8140TIP3   OH245910   5.723   4.706  12.241  0.7093 -0.1992 -0.2236
 8140TIP3    H145911   5.656   4.758  12.285  1.2771  0.6216 -0.3096
 8140TIP3    H245912   5.751   4.760  12.167 -0.4412 -1.6737 -1.8297
 8141TIP3   OH245913   6.753   3.931   4.900 -0.3147 -0.0082  0.1680
 8141TIP3    H145914   6.746   3.838   4.876  0.8072 -0.2849  0.8634
 8141TIP3    H245915   6.806   3.969   4.829  0.0828 -0.1172  0.4017
 8142TIP3   OH245916   0.904   3.848   1.539 -0.6393  0.4172  0.2261
 8142TIP3    H145917   0.863   3.762   1.552 -0.4316  0.1892 -0.5583
 8142TIP3    H245918   0.830   3.906   1.521 -0.9746  0.8258  2.6377
 8143TIP3   OH245919   6.118   3.425   4.511  1.1341  0.7725 -0.2799
 8143TIP3    H145920   6.185   3.449   4.576  0.8994 -1.4774  0.9038
 8143TIP3    H245921   6.140   3.335   4.487 -0.9299  0.3000 -0.5474
 8144TIP3   OH245922   5.998   3.287   0.625 -0.0155  0.4686  0.1220
 8144TIP3    H145923   6.059   3.349   0.587  0.8504  0.3583  1.2887
 8144TIP3    H245924   5.967   3.329   0.705 -0.1558 -0.1953  0.4222
 8145TIP3   OH245925   2.439   1.435   3.115  0.5313 -0.6830  0.1009
 8145TIP3    H145926   2.348   1.439   3.086  0.6639 -1.9206 -0.5551
 8145TIP3    H245927   2.434   1.422   3.209  0.0680  1.2499  0.3846
 8146TIP3   OH245928   4.883   4.473  13.040  0.3174 -0.5896  0.1946
 8146TIP3    H145929   4.944   4.540  13.071 -0.4598  0.3545 -0.2647
 8146TIP3    H245930   4.836   4.444  13.118 -0.8035  0.9247  0.1216
 8147TIP3   OH245931   0.620   4.680   6.009 -0.1937 -0.3379 -0.3516
 8147TIP3    H145932   0.558   4.675   6.081 -0.5251 -0.0074 -0.6073
 8147TIP3    H245933   0.688   4.617   6.031  0.1026  0.3086  0.6207
 8148TIP3   OH245934   5.620   3.396  17.268 -0.1637 -0.1651 -0.1004
 8148TIP3    H145935   5.675   3.323  17.297  1.2344  0.4032 -1.1958
 8148TIP3    H245936   5.618   3.388  17.172 -3.3275 -1.0604 -0.0811
 8149TIP3   OH245937   4.140   6.313   3.742  0.2135 -0.0614 -0.6133
 8149TIP3    H145938   4.082   6.254   3.693  0.7589 -0.6764 -0.5320
 8149TIP3    H245939   4.164   6.381   3.679 -0.9727  0.4722 -0.5114
 8150TIP3   OH245940   1.605   1.832  17.214  0.5422 -0.4803  0.6036
 8150TIP3    H145941   1.567   1.777  17.282  0.2544  1.8925  2.4811
 8150TIP3    H245942   1.598   1.779  17.134 -0.6127 -2.7166  2.0798
 8151TIP3   OH245943   0.268   6.765  12.797 -0.6526 -0.2134 -0.1230
 8151TIP3    H145944   0.304   6.832  12.856  0.2427  0.0836 -0.9765
 8151TIP3    H245945   0.323   6.688  12.811  1.4683  0.7238 -2.5832
 8152TIP3   OH245946   5.326   5.515  12.710 -0.3491  0.0121 -0.5432
 8152TIP3    H145947   5.329   5.570  12.632 -0.5530  1.0038  0.1310
 8152TIP3    H245948   5.237   5.525  12.743  0.6579  2.3654  1.7196
 8153TIP3   OH245949   6.393   0.580  15.091 -0.0570  0.4561  0.3966
 8153TIP3    H145950   6.348   0.536  15.163 -0.3161  0.0792  0.0086
 8153TIP3    H245951   6.448   0.646  15.134 -1.2631  1.1984  0.8543
 8154TIP3   OH245952   5.613   1.462  11.338  0.2517  0.3148 -0.4260
 8154TIP3    H145953   5.623   1.412  11.257 -0.0821 -1.4814  0.5705
 8154TIP3    H245954   5.678   1.424  11.398  0.5294  1.6399  0.1414
 8155TIP3   OH245955   2.462   3.291   3.377 -0.3387  0.3339  0.3327
 8155TIP3    H145956   2.483   3.380   3.348 -2.7017  1.1585  0.8597
 8155TIP3    H245957   2.467   3.296   3.473 -0.3515 -0.1347  0.3581
 8156TIP3   OH245958   6.075   1.173  16.505 -0.6276  0.0658  0.0626
 8156TIP3    H145959   6.142   1.177  16.437 -0.1865  0.9672  0.5431
 8156TIP3    H245960   6.037   1.086  16.496  0.2434 -0.2572 -0.5578
 8157TIP3   OH245961   1.549   3.999  12.265  0.5778  0.5420 -0.2263
 8157TIP3    H145962   1.556   3.927  12.329 -2.6230 -1.5953 -1.9954
 8157TIP3    H245963   1.615   3.979  12.199  0.2623 -0.3881 -0.2798
 8158TIP3   OH245964   6.691   5.963   5.626  0.5147 -0.1920 -0.2429
 8158TIP3    H145965   6.649   5.907   5.691 -0.1390  0.7326  0.1561
 8158TIP3    H245966   6.619   5.993   5.571  0.7819  0.6167 -0.1625
 8159TIP3   OH245967   1.495   1.705   3.622 -0.1618 -0.4503  0.3648
 8159TIP3    H145968   1.494   1.701   3.527  1.4261 -2.9470  0.3705
 8159TIP3    H245969   1.563   1.770   3.642 -0.5546  0.1397 -0.1838
 8160TIP3   OH245970   0.408   1.927  13.625 -0.1824  0.1326 -0.0425
 8160TIP3    H145971   0.395   2.019  13.603  0.0624  0.4766  1.1915
 8160TIP3    H245972   0.355   1.879  13.561 -0.4978  1.1371 -0.5471
 8161TIP3   OH245973   4.752   3.290   1.277 -0.3475 -0.2798  0.5794
 8161TIP3    H145974   4.741   3.198   1.302  1.1364 -0.2904  1.3215
 8161TIP3    H245975   4.665   3.318   1.247 -0.1757 -2.8348 -2.9060
 8162TIP3   OH245976   4.109   3.989  15.940 -0.3202 -0.7349  0.2313
 8162TIP3    H145977   4.016   3.984  15.919 -0.1473 -1.3696 -0.4156
 8162TIP3    H245978   4.127   3.911  15.992 -0.2872 -0.2473  0.9858
 8163TIP3   OH245979   5.603   1.740  11.912  0.2407  0.1791  0.0488
 8163TIP3    H145980   5.572   1.784  11.991  0.9927 -0.5629  0.7769
 8163TIP3    H245981   5.671   1.799  11.878  1.8602 -0.7712  1.5021
 8164TIP3   OH245982   4.957   4.116  17.080 -0.1795 -0.7875  0.9345
 8164TIP3    H145983   4.957   4.068  16.997 -2.3783 -0.7825  0.8725
 8164TIP3    H245984   4.932   4.206  17.056 -0.3972 -0.6803  1.5410
 8165TIP3   OH245985   0.958   2.933   3.961  0.1687 -0.0771 -0.0830
 8165TIP3    H145986   0.991   2.846   3.986 -1.6744 -1.0563 -0.8906
 8165TIP3    H245987   0.968   2.936   3.866  1.6328  1.2509  0.0780
 8166TIP3   OH245988   4.038   5.480  10.701  0.0415  0.5961  0.2511
 8166TIP3    H145989   4.012   5.571  10.716 -1.7277  0.1838 -0.1351
 8166TIP3    H245990   4.069   5.478  10.611  0.7779  0.9425  0.4848
 8167TIP3   OH245991   5.701   4.006  14.695 -0.1644  0.0002  0.2211
 8167TIP3    H145992   5.698   4.056  14.776 -1.1402  1.0386 -0.4230
 8167TIP3    H245993   5.793   4.005  14.671 -0.0113  0.6823  0.7463
 8168TIP3   OH245994   0.309   3.073  13.139 -0.5936  0.3941  0.1057
 8168TIP3    H145995   0.311   3.168  13.126 -1.8129  0.2833 -0.9454
 8168TIP3    H245996   0.226   3.056  13.183 -0.1625 -0.1467  0.7320
 8169TIP3   OH245997   2.938   2.945   0.155 -0.2800  0.0043 -0.1013
 8169TIP3    H145998   2.979   2.868   0.195 -0.1581  0.8340  1.4629
 8169TIP3    H245999   2.875   2.975   0.221  0.5576  1.9614 -0.1144
 8170TIP3   OH246000   2.545   1.687   3.139  0.4929 -0.0735 -0.2950
 8170TIP3    H146001   2.455   1.718   3.125  0.2146 -1.2780 -1.3271
 8170TIP3    H246002   2.538   1.592   3.139  1.8054 -0.1897 -0.6888
 8171TIP3   OH246003   3.706   0.785  14.817 -0.3655  0.5765  0.1660
 8171TIP3    H146004   3.644   0.853  14.841 -0.7459  0.1236  0.4788
 8171TIP3    H246005   3.764   0.778  14.893 -0.7826  0.0382  0.4417
 8172TIP3   OH246006   3.441   5.496  13.589  0.3810 -0.1208 -0.6071
 8172TIP3    H146007   3.507   5.546  13.541  1.5191 -0.1264  0.8830
 8172TIP3    H246008   3.484   5.412  13.608 -0.0980 -0.1880  0.2290
 8173TIP3   OH246009   4.044   3.646  15.428  0.2218 -0.0708  0.0244
 8173TIP3    H146010   4.088   3.728  15.407  0.7297 -0.4290 -0.3350
 8173TIP3    H246011   3.959   3.653  15.384  0.4988  0.0199 -0.5099
 8174TIP3   OH246012   6.539   1.366   1.807  0.1136 -0.0035 -0.7043
 8174TIP3    H146013   6.547   1.281   1.849 -1.2357 -0.8068 -1.9691
 8174TIP3    H246014   6.620   1.412   1.829  0.3816 -1.1695  0.9224
 8175TIP3   OH246015   6.393   6.105   2.462  0.4962  0.0760 -0.2738
 8175TIP3    H146016   6.327   6.060   2.409  1.8587 -0.9762 -1.1623
 8175TIP3    H246017   6.424   6.176   2.406  2.5780 -1.5781 -1.3673
 8176TIP3   OH246018   0.922   3.105   1.471 -0.3574 -0.3029 -0.4640
 8176TIP3    H146019   0.990   3.172   1.477 -0.8183  0.1141  0.2154
 8176TIP3    H246020   0.841   3.152   1.488 -0.7422 -0.9481 -0.4881
 8177TIP3   OH246021   5.034   4.772  16.226 -0.3742 -0.3798 -0.1847
 8177TIP3    H146022   4.949   4.747  16.264  0.6810 -1.8651  1.3807
 8177TIP3    H246023   5.028   4.867  16.215 -2.6291 -0.5769 -1.2091
 8178TIP3   OH246024   0.663   5.102   6.047 -0.2580 -0.1310 -0.6694
 8178TIP3    H146025   0.670   5.193   6.076 -2.6762  0.4641 -1.6394
 8178TIP3    H246026   0.665   5.050   6.127  3.1340  0.5162 -0.2016
 8179TIP3   OH246027   3.552   4.267  15.585 -0.7243 -0.3490 -0.2569
 8179TIP3    H146028   3.576   4.342  15.532  0.0587  0.1232  0.7301
 8179TIP3    H246029   3.461   4.249  15.563 -0.8709  0.8015 -0.6040
 8180TIP3   OH246030   5.529   5.326   0.708  0.3011  0.2780 -0.0127
 8180TIP3    H146031   5.434   5.335   0.698 -0.0877  0.0196  2.6732
 8180TIP3    H246032   5.563   5.415   0.700 -0.2079  0.4154 -0.6977
 8181TIP3   OH246033   4.212   6.348   6.184 -0.4405  0.0259 -0.3659
 8181TIP3    H146034   4.201   6.381   6.095 -1.0956 -0.4898 -0.4800
 8181TIP3    H246035   4.300   6.376   6.209  0.0241 -0.4499 -1.4355
 8182TIP3   OH246036   6.030   3.377   5.600  0.0881  0.3495  0.1506
 8182TIP3    H146037   6.069   3.332   5.675  0.2935 -2.1532 -1.3569
 8182TIP3    H246038   6.050   3.469   5.614 -1.7372  0.3552  4.2832
 8183TIP3   OH246039   2.795   1.254   0.651  0.3853  0.1384  0.1753
 8183TIP3    H146040   2.824   1.237   0.741 -0.0868  3.5906  1.1108
 8183TIP3    H246041   2.874   1.281   0.605  0.2383  0.7496  0.2652
 8184TIP3   OH246042   0.481   3.453   1.352 -0.5991 -0.1990 -0.0299
 8184TIP3    H146043   0.572   3.436   1.326 -0.3903 -0.6805  0.9642
 8184TIP3    H246044   0.456   3.375   1.402 -0.8911  0.7661  1.3985
 8185TIP3   OH246045   5.157   3.242   3.342  0.0892 -0.3368  0.4959
 8185TIP3    H146046   5.221   3.221   3.273 -2.8561 -1.2961 -2.2360
 8185TIP3    H246047   5.173   3.178   3.410  2.6922  0.1791  0.4584
 8186TIP3   OH246048   0.224   0.553   1.500 -0.1538  0.7887 -0.1097
 8186TIP3    H146049   0.288   0.493   1.463  0.3587  2.2966 -1.7877
 8186TIP3    H246050   0.175   0.500   1.564  1.3997 -0.9156 -0.2616
 8187TIP3   OH246051   5.246   5.568   4.638  0.3823  0.5417 -0.1042
 8187TIP3    H146052   5.243   5.504   4.708 -0.1945  0.4623 -0.1988
 8187TIP3    H246053   5.212   5.648   4.677  0.0913  0.5062 -0.2823
 8188TIP3   OH246054   3.105   6.256  13.075 -0.1494  0.0101 -0.1128
 8188TIP3    H146055   3.019   6.295  13.091  0.6897  2.3673 -0.9218
 8188TIP3    H246056   3.109   6.244  12.980  0.6291  0.4772 -0.1437
 8189TIP3   OH246057   4.631   3.806   4.892 -0.7821  0.2541 -0.0272
 8189TIP3    H146058   4.618   3.791   4.986 -0.0097 -0.4406 -0.0174
 8189TIP3    H246059   4.584   3.734   4.849 -0.4751  0.1130 -0.1345
 8190TIP3   OH246060   2.296   3.235   5.801 -0.2213 -0.4439  0.2704
 8190TIP3    H146061   2.359   3.190   5.745 -1.5225 -0.5733 -1.1454
 8190TIP3    H246062   2.213   3.227   5.754 -0.5163  3.6062 -0.1993
 8191TIP3   OH246063   0.526   5.106  16.757 -0.1691  0.1437 -0.6505
 8191TIP3    H146064   0.581   5.184  16.753 -0.8190  0.6352 -0.2355
 8191TIP3    H246065   0.488   5.108  16.845 -0.0897 -0.7133 -0.5904
 8192TIP3   OH246066   0.978   3.269  17.148 -0.1674 -0.0965  0.4462
 8192TIP3    H146067   0.917   3.334  17.185  0.6424 -0.7434  3.1444
 8192TIP3    H246068   0.955   3.265  17.055 -2.3428  1.7212  0.8099
 8193TIP3   OH246069   0.376   5.642  16.719 -0.5013 -0.5821 -0.3203
 8193TIP3    H146070   0.311   5.712  16.712 -0.3901 -0.6507 -3.5426
 8193TIP3    H246071   0.336   5.578  16.777 -0.7130  1.9464  2.5739
 8194TIP3   OH246072   3.480   5.259   2.826 -0.2752  0.2679 -0.6553
 8194TIP3    H146073   3.569   5.290   2.816  0.2217 -0.8640  0.0106
 8194TIP3    H246074   3.481   5.170   2.790  0.1773 -1.7163  3.6016
 8195TIP3   OH246075   5.058   0.047  10.916 -0.0942 -0.3746  0.4095
 8195TIP3    H146076   5.032   0.133  10.947 -1.3872 -0.2593 -0.8725
 8195TIP3    H246077   5.001  -0.014  10.963  1.0605 -0.5928  1.5808
 8196TIP3   OH246078   4.745   5.839   5.145  0.1286 -0.4248  0.0004
 8196TIP3    H146079   4.798   5.870   5.072 -0.6264 -1.7590 -1.1536
 8196TIP3    H246080   4.722   5.919   5.194 -0.6160  0.6979 -2.0652
 8197TIP3   OH246081   0.398   2.989   3.800  0.5955  0.0527 -0.4957
 8197TIP3    H146082   0.343   2.930   3.747  1.4336 -0.9268 -0.3104
 8197TIP3    H246083   0.366   2.977   3.890  0.0094  0.7654 -0.5976
 8198TIP3   OH246084   6.450   0.196  10.678 -0.0263  0.1629 -0.4322
 8198TIP3    H146085   6.478   0.170  10.766  1.8014  0.8998 -0.7391
 8198TIP3    H246086   6.371   0.144  10.661 -1.5518  1.3555  2.3455
 8199TIP3   OH246087   4.867   5.254  12.893  0.5366  0.0279 -0.2918
 8199TIP3    H146088   4.936   5.189  12.880  0.7333  0.1025  0.3463
 8199TIP3    H246089   4.808   5.241  12.819  1.7031  0.5760 -1.3595
 8200TIP3   OH246090   5.845   4.510  14.265 -0.2417  0.2226  0.1023
 8200TIP3    H146091   5.895   4.576  14.217 -0.3019  0.4355  0.3357
 8200TIP3    H246092   5.755   4.542  14.264 -0.2379  0.2447  0.3887
 8201TIP3   OH246093   5.141   1.053   3.565 -0.2092 -0.0878  0.0405
 8201TIP3    H146094   5.094   0.971   3.574 -0.3774 -0.1450 -1.1005
 8201TIP3    H246095   5.079   1.112   3.521  0.6292 -0.0565 -1.1605
 8202TIP3   OH246096   3.915   3.543  14.796 -0.0794 -0.2032  0.1252
 8202TIP3    H146097   3.905   3.455  14.830 -1.9284  0.1957  0.7166
 8202TIP3    H246098   3.995   3.540  14.744  2.1718 -1.2156  3.3025
 8203TIP3   OH246099   5.977   5.873   4.252  0.1932 -0.0781  0.1804
 8203TIP3    H146100   6.023   5.948   4.213 -0.7721 -0.0402 -0.9357
 8203TIP3    H246101   5.906   5.912   4.302 -0.0057 -0.2224  0.0123
 8204TIP3   OH246102   2.245   4.399  15.666 -0.1765  0.7018 -0.3375
 8204TIP3    H146103   2.251   4.459  15.741  0.9286  1.0219 -0.6617
 8204TIP3    H246104   2.174   4.340  15.689  0.5045  0.4277  1.2340
 8205TIP3   OH246105   3.326   2.826  13.300 -0.1744  0.4119 -0.0829
 8205TIP3    H146106   3.234   2.823  13.271  0.1155 -1.9423 -0.9596
 8205TIP3    H246107   3.321   2.848  13.393 -1.6472  0.1708 -0.0813
 8206TIP3   OH246108   1.030   4.111  16.720  0.0624 -0.0962 -0.0560
 8206TIP3    H146109   1.007   4.056  16.795  1.4464 -0.4218  0.1484
 8206TIP3    H246110   1.061   4.049  16.654  3.1585  0.4916  0.7308
 8207TIP3   OH246111   5.338   4.246  11.190 -0.0221  0.3110 -0.0156
 8207TIP3    H146112   5.320   4.336  11.162  0.7079  0.6013  0.4185
 8207TIP3    H246113   5.265   4.224  11.249 -0.7364  0.2497 -0.9067
 8208TIP3   OH246114   1.055   5.170  12.077 -0.2214  0.4295 -0.1268
 8208TIP3    H146115   1.134   5.209  12.114 -1.1586  1.4268  0.8884
 8208TIP3    H246116   1.026   5.107  12.143  0.9493 -1.6832 -1.4923
 8209TIP3   OH246117   2.578   4.399   4.759  0.6053 -0.3574  0.1715
 8209TIP3    H146118   2.598   4.306   4.764 -1.1958 -0.7931 -0.2060
 8209TIP3    H246119   2.521   4.416   4.834 -0.9603 -0.0957 -1.0292
 8210TIP3   OH246120   0.449   5.478  14.368  0.2980 -0.1359 -0.2396
 8210TIP3    H146121   0.379   5.532  14.404  1.1008  1.8570 -1.5058
 8210TIP3    H246122   0.449   5.497  14.275  0.3438 -2.7336 -0.8423
 8211TIP3   OH246123   6.381   3.983  12.576  0.1551 -0.6327  0.1139
 8211TIP3    H146124   6.395   3.920  12.506 -0.0101  0.1417 -0.6376
 8211TIP3    H246125   6.314   3.944  12.632 -0.1672 -0.9818 -0.5091
 8212TIP3   OH246126   5.424   0.846   6.292  0.7624 -0.3126 -0.6382
 8212TIP3    H146127   5.481   0.813   6.362 -0.2692 -0.7704  0.0187
 8212TIP3    H246128   5.373   0.916   6.334 -0.5595 -1.2397 -0.6168
 8213TIP3   OH246129   4.149   0.901   0.905  0.4262 -0.4259  0.1688
 8213TIP3    H146130   4.116   0.811   0.907  1.4429 -0.8352 -0.6882
 8213TIP3    H246131   4.116   0.940   0.986  1.6613 -2.1865  1.6120
 8214TIP3   OH246132   1.719   5.119   1.404  0.2972 -0.1849  0.6619
 8214TIP3    H146133   1.724   5.207   1.442  0.1195  0.8436 -1.5227
 8214TIP3    H246134   1.682   5.133   1.317 -0.8699 -2.5867  0.6845
 8215TIP3   OH246135   3.808   2.619  14.652 -0.1852 -0.2410 -0.6346
 8215TIP3    H146136   3.820   2.696  14.597  1.3107 -0.6820 -0.9834
 8215TIP3    H246137   3.881   2.623  14.714 -0.3401 -1.1345 -0.3842
 8216TIP3   OH246138   5.167   1.894   0.131  0.2846  0.0926  0.5200
 8216TIP3    H146139   5.247   1.944   0.151  1.3360 -2.1155  2.2794
 8216TIP3    H246140   5.140   1.859   0.216 -1.2211 -1.1318 -0.4304
 8217TIP3   OH246141   1.308   1.821   0.275  0.4070  0.3411  0.5573
 8217TIP3    H146142   1.302   1.832   0.370  0.7937  1.0688  0.5113
 8217TIP3    H246143   1.222   1.790   0.248  0.6278 -0.9459  1.2725
 8218TIP3   OH246144   5.198   0.549  13.259 -0.1993  0.0217  0.3643
 8218TIP3    H146145   5.137   0.498  13.205 -0.7700  1.1089 -0.0524
 8218TIP3    H246146   5.250   0.599  13.196  0.1981  0.1286  0.7689
 8219TIP3   OH246147   4.886   1.642  16.856 -0.2385 -0.0332  0.6207
 8219TIP3    H146148   4.914   1.557  16.823 -1.6335 -0.4044  0.3563
 8219TIP3    H246149   4.815   1.669  16.798 -0.2494  1.0195  1.0930
 8220TIP3   OH246150   3.652   5.246   5.369 -0.4864  0.0152  0.5179
 8220TIP3    H146151   3.607   5.221   5.450  1.3028 -1.2139  1.2113
 8220TIP3    H246152   3.643   5.170   5.312 -0.2760  0.2166  0.2115
 8221TIP3   OH246153   0.839   1.890  13.708  0.2102  0.3225 -0.3803
 8221TIP3    H146154   0.809   1.799  13.699  0.8251  0.1612 -0.8328
 8221TIP3    H246155   0.833   1.908  13.802  0.4199 -0.3003 -0.2460
 8222TIP3   OH246156   6.440   5.849  11.264  0.0509 -0.1742 -0.2401
 8222TIP3    H146157   6.411   5.762  11.291 -0.6468  0.3188  0.6990
 8222TIP3    H246158   6.529   5.856  11.296 -0.2915 -0.1232  0.7444
 8223TIP3   OH246159   1.251   0.389   2.609  0.3682 -0.2508 -0.9256
 8223TIP3    H146160   1.180   0.369   2.670  0.2899 -0.2417 -1.0138
 8223TIP3    H246161   1.208   0.425   2.532  0.4941  0.0718 -0.8458
 8224TIP3   OH246162   5.611   4.601  14.040 -0.1053 -0.1324 -0.0046
 8224TIP3    H146163   5.665   4.670  14.002 -0.5969 -0.4197 -1.2852
 8224TIP3    H246164   5.666   4.522  14.034 -0.6687 -0.4359 -1.3616
 8225TIP3   OH246165   0.918   0.869  13.917 -0.0330  0.0288 -0.1534
 8225TIP3    H146166   0.982   0.818  13.868  1.0800 -0.4243  1.6996
 8225TIP3    H246167   0.866   0.912  13.849  0.2099 -2.0292 -1.7499
 8226TIP3   OH246168   0.903   5.606   3.676  0.0822 -0.4174 -0.1019
 8226TIP3    H146169   0.880   5.520   3.711 -0.6328  0.3291  1.3888
 8226TIP3    H246170   0.997   5.614   3.690  0.0213 -0.6608  0.4577
 8227TIP3   OH246171   1.480   0.925  12.752 -0.4116  0.4586 -0.2594
 8227TIP3    H146172   1.523   0.867  12.815  0.6486  0.8766 -0.5752
 8227TIP3    H246173   1.552   0.959  12.698 -1.2431  0.4527 -1.4075
 8228TIP3   OH246174   4.380   2.556   2.307 -0.3032 -0.1181  0.2875
 8228TIP3    H146175   4.316   2.555   2.377  0.0886 -3.4949  0.7956
 8228TIP3    H246176   4.366   2.472   2.261  1.7815  0.3798 -1.4218
 8229TIP3   OH246177   1.783   4.185  15.726  0.3145 -0.1286 -0.4134
 8229TIP3    H146178   1.729   4.183  15.805 -1.8175  1.9810 -1.6715
 8229TIP3    H246179   1.830   4.102  15.727 -0.4628 -0.6612  2.4689
 8230TIP3   OH246180   5.787   4.671  16.944 -0.9930 -0.0060 -0.4649
 8230TIP3    H146181   5.795   4.601  17.009  0.4604  1.0524  0.5638
 8230TIP3    H246182   5.855   4.653  16.880 -1.2508 -0.0740 -0.7176
 8231TIP3   OH246183   3.577   1.394  13.982  0.2158 -0.1091 -0.6724
 8231TIP3    H146184   3.643   1.440  14.033  0.8416 -1.1365 -0.5159
 8231TIP3    H246185   3.590   1.424  13.892 -1.6471  2.5970 -0.1590
 8232TIP3   OH246186   0.980   3.136   3.044 -0.5252 -0.1237  0.3583
 8232TIP3    H146187   1.044   3.078   3.084 -0.1721 -1.1843 -1.5930
 8232TIP3    H246188   1.007   3.224   3.071  2.8202 -0.3612 -1.6301
 8233TIP3   OH246189   6.081   0.073  17.237 -0.4068 -0.1583  1.0321
 8233TIP3    H146190   6.022   0.147  17.224 -0.7722 -0.6973 -0.6372
 8233TIP3    H246191   6.158   0.111  17.279 -1.1081  0.9267  1.3672
 8234TIP3   OH246192   0.967   5.030   4.952 -0.3191 -0.8125 -0.4274
 8234TIP3    H146193   1.027   4.956   4.941  0.2394 -0.2892 -0.8879
 8234TIP3    H246194   0.958   5.068   4.865 -0.3663 -0.1508 -0.1395
 8235TIP3   OH246195   2.476   0.054   0.125 -0.1999  0.0257  0.1304
 8235TIP3    H146196   2.533   0.101   0.064 -0.7426 -1.0123 -1.2219
 8235TIP3    H246197   2.464   0.116   0.197  0.1363  1.4673 -0.9837
 8236TIP3   OH246198   6.021   6.472   1.701 -0.0144 -0.3862 -0.3575
 8236TIP3    H146199   6.096   6.413   1.691 -1.4673 -2.8335  1.7826
 8236TIP3    H246200   5.988   6.484   1.612  1.4813 -1.2382 -1.0712
 8237TIP3   OH246201   6.688   5.428  11.888 -0.1126 -0.4411 -0.5130
 8237TIP3    H146202   6.712   5.344  11.849  2.1238 -0.1838  0.1169
 8237TIP3    H246203   6.736   5.493  11.837 -1.6358  0.4531 -0.8473
 8238TIP3   OH246204   2.040   4.357  11.253 -0.4430  0.1461  0.2072
 8238TIP3    H146205   2.077   4.280  11.209  0.9284  0.6262  0.4800
 8238TIP3    H246206   2.068   4.348  11.344 -1.6561  0.1412  0.5899
 8239TIP3   OH246207   4.752   2.319  14.885 -0.5507  0.0576 -0.1771
 8239TIP3    H146208   4.732   2.319  14.792 -2.0874  0.0892  0.1285
 8239TIP3    H246209   4.816   2.248  14.896 -0.3894  0.0307 -1.2362
 8240TIP3   OH246210   3.811   1.199   4.697 -0.2709 -0.0377 -0.3736
 8240TIP3    H146211   3.847   1.170   4.613  0.4750  0.9773 -0.4236
 8240TIP3    H246212   3.716   1.193   4.685 -0.1948  0.6996 -1.5198
 8241TIP3   OH246213   0.952   3.741   2.787 -0.1985  0.2612  0.1335
 8241TIP3    H146214   1.005   3.819   2.805  0.3220  0.2093 -1.0680
 8241TIP3    H246215   0.864   3.776   2.768 -0.6904  0.3328  2.3085
 8242TIP3   OH246216   5.061   5.869  16.656  0.3066  0.3949  0.4010
 8242TIP3    H146217   5.021   5.946  16.616  0.5454  0.4163  0.1996
 8242TIP3    H246218   5.025   5.866  16.744 -1.9848 -0.9343 -0.4983
 8243TIP3   OH246219   1.103   5.807   2.684 -0.4347  0.2496 -0.4607
 8243TIP3    H146220   1.038   5.825   2.752  1.6565  0.1678  1.6799
 8243TIP3    H246221   1.178   5.860   2.709  1.4050 -1.9326 -1.1136
 8244TIP3   OH246222   4.011   0.663  12.419 -0.5172  0.5440  0.6179
 8244TIP3    H146223   3.974   0.675  12.506 -1.6674 -1.3984  0.4612
 8244TIP3    H246224   4.017   0.568  12.408  1.6345  0.7589 -0.6114
 8245TIP3   OH246225   5.985   3.883  16.838  0.1482 -0.2471 -0.4945
 8245TIP3    H146226   6.007   3.896  16.746  3.2564  0.2445  0.1825
 8245TIP3    H246227   5.981   3.972  16.874  1.9813 -0.4616  0.3621
 8246TIP3   OH246228   4.595   0.977   2.531  0.7654 -0.1085 -0.3700
 8246TIP3    H146229   4.523   1.034   2.502  1.3533  0.2341 -1.2345
 8246TIP3    H246230   4.673   1.032   2.520  1.1774 -0.5546  0.3239
 8247TIP3   OH246231   6.438   1.792   2.277  0.3311 -0.5615 -0.5379
 8247TIP3    H146232   6.420   1.774   2.369  1.4679  0.7813 -0.0073
 8247TIP3    H246233   6.533   1.805   2.273  0.3617 -1.0591 -1.9930
 8248TIP3   OH246234   6.347   4.371  15.375 -0.1126  0.2746 -0.0363
 8248TIP3    H146235   6.337   4.466  15.366  0.6781  0.3969  0.2593
 8248TIP3    H246236   6.442   4.357  15.370 -0.1814 -0.4351  0.5673
 8249TIP3   OH246237   6.126   4.059   5.557  0.5623  0.6173 -0.8355
 8249TIP3    H146238   6.037   4.049   5.590 -0.2752  0.7797 -2.8538
 8249TIP3    H246239   6.173   3.983   5.590 -0.6276 -0.0434 -0.6159
 8250TIP3   OH246240   1.926   3.067   1.028 -0.3447  0.0453  0.5423
 8250TIP3    H146241   1.916   3.112   0.944  0.7343  0.4466  0.6118
 8250TIP3    H246242   1.876   3.120   1.090  0.1441  0.6452  0.4393
 8251TIP3   OH246243   2.812   3.956   1.690 -0.0282 -0.0471  0.1979
 8251TIP3    H146244   2.754   3.906   1.747  1.1777 -2.1960 -0.3466
 8251TIP3    H246245   2.852   4.021   1.748 -0.5093 -0.7118  1.3190
 8252TIP3   OH246246   4.423   1.965   1.957  0.1227  0.2129  0.1002
 8252TIP3    H146247   4.427   2.010   2.042  0.4501  1.2742 -0.4595
 8252TIP3    H246248   4.497   2.001   1.908  1.3854 -2.0950  0.1700
 8253TIP3   OH246249   6.130   5.426   0.262  0.1282 -0.7179  0.2413
 8253TIP3    H146250   6.105   5.341   0.227 -3.0825  0.3402 -0.3430
 8253TIP3    H246251   6.089   5.429   0.349 -0.3132  0.4351  0.0102
 8254TIP3   OH246252   5.182   2.693  10.979  0.4311 -0.0180 -0.8671
 8254TIP3    H146253   5.234   2.653  11.049  1.5851 -0.0137 -1.6840
 8254TIP3    H246254   5.163   2.620  10.920 -2.0193 -0.3813  0.2567
 8255TIP3   OH246255   5.723   0.367   1.387 -0.2210  0.2431  0.6414
 8255TIP3    H146256   5.658   0.299   1.369 -0.1646  0.5449 -0.8456
 8255TIP3    H246257   5.678   0.449   1.366  0.6288  0.4523 -0.4555
 8256TIP3   OH246258   6.463   4.032  10.996 -0.0632 -0.0542  0.1059
 8256TIP3    H146259   6.437   4.012  10.906  0.1213  1.3478 -0.2865
 8256TIP3    H246260   6.381   4.053  11.040 -0.2225 -1.2893  0.4420
 8257TIP3   OH246261   3.490   4.338  14.165 -0.1866  0.3507 -0.1281
 8257TIP3    H146262   3.396   4.352  14.177 -0.2145 -1.3540  2.2621
 8257TIP3    H246263   3.499   4.309  14.074 -1.6584  2.4141 -1.0206
 8258TIP3   OH246264   0.000   1.168   4.661 -0.0318 -0.0742 -0.2266
 8258TIP3    H146265   0.053   1.208   4.730  2.9972 -2.1231 -1.1719
 8258TIP3    H246266  -0.076   1.132   4.706  0.4993  0.9548  1.5885
 8259TIP3   OH246267   5.972   0.235   5.465  0.2307 -0.1502  0.2309
 8259TIP3    H146268   6.021   0.195   5.537  0.7282 -0.7428 -0.4260
 8259TIP3    H246269   6.038   0.272   5.408 -0.1954  0.9259  0.4145
 8260TIP3   OH246270   4.614   3.862   1.065 -0.4336 -0.3937  0.9054
 8260TIP3    H146271   4.524   3.832   1.081 -1.5905  0.7470 -2.4641
 8260TIP3    H246272   4.603   3.952   1.034  1.7431 -0.5820 -0.6344
 8261TIP3   OH246273   0.019   2.885   1.225 -0.5139  0.1128 -0.4010
 8261TIP3    H146274  -0.005   2.804   1.180  1.4546 -0.1007 -1.1723
 8261TIP3    H246275  -0.019   2.954   1.171 -1.1243 -0.2578 -0.4510
 8262TIP3   OH246276   0.933   3.815  11.309 -0.3218  0.2057  0.5034
 8262TIP3    H146277   0.920   3.730  11.267  1.0960  0.7302 -1.1057
 8262TIP3    H246278   0.891   3.878  11.250 -1.1242  0.6907  1.5437
 8263TIP3   OH246279   5.360   4.330  16.231  0.6849  0.0041 -0.7772
 8263TIP3    H146280   5.434   4.366  16.279  0.7863  0.2439 -1.1102
 8263TIP3    H246281   5.328   4.403  16.178  1.5217 -0.6330 -2.2257
 8264TIP3   OH246282   1.847   5.060  11.886  0.2307  0.0173  0.0979
 8264TIP3    H146283   1.811   5.122  11.949 -0.3486 -0.7117  0.5150
 8264TIP3    H246284   1.786   4.986  11.888  0.3055 -0.1148 -1.1751
 8265TIP3   OH246285   1.779   1.381   2.437 -0.3142  0.0769 -0.0681
 8265TIP3    H146286   1.688   1.353   2.442 -0.5098  0.6440 -0.3272
 8265TIP3    H246287   1.776   1.463   2.387  0.5875 -1.0205 -2.0385
 8266TIP3   OH246288   1.777   2.175   2.369 -1.0017 -0.1169 -0.0118
 8266TIP3    H146289   1.815   2.261   2.386  1.5840 -1.3655  1.1050
 8266TIP3    H246290   1.773   2.169   2.274  0.9944  0.4150 -0.1800
 8267TIP3   OH246291   5.991   3.015   0.568 -0.0009  0.0769  0.2165
 8267TIP3    H146292   5.916   2.994   0.513  0.2031 -0.1170  0.0108
 8267TIP3    H246293   6.001   3.110   0.559  1.5262 -0.2162 -2.0357
 8268TIP3   OH246294   3.239   3.660   2.150 -0.0484  0.6375  0.2895
 8268TIP3    H146295   3.226   3.627   2.238  0.1726 -0.7945 -0.1877
 8268TIP3    H246296   3.262   3.582   2.098 -0.2056  1.4370 -1.0279
 8269TIP3   OH246297   1.975   1.253   4.800 -0.0074 -0.4709  0.5550
 8269TIP3    H146298   2.047   1.201   4.766  0.9599  0.9629  0.3247
 8269TIP3    H246299   1.897   1.199   4.784  0.7744 -1.2053 -1.0287
 8270TIP3   OH246300   1.090   6.454  16.492  0.0624  0.1360  0.4401
 8270TIP3    H146301   1.001   6.429  16.467  0.1907  0.5675 -0.5315
 8270TIP3    H246302   1.083   6.484  16.582 -0.8921  0.7051  0.1899
 8271TIP3   OH246303   2.067   5.707  13.205  0.0791  0.0186  0.2046
 8271TIP3    H146304   2.034   5.691  13.293 -0.0302  0.2585  0.2068
 8271TIP3    H246305   2.115   5.790  13.212  0.3862 -0.1489  0.1230
 8272TIP3   OH246306   4.451   4.245   2.647  0.0210 -0.0142  0.0541
 8272TIP3    H146307   4.361   4.215   2.653 -0.3741  1.2783  1.2389
 8272TIP3    H246308   4.501   4.182   2.700 -0.1415 -0.8393 -0.7576
 8273TIP3   OH246309   2.907   1.130  16.006 -0.8962  0.2162 -0.0948
 8273TIP3    H146310   2.924   1.047  15.961 -0.3346  0.1060  0.3168
 8273TIP3    H246311   2.811   1.135  16.010 -0.9634 -1.4888  1.8264
 8274TIP3   OH246312   6.258   4.054   4.599  0.0158 -0.1205 -0.6807
 8274TIP3    H146313   6.351   4.062   4.620 -0.0931  0.9326 -0.5436
 8274TIP3    H246314   6.222   4.141   4.618 -1.3710 -1.0315  1.1212
 8275TIP3   OH246315   1.090   0.413   5.784  0.5549  0.3061 -0.3006
 8275TIP3    H146316   1.142   0.338   5.754  1.0802  0.9800 -1.1273
 8275TIP3    H246317   1.136   0.444   5.862 -0.0727 -0.6530  0.4768
 8276TIP3   OH246318   0.649   6.377  14.807  0.3900  0.1418 -0.2776
 8276TIP3    H146319   0.568   6.393  14.856  0.1211  0.5942 -0.8498
 8276TIP3    H246320   0.719   6.385  14.872 -0.0505 -0.6806  0.3084
 8277TIP3   OH246321   6.746   3.526   3.246  0.1095 -0.2942 -0.2470
 8277TIP3    H146322   6.695   3.447   3.265 -1.8343  1.2014  1.1613
 8277TIP3    H246323   6.683   3.587   3.208  1.3981  0.8538 -0.6283
 8278TIP3   OH246324   2.080   6.796   1.392  0.0934  0.5275  0.2647
 8278TIP3    H146325   2.151   6.745   1.353  0.3586  2.5718 -2.2152
 8278TIP3    H246326   2.110   6.816   1.480  1.8298 -0.0530 -0.1548
 8279TIP3   OH246327   5.566   6.255  14.981 -0.1792 -0.1657 -0.1556
 8279TIP3    H146328   5.528   6.298  15.058 -0.4780 -2.8831  1.3542
 8279TIP3    H246329   5.500   6.191  14.954  1.3390 -1.6987 -0.4162
 8280TIP3   OH246330   2.636   0.428  12.832  0.6967  0.0525 -0.3972
 8280TIP3    H146331   2.684   0.369  12.891 -0.5964  0.2299  0.8954
 8280TIP3    H246332   2.586   0.369  12.776 -1.0506 -0.1774  1.2750
 8281TIP3   OH246333   4.876   2.173   0.216  0.0992 -0.0074  0.1468
 8281TIP3    H146334   4.874   2.224   0.134  1.9123 -1.8482 -1.1590
 8281TIP3    H246335   4.964   2.189   0.251 -0.3162 -0.0292  1.2155
 8282TIP3   OH246336   3.803   3.252   3.244  0.4098  0.0993 -0.1666
 8282TIP3    H146337   3.831   3.188   3.310 -2.4091 -1.0464  0.0650
 8282TIP3    H246338   3.877   3.259   3.184  1.4138 -2.2199  0.6729
 8283TIP3   OH246339   2.722   3.109  11.248 -0.1130  0.1983  0.1124
 8283TIP3    H146340   2.803   3.154  11.274  0.4470 -1.1833  0.8905
 8283TIP3    H246341   2.729   3.099  11.153  0.0580  1.1434  0.0163
 8284TIP3   OH246342   4.053   1.003   0.399  0.3246 -0.2779  0.3539
 8284TIP3    H146343   4.112   1.074   0.423  2.2114 -1.2022 -1.2829
 8284TIP3    H246344   4.029   0.962   0.482 -0.0750  1.6352  1.2495
 8285TIP3   OH246345   1.875   1.633   2.183  0.4532 -0.2011  0.1564
 8285TIP3    H146346   1.881   1.588   2.098 -1.5677  0.2415 -0.2761
 8285TIP3    H246347   1.939   1.704   2.177 -0.9378  1.0006 -1.8137
 8286TIP3   OH246348   0.087   6.437   1.443  0.4785  0.6416 -0.1469
 8286TIP3    H146349   0.055   6.348   1.452 -0.7058  1.1379  0.8690
 8286TIP3    H246350   0.063   6.463   1.354  0.8733 -0.0592 -0.4626
 8287TIP3   OH246351   3.569   6.331   4.674 -0.1631  0.3055 -0.6983
 8287TIP3    H146352   3.543   6.310   4.584  0.9878 -0.0437 -0.9695
 8287TIP3    H246353   3.630   6.261   4.698 -0.3824  0.4589  0.3195
 8288TIP3   OH246354   3.284   1.527  12.669  0.0574  0.5624 -0.3157
 8288TIP3    H146355   3.272   1.518  12.763 -2.4141 -0.6983 -0.6736
 8288TIP3    H246356   3.357   1.468  12.649 -1.1290 -1.2977  0.5193
 8289TIP3   OH246357   0.537   0.103   3.140  0.5793 -0.0478 -0.0045
 8289TIP3    H146358   0.543   0.010   3.121 -2.1665 -0.0744 -1.1345
 8289TIP3    H246359   0.507   0.107   3.231 -1.8350 -0.4397 -0.7043
 8290TIP3   OH246360   3.964   4.588   4.893  0.2761  0.1393  0.2420
 8290TIP3    H146361   3.974   4.611   4.801  0.6175 -3.3439 -0.7171
 8290TIP3    H246362   3.874   4.558   4.901  0.3415  0.1196  0.9686
 8291TIP3   OH246363   2.802   2.876  13.430 -0.1229 -0.3353  0.2905
 8291TIP3    H146364   2.720   2.846  13.389  0.7157 -2.7535  0.2204
 8291TIP3    H246365   2.791   2.855  13.523  0.6879 -1.4690  0.1556
 8292TIP3   OH246366   3.651   2.503  12.631 -0.5980 -0.1421 -0.3702
 8292TIP3    H146367   3.714   2.574  12.648 -0.8589 -0.0738  0.3629
 8292TIP3    H246368   3.584   2.515  12.698 -1.4823 -0.1202 -1.2384
 8293TIP3   OH246369   6.794   3.046   4.357  0.0545 -0.0374 -0.0260
 8293TIP3    H146370   6.793   2.968   4.413  0.1865 -0.5492 -0.7187
 8293TIP3    H246371   6.809   3.119   4.417 -2.1477 -0.2916  0.9442
 8294TIP3   OH246372   0.327   4.662   2.132 -0.3397 -0.3880  0.5353
 8294TIP3    H146373   0.423   4.666   2.135 -0.3870  1.5248  0.5372
 8294TIP3    H246374   0.299   4.686   2.221 -0.8366 -1.2871  0.6390
 8295TIP3   OH246375   6.039   6.060  14.524  0.2493  0.0909 -0.5104
 8295TIP3    H146376   6.097   6.120  14.570 -0.7229  2.1182 -1.7816
 8295TIP3    H246377   5.985   6.021  14.593  0.1683  1.5206  0.2663
 8296TIP3   OH246378   3.576   5.984  12.368  0.0546 -0.1568  0.3905
 8296TIP3    H146379   3.504   6.046  12.356 -1.0707 -1.2238  1.3512
 8296TIP3    H246380   3.655   6.034  12.349 -0.9285  1.0906 -0.5358
 8297TIP3   OH246381   3.309   4.317   2.374 -0.0256 -0.4914  0.4444
 8297TIP3    H146382   3.320   4.236   2.424  2.9546 -0.7861 -0.4356
 8297TIP3    H246383   3.391   4.324   2.324 -1.6157  1.2850 -2.1327
 8298TIP3   OH246384   2.818   2.542  11.326 -0.4936  0.6874 -0.1254
 8298TIP3    H146385   2.805   2.478  11.257  0.9166 -1.6131  1.5973
 8298TIP3    H246386   2.823   2.490  11.407 -0.6798  3.1014  1.5625
 8299TIP3   OH246387   6.395   5.081  15.732  0.2797  0.4621  0.1351
 8299TIP3    H146388   6.400   5.162  15.680 -2.2473 -0.8743 -2.5116
 8299TIP3    H246389   6.306   5.081  15.769 -0.2108 -1.5127 -0.8629
 8300TIP3   OH246390   3.206   1.733   4.025 -0.6303  0.2406  0.5400
 8300TIP3    H146391   3.148   1.694   4.090 -0.1716 -0.3641  0.5923
 8300TIP3    H246392   3.268   1.664   4.003  1.0224  1.2953  1.6017
 8301TIP3   OH246393   4.203   3.579  17.108  0.0013 -0.6122 -0.2799
 8301TIP3    H146394   4.111   3.556  17.123 -0.3134  1.2518  0.9534
 8301TIP3    H246395   4.249   3.544  17.184 -0.1103  0.5886  0.3698
 8302TIP3   OH246396   2.060   0.607  15.278  0.4156 -0.3977  0.3100
 8302TIP3    H146397   2.003   0.536  15.307  1.4855 -1.7958 -0.8162
 8302TIP3    H246398   2.001   0.673  15.243 -0.5587 -1.5772 -0.3486
 8303TIP3   OH246399   0.008   5.618   4.912 -0.3486  0.0354  0.2524
 8303TIP3    H146400   0.080   5.581   4.962  0.5562  0.3591 -0.7650
 8303TIP3    H246401  -0.061   5.552   4.916 -0.7002  0.4679  2.7239
 8304TIP3   OH246402   0.654   2.356  14.463 -0.0842  0.2953  0.4958
 8304TIP3    H146403   0.616   2.374  14.549 -1.4113 -2.1863  0.5365
 8304TIP3    H246404   0.690   2.267  14.472 -0.2788 -0.0245 -1.4943
 8305TIP3   OH246405   1.527   6.597  16.385 -0.1409  0.1519 -0.0286
 8305TIP3    H146406   1.483   6.514  16.368  0.3993 -0.5168  1.6556
 8305TIP3    H246407   1.620   6.576  16.388 -0.0526  0.6334  1.2489
 8306TIP3   OH246408   3.504   1.889  16.621 -0.1048  0.1900  0.2312
 8306TIP3    H146409   3.475   1.809  16.577  0.2152  0.4419 -0.4493
 8306TIP3    H246410   3.600   1.887  16.614 -0.1379  1.1253 -0.6892
 8307TIP3   OH246411   0.553   5.374  11.414 -0.2996 -0.3230  0.3351
 8307TIP3    H146412   0.513   5.419  11.487 -1.2227 -2.7569  1.4137
 8307TIP3    H246413   0.485   5.370  11.347 -0.1588 -0.0164  0.1676
 8308TIP3   OH246414   6.026   0.963  10.865 -0.4292  0.1053 -0.8387
 8308TIP3    H146415   6.038   1.052  10.832 -0.1589  0.3738 -0.0415
 8308TIP3    H246416   5.962   0.924  10.807 -2.1745  1.5169  0.0382
 8309TIP3   OH246417   5.996   0.911  13.093 -0.1221 -0.9166  0.1740
 8309TIP3    H146418   6.049   0.930  13.171  0.0138 -0.5002 -0.0209
 8309TIP3    H246419   6.046   0.946  13.020 -0.0246 -1.7156 -0.1609
 8310TIP3   OH246420   2.059   3.314   2.568  0.2958  0.4856  0.2192
 8310TIP3    H146421   1.984   3.321   2.628 -0.0855 -0.3231 -0.1426
 8310TIP3    H246422   2.093   3.226   2.583  0.4617  0.4310 -0.4331
 8311TIP3   OH246423   2.580   4.011   1.056  0.1450  0.1334  0.2734
 8311TIP3    H146424   2.615   3.922   1.053  1.9193  0.8239 -0.8727
 8311TIP3    H246425   2.655   4.065   1.081 -1.1860  1.2176  2.2551
 8312TIP3   OH246426   6.595   5.225  12.440 -0.0749  0.1352 -0.0833
 8312TIP3    H146427   6.563   5.224  12.350  1.0249  1.3680 -0.5239
 8312TIP3    H246428   6.685   5.193  12.434  1.1746  3.2617  0.0007
 8313TIP3   OH246429   4.767   3.423   0.407  0.3440  0.6541 -0.2312
 8313TIP3    H146430   4.688   3.380   0.441  0.8119  0.2859  0.4230
 8313TIP3    H246431   4.757   3.515   0.434  0.1927  0.5864 -0.0493
 8314TIP3   OH246432   4.836   0.823   0.589  0.4591  0.2199 -0.4388
 8314TIP3    H146433   4.774   0.829   0.661  0.5443  1.3857 -0.4295
 8314TIP3    H246434   4.842   0.730   0.569  0.3385 -0.1096  0.9641
 8315TIP3   OH246435   4.196   5.417  13.588  0.3046 -1.1847  0.2085
 8315TIP3    H146436   4.191   5.369  13.505 -0.2661 -0.5150 -0.1547
 8315TIP3    H246437   4.255   5.490  13.570 -0.0851 -0.8477  0.2936
 8316TIP3   OH246438   6.762   6.150  12.767  0.4150 -0.2275  0.3023
 8316TIP3    H146439   6.711   6.145  12.848  1.4206 -0.9031  0.9260
 8316TIP3    H246440   6.699   6.130  12.698  0.0480 -2.2782  1.1529
 8317TIP3   OH246441   3.167   3.285   6.631  0.7498  0.4111  0.3327
 8317TIP3    H146442   3.131   3.369   6.659  1.7515  0.8804  0.2936
 8317TIP3    H246443   3.205   3.303   6.545 -0.0814 -0.3906 -0.2203
 8318TIP3   OH246444   0.731   3.740  12.345  0.1769  0.0795 -0.8429
 8318TIP3    H146445   0.737   3.710  12.254 -2.3007 -1.3306 -0.6417
 8318TIP3    H246446   0.641   3.771  12.354  0.5829  0.8480  0.9634
 8319TIP3   OH246447   4.421   2.186   3.587  0.2168  0.2286 -0.1970
 8319TIP3    H146448   4.444   2.228   3.669  0.6263  0.3885 -0.3927
 8319TIP3    H246449   4.333   2.152   3.601 -0.3929  1.7361 -0.2717
 8320TIP3   OH246450   5.646   3.702   3.695  0.6659  0.2221  0.3073
 8320TIP3    H146451   5.606   3.775   3.647 -2.5029 -0.2857  1.9125
 8320TIP3    H246452   5.630   3.626   3.639 -2.4509 -0.2666  1.6927
 8321TIP3   OH246453   2.283   3.748  13.133 -0.1894 -0.2550 -0.4009
 8321TIP3    H146454   2.300   3.654  13.143  0.5717 -0.1628 -0.7717
 8321TIP3    H246455   2.204   3.752  13.080 -1.4225 -0.6945  1.3136
 8322TIP3   OH246456   2.545   6.611   1.158 -0.3123 -0.0202  0.0504
 8322TIP3    H146457   2.469   6.553   1.154  0.8748 -1.6148 -0.2965
 8322TIP3    H246458   2.619   6.552   1.174  1.0851  1.2920 -1.2710
 8323TIP3   OH246459   3.967   6.286   3.975 -0.0966 -0.1708  0.0334
 8323TIP3    H146460   3.875   6.258   3.972  0.2650 -1.4856  0.5620
 8323TIP3    H246461   3.995   6.286   3.883  0.0429 -2.1560  0.0445
 8324TIP3   OH246462   5.793   4.886  11.356  0.2966  0.8118  0.4701
 8324TIP3    H146463   5.811   4.812  11.414 -0.6994 -2.1707 -2.6901
 8324TIP3    H246464   5.864   4.948  11.373  1.0480 -0.6758  3.4516
 8325TIP3   OH246465   4.598   5.529   3.026  0.1007 -0.2092  0.2331
 8325TIP3    H146466   4.597   5.586   3.102 -4.1518 -0.7923  0.8139
 8325TIP3    H246467   4.626   5.444   3.061  1.3372  0.2320  0.3930
 8326TIP3   OH246468   5.478   6.534   3.315 -0.0223  0.3095 -0.0660
 8326TIP3    H146469   5.487   6.550   3.409  0.6697  1.0278 -0.2380
 8326TIP3    H246470   5.385   6.519   3.302  0.0904 -1.6731  0.9955
 8327TIP3   OH246471   5.664   4.163   3.830  0.2661  0.4620 -0.1052
 8327TIP3    H146472   5.755   4.151   3.803  0.3283  0.1622  0.2348
 8327TIP3    H246473   5.665   4.244   3.881  0.3738  0.3648  0.0465
 8328TIP3   OH246474   1.182   2.799  15.363  0.3856  0.1266  0.4047
 8328TIP3    H146475   1.104   2.824  15.314  0.7816 -0.3150 -0.4824
 8328TIP3    H246476   1.161   2.714  15.400 -0.3274  0.9576  1.9745
 8329TIP3   OH246477   5.888   2.635  14.155 -0.0743 -0.0007 -0.1370
 8329TIP3    H146478   5.955   2.658  14.091  0.0715  0.2864  0.1140
 8329TIP3    H246479   5.866   2.544  14.137  0.8186 -0.2793  0.1598
 8330TIP3   OH246480   6.048   2.990  11.961  0.4602  0.2319 -0.2060
 8330TIP3    H146481   6.134   2.950  11.950  1.3272  1.9260  0.1133
 8330TIP3    H246482   6.024   2.972  12.052 -0.1389 -1.3766 -0.6688
 8331TIP3   OH246483   3.021   2.047  12.199 -0.6391  0.1358 -0.9713
 8331TIP3    H146484   3.026   2.139  12.225 -0.0415  0.1104 -0.9697
 8331TIP3    H246485   2.987   2.048  12.110 -0.5162  0.3673 -1.0158
 8332TIP3   OH246486   2.213   5.757  11.195  0.1298 -0.3655 -0.3378
 8332TIP3    H146487   2.272   5.831  11.210  0.5479 -0.3342 -1.9337
 8332TIP3    H246488   2.126   5.789  11.218  0.1496  0.9990 -2.0102
 8333TIP3   OH246489   6.668   0.972  11.494  0.5494 -0.3168  0.4661
 8333TIP3    H146490   6.647   0.950  11.403  0.0134 -0.8753  0.7142
 8333TIP3    H246491   6.618   0.909  11.545 -1.4875  1.7500  1.2382
 8334TIP3   OH246492   5.163   0.003  13.510  0.0037  0.1343 -0.2842
 8334TIP3    H146493   5.138   0.022  13.600  1.0320 -0.5687  0.1647
 8334TIP3    H246494   5.082  -0.028  13.469  0.0541 -2.1250  1.1388
 8335TIP3   OH246495   5.240   5.600   0.006 -0.2211  0.0801  0.4035
 8335TIP3    H146496   5.281   5.557  -0.070 -0.8434 -1.1841  0.7495
 8335TIP3    H246497   5.289   5.566   0.081 -2.2130 -1.9483  0.8798
 8336TIP3   OH246498   3.443   0.099  11.281  0.5791 -0.3660  0.3828
 8336TIP3    H146499   3.450   0.192  11.260 -0.3781 -0.3137  0.2932
 8336TIP3    H246500   3.375   0.093  11.347  0.4146 -1.0413  0.1648
 8337TIP3   OH246501   2.873   6.082   0.073  0.8258  0.0500 -0.0407
 8337TIP3    H146502   2.899   6.103   0.163  2.6138 -0.2231 -0.4480
 8337TIP3    H246503   2.805   6.146   0.052  0.8862  0.5806  1.2570
 8338TIP3   OH246504   0.164   3.005   0.326  0.2273  0.3664  1.1541
 8338TIP3    H146505   0.234   3.052   0.280 -1.0508  0.4083 -0.8791
 8338TIP3    H246506   0.192   2.914   0.328 -0.2482  0.1360 -0.9524
 8339TIP3   OH246507   3.286   0.501   6.357  0.0946 -0.4248 -0.1450
 8339TIP3    H146508   3.340   0.426   6.382  0.2366 -0.0022  0.8620
 8339TIP3    H246509   3.289   0.502   6.261  3.3729  0.6594 -0.1439
 8340TIP3   OH246510   0.144   1.940   1.019  0.0931  0.1057 -0.1396
 8340TIP3    H146511   0.066   1.964   0.968 -0.1237 -0.9617 -0.3581
 8340TIP3    H246512   0.130   1.847   1.039  0.6404  0.2736  1.0532
 8341TIP3   OH246513   6.202   2.362  15.012  0.2379 -0.0052  0.2215
 8341TIP3    H146514   6.287   2.399  14.985  0.0902 -0.5862 -1.1267
 8341TIP3    H246515   6.146   2.438  15.025  0.5259  0.3351 -0.4640
 8342TIP3   OH246516   2.042   1.304   2.188 -0.0403 -0.3395  0.3820
 8342TIP3    H146517   2.015   1.214   2.169 -0.2644 -0.3154  0.5724
 8342TIP3    H246518   1.965   1.357   2.167  0.5083 -0.0394 -0.9644
 8343TIP3   OH246519   5.033   4.953  14.653 -0.1925 -0.0242  0.3236
 8343TIP3    H146520   5.021   4.928  14.561  0.9374 -0.0400  0.1672
 8343TIP3    H246521   5.004   4.876  14.702 -1.5842  0.2876  0.0154
 8344TIP3   OH246522   6.351   1.690   3.944  0.1578  0.2889  0.0107
 8344TIP3    H146523   6.290   1.617   3.958  0.6006  0.3015  2.4032
 8344TIP3    H246524   6.295   1.767   3.944 -0.1751  0.0706 -1.3022
 8345TIP3   OH246525   4.903   1.650  14.264 -0.6706 -0.4254  0.2429
 8345TIP3    H146526   4.933   1.699  14.340  2.0429 -3.2038  1.1213
 8345TIP3    H246527   4.970   1.665  14.197 -1.4032 -0.5237 -0.5367
 8346TIP3   OH246528   3.266   2.327   1.509  0.0882 -0.0991  0.0378
 8346TIP3    H146529   3.232   2.372   1.586 -0.5597 -2.9640  1.5784
 8346TIP3    H246530   3.191   2.322   1.449  0.1275  0.7042 -0.0854
 8347TIP3   OH246531   5.452   2.506  14.904 -0.4581 -0.3182  0.3862
 8347TIP3    H146532   5.364   2.478  14.928 -0.1205 -2.1250 -0.3407
 8347TIP3    H246533   5.455   2.502  14.809 -0.0489  1.2658  0.3013
 8348TIP3   OH246534   3.354   5.182   3.113  0.0626  0.2168 -0.5271
 8348TIP3    H146535   3.341   5.089   3.129  0.7831  0.1696 -0.1575
 8348TIP3    H246536   3.396   5.186   3.027  0.4829  0.1663 -0.3254
 8349TIP3   OH246537   1.995   2.752  16.575 -0.0261 -0.5835  0.0262
 8349TIP3    H146538   1.908   2.787  16.594  0.2348 -0.1785  0.5054
 8349TIP3    H246539   1.979   2.665  16.538 -0.6094 -2.5306  4.1984
 8350TIP3   OH246540   4.668   6.227   2.175 -0.3895  0.1656 -0.6870
 8350TIP3    H146541   4.757   6.215   2.141 -0.3669  0.0504 -0.5874
 8350TIP3    H246542   4.617   6.157   2.133 -0.2779 -0.2304 -0.1791
 8351TIP3   OH246543   3.756   1.297  14.348 -0.5776  0.1408  0.6993
 8351TIP3    H146544   3.807   1.262  14.422 -0.2123 -3.0331 -0.8695
 8351TIP3    H246545   3.672   1.322  14.387 -0.0507 -0.4889  2.3576
 8352TIP3   OH246546   5.198   0.738   0.720  0.0664 -0.2462  0.2955
 8352TIP3    H146547   5.204   0.643   0.707 -0.3147 -0.2186 -0.0996
 8352TIP3    H246548   5.288   0.769   0.707  0.0230 -0.4422 -0.5070
 8353TIP3   OH246549   0.598   3.967   0.449  0.2823  0.1410 -0.1096
 8353TIP3    H146550   0.683   4.010   0.441  1.5425 -2.2254 -0.6964
 8353TIP3    H246551   0.558   4.006   0.526  0.9051  2.8439 -1.0384
 8354TIP3   OH246552   6.234   0.513  14.519 -0.1477 -0.1807 -0.6968
 8354TIP3    H146553   6.287   0.549  14.591  0.6649 -1.0420 -0.8464
 8354TIP3    H246554   6.261   0.564  14.442 -0.8196  0.5568 -0.4547
 8355TIP3   OH246555   6.774   0.077  12.154 -0.1803  0.2317  0.1478
 8355TIP3    H146556   6.803  -0.002  12.108 -1.0502 -0.9803  1.5879
 8355TIP3    H246557   6.712   0.045  12.219  0.1418  2.0139  1.3962
 8356TIP3   OH246558   1.625   5.718  15.287  0.8030  0.4667 -0.4214
 8356TIP3    H146559   1.534   5.687  15.280  0.9060 -0.6033  2.1152
 8356TIP3    H246560   1.659   5.710  15.198 -1.3403  0.1485 -1.2872
 8357TIP3   OH246561   4.515   4.591   1.728  0.1877  0.0083  0.3422
 8357TIP3    H146562   4.541   4.616   1.640 -1.8539 -0.6612 -0.5041
 8357TIP3    H246563   4.590   4.615   1.783  1.2226  1.0704 -1.4485
 8358TIP3   OH246564   5.553   5.839   2.547 -0.2702  0.2547 -0.3331
 8358TIP3    H146565   5.539   5.811   2.457 -0.1300  0.8376 -0.5417
 8358TIP3    H246566   5.472   5.884   2.572 -0.1780  0.3937 -0.2837
 8359TIP3   OH246567   4.335   2.454   5.519  0.7864  0.4499  0.2620
 8359TIP3    H146568   4.258   2.498   5.553  0.5374 -0.4020  0.8118
 8359TIP3    H246569   4.311   2.429   5.429  0.1190 -0.5058  0.6872
 8360TIP3   OH246570   5.205   6.689   5.136 -0.1246 -0.0511 -0.2719
 8360TIP3    H146571   5.220   6.731   5.220 -2.3247  0.2510  0.0083
 8360TIP3    H246572   5.125   6.728   5.102 -0.1762 -1.3162 -1.7660
 8361TIP3   OH246573   6.060   3.624  12.897 -0.3620  0.6857  0.4321
 8361TIP3    H146574   6.025   3.610  12.808  0.2171  4.1626 -0.4750
 8361TIP3    H246575   6.004   3.692  12.934  1.3711  1.5946  1.4961
 8362TIP3   OH246576   2.141   6.148  15.499  0.0958 -0.0802  0.2966
 8362TIP3    H146577   2.141   6.172  15.592 -0.5856  0.2508  0.2223
 8362TIP3    H246578   2.173   6.058  15.497 -0.7498 -0.4144  0.9531
 8363TIP3   OH246579   1.486   5.958  15.896  0.3923  0.0039  0.0579
 8363TIP3    H146580   1.557   6.010  15.934  1.8452 -1.1943 -0.9106
 8363TIP3    H246581   1.493   5.973  15.801  0.1844 -1.1313 -0.1533
 8364TIP3   OH246582   3.261   0.758   0.587  0.3663  0.1203 -0.5013
 8364TIP3    H146583   3.237   0.713   0.506 -0.7235  0.2062 -0.2515
 8364TIP3    H246584   3.177   0.779   0.628  0.8989  0.1547  0.6148
 8365TIP3   OH246585   3.670   3.754   0.576  0.7237 -0.0109  0.3621
 8365TIP3    H146586   3.687   3.797   0.660  0.8723 -0.0509  0.3535
 8365TIP3    H246587   3.634   3.823   0.520  1.0165  0.1155  0.3305
 8366TIP3   OH246588   2.648   5.005  17.230  0.2400 -0.6253 -0.3407
 8366TIP3    H146589   2.665   4.932  17.289 -0.5107  0.1402  0.8650
 8366TIP3    H246590   2.610   5.073  17.286  0.2206  0.4142 -1.5680
 8367TIP3   OH246591   5.901   5.953   0.419  0.4251 -0.0005  0.0759
 8367TIP3    H146592   5.906   5.962   0.514  0.8284  0.6469  0.0006
 8367TIP3    H246593   5.807   5.946   0.401  0.2604  1.1673  0.4194
 8368TIP3   OH246594   4.189   0.202  10.966 -0.5249 -0.3555  0.6321
 8368TIP3    H146595   4.182   0.114  10.929  3.1191 -1.0246  1.1103
 8368TIP3    H246596   4.281   0.209  10.993  0.3946  4.7463 -2.4055
 8369TIP3   OH246597   0.983   1.453  13.572  0.2598  0.4606  0.0664
 8369TIP3    H146598   0.910   1.506  13.601 -1.6522 -2.0109  0.0848
 8369TIP3    H246599   0.950   1.363  13.573  3.4738 -0.8676  0.6566
 8370TIP3   OH246600   0.203   2.501   0.171  0.6764 -0.0284  0.1947
 8370TIP3    H146601   0.238   2.411   0.174  1.4360  0.2401 -0.2279
 8370TIP3    H246602   0.206   2.524   0.078 -0.0865  0.2216  0.2286
 8371TIP3   OH246603   5.667   1.357  16.706 -0.3230 -0.0095  0.6244
 8371TIP3    H146604   5.749   1.391  16.671 -0.0888 -2.5038 -1.5725
 8371TIP3    H246605   5.606   1.430  16.700  1.2726  1.3846  0.6571
 8372TIP3   OH246606   2.962   3.036  13.065  0.6120 -0.3751 -0.1074
 8372TIP3    H146607   2.994   2.970  13.127  2.3859  1.8233  1.4638
 8372TIP3    H246608   2.899   3.088  13.115  0.0906 -0.1628 -0.9659
 8373TIP3   OH246609   2.633   3.740   4.581  0.1700 -0.4174 -0.0988
 8373TIP3    H146610   2.652   3.828   4.614 -0.4680  0.3998 -1.8083
 8373TIP3    H246611   2.662   3.742   4.490 -0.0403 -1.9283 -0.2181
 8374TIP3   OH246612   1.842   3.138   5.242 -0.2624 -0.1859  0.2974
 8374TIP3    H146613   1.892   3.215   5.214  2.5630 -1.4580  1.4192
 8374TIP3    H246614   1.822   3.155   5.334 -2.1285  0.3616 -0.1689
 8375TIP3   OH246615   4.480   2.720   1.661  0.3227 -0.2545  0.2896
 8375TIP3    H146616   4.510   2.701   1.573  0.2156 -1.8108  0.5723
 8375TIP3    H246617   4.433   2.642   1.689 -2.1534  1.2510  0.6854
 8376TIP3   OH246618   6.571   1.804   1.010  0.0852 -0.1876 -0.2150
 8376TIP3    H146619   6.665   1.804   1.028 -0.1708 -1.0994  1.3037
 8376TIP3    H246620   6.560   1.740   0.939  0.3540 -2.0760  1.3753
 8377TIP3   OH246621   5.101   1.727   3.396 -0.2342  0.4023  0.0716
 8377TIP3    H146622   5.168   1.676   3.442 -0.8532  0.4339  1.0384
 8377TIP3    H246623   5.083   1.677   3.316 -1.8754 -1.7605  1.6642
 8378TIP3   OH246624   5.126   3.108   5.895  0.2520 -0.2389  0.2506
 8378TIP3    H146625   5.197   3.171   5.907 -0.6957  0.6254  1.5873
 8378TIP3    H246626   5.077   3.141   5.819  1.8467 -1.4380 -1.3698
 8379TIP3   OH246627   3.020   4.623  15.668 -0.1502 -0.0283 -0.2983
 8379TIP3    H146628   3.111   4.631  15.640 -0.4078 -2.3342 -2.1455
 8379TIP3    H246629   2.994   4.711  15.693  1.7797  1.2352 -2.4217
 8380TIP3   OH246630   4.676   3.690   0.522  0.0739  0.4370  0.8699
 8380TIP3    H146631   4.608   3.730   0.577 -0.5163 -0.5345  0.8782
 8380TIP3    H246632   4.758   3.725   0.556 -0.3112  0.2254  2.0691
 8381TIP3   OH246633   0.751   3.397  16.361  0.2759  0.2555  0.4771
 8381TIP3    H146634   0.716   3.454  16.292 -0.8679  0.2685  1.0479
 8381TIP3    H246635   0.680   3.391  16.425  0.8116 -0.8859  0.9853
 8382TIP3   OH246636   1.548   0.401  12.556  1.1923 -0.3027 -0.3842
 8382TIP3    H146637   1.559   0.306  12.554  1.2366 -0.3087 -2.9587
 8382TIP3    H246638   1.460   0.416  12.522  1.3939  0.5887 -0.5254
 8383TIP3   OH246639   5.957   3.528   2.855 -0.3508  0.4499 -1.3389
 8383TIP3    H146640   5.925   3.607   2.811 -1.4798  1.3887  0.9741
 8383TIP3    H246641   5.888   3.506   2.918  1.6082 -0.1327  0.7197
 8384TIP3   OH246642   3.894   0.390   4.454  0.3691 -0.3050  0.4917
 8384TIP3    H146643   3.975   0.348   4.428  0.6818 -0.0009  0.9625
 8384TIP3    H246644   3.904   0.407   4.548 -0.5693 -1.0170  0.7445
 8385TIP3   OH246645   2.005   0.730   4.523  0.2311  0.0044  0.0225
 8385TIP3    H146646   2.096   0.759   4.526  1.4348 -3.3352 -0.2044
 8385TIP3    H246647   2.004   0.661   4.456 -2.4923 -0.0324 -0.0148
 8386TIP3   OH246648   4.799   0.702  16.391 -0.0392  0.3722  0.4246
 8386TIP3    H146649   4.782   0.702  16.485 -2.0426 -1.8901  0.1643
 8386TIP3    H246650   4.757   0.782  16.359 -1.2466  0.0751  1.2095
 8387TIP3   OH246651   5.012   5.354  16.960 -0.2791  0.2526 -0.6165
 8387TIP3    H146652   5.026   5.263  16.987 -0.7437  0.3830  0.1161
 8387TIP3    H246653   4.941   5.385  17.017  0.1557  1.1999 -0.5694
 8388TIP3   OH246654   2.196   0.251   4.214 -0.1343 -0.2508  0.0986
 8388TIP3    H146655   2.106   0.246   4.246 -0.6247 -3.7520 -1.3422
 8388TIP3    H246656   2.189   0.301   4.132 -1.1329 -1.7533 -0.7877
 8389TIP3   OH246657   6.511   4.148   4.037 -0.5857 -0.0108  0.0007
 8389TIP3    H146658   6.524   4.242   4.053 -2.1014  0.2298 -0.0040
 8389TIP3    H246659   6.417   4.134   4.052 -0.6475 -1.2569 -1.3356
 8390TIP3   OH246660   6.286   1.479   0.883  0.9342 -0.6979 -0.2635
 8390TIP3    H146661   6.368   1.440   0.914  0.7847 -0.4224  0.4860
 8390TIP3    H246662   6.313   1.560   0.840  0.9034  0.4323  1.7554
 8391TIP3   OH246663   0.469   2.153   4.216  0.1650 -0.0360 -0.3362
 8391TIP3    H146664   0.495   2.171   4.125 -1.2535  0.6539 -0.6347
 8391TIP3    H246665   0.467   2.058   4.222 -0.8164 -0.1093 -1.3855
 8392TIP3   OH246666   2.718   3.405  17.148 -0.3571 -0.1075 -0.4214
 8392TIP3    H146667   2.745   3.494  17.128 -0.8176 -0.2882 -1.9899
 8392TIP3    H246668   2.781   3.374  17.213 -0.0878  1.2802  0.0040
 8393TIP3   OH246669   1.057   5.374  13.592 -0.0265 -0.3242  0.5495
 8393TIP3    H146670   1.009   5.326  13.660  0.4587  0.4164  1.4355
 8393TIP3    H246671   0.990   5.395  13.526 -0.3953 -1.5361  0.5141
 8394TIP3   OH246672   2.845   0.049   1.466  0.1408 -0.4458 -0.6088
 8394TIP3    H146673   2.897  -0.031   1.469 -1.0172 -1.2180  2.5950
 8394TIP3    H246674   2.803   0.047   1.380  0.1744 -3.2945 -0.6469
 8395TIP3   OH246675   0.604   5.247   0.074  0.5928 -0.1982  0.0232
 8395TIP3    H146676   0.511   5.267   0.059  1.3638  2.3102 -2.0998
 8395TIP3    H246677   0.632   5.311   0.139  1.0502 -0.3580 -0.0148
 8396TIP3   OH246678   5.428   2.237   5.504  0.6479 -0.1196 -0.0069
 8396TIP3    H146679   5.413   2.207   5.593 -0.8005  0.8699  0.1038
 8396TIP3    H246680   5.451   2.157   5.456  0.0909 -0.8869  0.9561
 8397TIP3   OH246681   6.572   1.734   5.364 -0.0571 -0.1729  0.0465
 8397TIP3    H146682   6.577   1.824   5.395 -1.6738 -0.4788  1.3340
 8397TIP3    H246683   6.533   1.686   5.437  0.7929 -1.9288 -0.6064
 8398TIP3   OH246684   1.882   5.842  12.979 -0.9480 -0.3953  0.1471
 8398TIP3    H146685   1.889   5.762  12.928 -1.2477 -0.5568  0.3594
 8398TIP3    H246686   1.944   5.830  13.051 -1.0549 -0.4711  0.2264
 8399TIP3   OH246687   2.558   0.329  11.637  0.0176 -0.3327  0.3995
 8399TIP3    H146688   2.590   0.254  11.586  0.2408  0.3005 -0.4092
 8399TIP3    H246689   2.636   0.383  11.650 -0.2313 -0.0235  0.6103
 8400TIP3   OH246690   6.810   4.364  12.412  0.4297 -0.1902  0.2480
 8400TIP3    H146691   6.742   4.422  12.447  0.7271  0.5211 -0.3239
 8400TIP3    H246692   6.837   4.310  12.486  0.1042  0.3657  0.7753
 8401TIP3   OH246693   0.160   2.140   2.403  0.0109 -0.5046  0.3430
 8401TIP3    H146694   0.184   2.230   2.423  0.7989 -0.1442 -1.9798
 8401TIP3    H246695   0.065   2.143   2.388  0.0377 -0.0666  0.2574
 8402TIP3   OH246696   0.364   3.506   3.037  0.3136 -0.3340  0.2542
 8402TIP3    H146697   0.365   3.412   3.020  2.2203 -0.2297 -0.4578
 8402TIP3    H246698   0.306   3.542   2.969  0.9108 -0.8421 -0.5433
 8403TIP3   OH246699   0.780   1.662  12.599 -0.1992 -0.2918  0.1059
 8403TIP3    H146700   0.775   1.755  12.578 -0.8380 -0.5310 -0.9228
 8403TIP3    H246701   0.866   1.650  12.639  0.5909  0.4518 -1.3017
 8404TIP3   OH246702   6.445   6.745  10.835  0.0668 -0.1340 -0.5147
 8404TIP3    H146703   6.436   6.704  10.749 -0.5894  0.1990 -0.6063
 8404TIP3    H246704   6.540   6.755  10.846  0.6002 -4.3830  0.8060
 8405TIP3   OH246705   1.342   2.151  15.052  0.3556 -0.1320  0.4930
 8405TIP3    H146706   1.423   2.103  15.070  0.1833 -0.0626  1.5065
 8405TIP3    H246707   1.337   2.216  15.122 -1.7442 -1.6205  1.8235
 8406TIP3   OH246708   0.269   3.425   1.784 -0.0718  0.3513  0.5017
 8406TIP3    H146709   0.242   3.402   1.873 -1.3630 -1.1694 -0.2367
 8406TIP3    H246710   0.187   3.437   1.736  0.5999  1.5373 -0.4206
 8407TIP3   OH246711   3.234   1.575  12.251 -0.0934  0.1458  0.6131
 8407TIP3    H146712   3.263   1.632  12.179 -1.8048 -0.8786 -0.9749
 8407TIP3    H246713   3.304   1.510  12.260  0.2743  0.4614  0.0842
 8408TIP3   OH246714   0.179   2.869   6.636  0.0972 -0.4828 -0.1652
 8408TIP3    H146715   0.257   2.896   6.684  0.1490  0.3864 -0.7150
 8408TIP3    H246716   0.134   2.951   6.615 -0.3056 -0.8939 -0.9437
 8409TIP3   OH246717   2.620   6.741  13.676 -0.4960 -0.0375  0.2086
 8409TIP3    H146718   2.608   6.760  13.769 -3.7101 -0.3369 -0.0248
 8409TIP3    H246719   2.632   6.826  13.635  2.0360  0.0277  0.9342
 8410TIP3   OH246720   6.021   3.498  13.517 -0.0626 -0.4342 -0.5341
 8410TIP3    H146721   5.927   3.485  13.507 -0.1315 -0.7291  0.4548
 8410TIP3    H246722   6.037   3.490  13.611  1.0917 -1.3704 -0.7879
 8411TIP3   OH246723   2.381   0.639   4.177  0.0611 -0.1325 -0.0458
 8411TIP3    H146724   2.290   0.613   4.188 -0.2682  0.8714 -0.2724
 8411TIP3    H246725   2.426   0.558   4.153 -0.7691 -0.6407  0.0579
 8412TIP3   OH246726   4.778   3.648  13.919 -0.2476  0.4741 -0.0429
 8412TIP3    H146727   4.710   3.620  13.857 -1.4925 -0.2260  1.5708
 8412TIP3    H246728   4.745   3.621  14.005  1.6453  0.9807  0.8998
 8413TIP3   OH246729   3.504   5.420  14.133 -0.5896  0.1594  0.1901
 8413TIP3    H146730   3.446   5.491  14.103  0.1480  1.1183  0.9553
 8413TIP3    H246731   3.451   5.372  14.197 -0.8838  0.4124  0.1441
 8414TIP3   OH246732   4.376   2.051  13.225  0.1038  0.3870 -0.6035
 8414TIP3    H146733   4.410   2.138  13.205 -0.5948  0.6162 -0.8211
 8414TIP3    H246734   4.338   2.059  13.312  0.9230  0.0336 -0.2031
 8415TIP3   OH246735   3.502   5.929  11.074 -0.4500 -0.8133 -0.2739
 8415TIP3    H146736   3.581   5.962  11.030 -0.0934 -0.6617  0.4611
 8415TIP3    H246737   3.444   5.904  11.003 -0.8189  1.5560 -0.9178
 8416TIP3   OH246738   1.810   1.688   4.959  0.0866  0.5059 -0.0077
 8416TIP3    H146739   1.737   1.675   5.020  0.8805 -0.0677  0.8487
 8416TIP3    H246740   1.771   1.672   4.873 -0.5918 -0.8358  0.4983
 8417TIP3   OH246741   0.718   1.121   0.365  0.0961 -0.3558 -0.3934
 8417TIP3    H146742   0.733   1.038   0.320  1.6218 -0.0554 -0.4667
 8417TIP3    H246743   0.717   1.099   0.458 -0.7869 -0.6295 -0.4558
 8418TIP3   OH246744   0.493   4.131  11.424 -0.0210  0.5472  0.8491
 8418TIP3    H146745   0.419   4.190  11.439 -1.2282 -0.7067  0.0652
 8418TIP3    H246746   0.466   4.078  11.349  1.5920 -0.1003  0.7006
 8419TIP3   OH246747   2.715   2.779  15.924  0.1707  0.0121  1.1462
 8419TIP3    H146748   2.682   2.831  15.851 -1.3656 -0.9049  1.1410
 8419TIP3    H246749   2.667   2.811  16.000  2.0154  1.2043  1.8698
 8420TIP3   OH246750   0.043   3.757   3.343 -0.5587 -0.2007  0.4111
 8420TIP3    H146751   0.002   3.670   3.342  2.3840 -1.7108  1.0735
 8420TIP3    H246752   0.036   3.785   3.434 -1.0883  0.0706  0.2920
 8421TIP3   OH246753   0.883   4.953  16.341 -0.3087 -0.1729 -0.4785
 8421TIP3    H146754   0.896   4.887  16.273  1.7693  1.7311 -2.0742
 8421TIP3    H246755   0.971   4.985  16.360 -1.0623  0.7885  1.6710
 8422TIP3   OH246756   0.118   6.736   0.892  0.0167  0.2237 -0.2336
 8422TIP3    H146757   0.136   6.649   0.927  0.7031 -0.7602 -2.7716
 8422TIP3    H246758   0.023   6.745   0.895  0.0324  0.1046  1.5352
 8423TIP3   OH246759   5.245   4.138   3.086  0.4549 -0.0885  0.1611
 8423TIP3    H146760   5.336   4.111   3.102  0.5798 -0.5013 -1.1359
 8423TIP3    H246761   5.246   4.172   2.996 -0.6349  0.0947  0.2134
 8424TIP3   OH246762   6.271   1.091  15.131  0.4505  0.3711 -0.2185
 8424TIP3    H146763   6.211   1.142  15.077 -0.0613  0.0052  0.0014
 8424TIP3    H246764   6.215   1.028  15.176  1.1020 -0.5111 -0.6306
 8425TIP3   OH246765   2.190   4.962   0.577 -0.2125  0.0779  0.1351
 8425TIP3    H146766   2.224   4.880   0.541  1.5746 -0.4050  2.6029
 8425TIP3    H246767   2.246   5.030   0.539  0.1969 -0.1920  0.2366
 8426TIP3   OH246768   1.348   6.278  12.421 -0.8261  0.4190 -0.5811
 8426TIP3    H146769   1.258   6.293  12.391 -0.2652 -0.4942 -2.9993
 8426TIP3    H246770   1.339   6.231  12.503 -2.5333  1.9559  0.1699
 8427TIP3   OH246771   0.519   1.185  10.750  0.0807 -0.3072  0.1163
 8427TIP3    H146772   0.438   1.157  10.792  0.4040  1.6055  2.1523
 8427TIP3    H246773   0.496   1.265  10.704  0.4834 -0.6115 -0.6331
 8428TIP3   OH246774   1.833   4.130   4.052 -0.1436  0.1279 -0.6789
 8428TIP3    H146775   1.784   4.051   4.074 -1.9267  0.6858 -2.3591
 8428TIP3    H246776   1.828   4.184   4.131 -1.5894 -0.1722 -0.5399
 8429TIP3   OH246777   3.800   1.440  11.962  0.0888  0.5280 -0.0428
 8429TIP3    H146778   3.851   1.440  11.881 -0.5734  0.3706 -0.4700
 8429TIP3    H246779   3.863   1.460  12.031  0.1089  4.0583 -0.9215
 8430TIP3   OH246780   3.897   2.426   2.841 -0.2254 -0.7445  0.4308
 8430TIP3    H146781   3.930   2.515   2.852 -1.5909 -0.2045  0.3356
 8430TIP3    H246782   3.849   2.427   2.759  2.2185 -2.3911 -1.1582
 8431TIP3   OH246783   0.451   6.559  15.621  0.4523  0.4693 -0.5921
 8431TIP3    H146784   0.506   6.577  15.545  0.6000  0.7823 -0.4133
 8431TIP3    H246785   0.494   6.486  15.665  1.3014  1.3640  0.1053
 8432TIP3   OH246786   0.934   4.346  14.590 -0.2667 -0.3013  0.6534
 8432TIP3    H146787   0.978   4.311  14.668 -2.7413  0.5524  2.5711
 8432TIP3    H246788   0.980   4.427  14.570  1.5386 -1.4096  0.0179
 8433TIP3   OH246789   2.893   3.833  17.141 -0.1731 -0.2522 -0.2713
 8433TIP3    H146790   2.874   3.741  17.160  0.4158 -0.2516  0.3537
 8433TIP3    H246791   2.989   3.838  17.143 -0.1087 -0.0270 -2.2050
 8434TIP3   OH246792   5.043   3.329   0.401 -0.0627  1.0088  0.3902
 8434TIP3    H146793   5.021   3.265   0.333  2.5603  1.4394 -0.9805
 8434TIP3    H246794   4.959   3.348   0.443 -1.0361 -3.1979  0.8317
 8435TIP3   OH246795   2.317   6.240  11.625 -0.1699  0.2566  0.1519
 8435TIP3    H146796   2.320   6.147  11.603  0.5007  0.0404  1.1262
 8435TIP3    H246797   2.232   6.269  11.592 -0.3734 -0.6886 -0.1904
 8436TIP3   OH246798   0.472   4.953  14.496 -0.2355  0.1099  0.5544
 8436TIP3    H146799   0.383   4.988  14.503 -0.2595  0.1993 -0.1824
 8436TIP3    H246800   0.520   5.018  14.444 -0.1065 -0.6195 -0.2519
 8437TIP3   OH246801   1.194   4.273   4.423 -0.4482  0.0514 -0.2356
 8437TIP3    H146802   1.142   4.210   4.373  0.6821 -1.9258  0.9872
 8437TIP3    H246803   1.265   4.297   4.364 -1.6882  1.4399 -1.2662
 8438TIP3   OH246804   4.249   5.611  12.024 -0.2857  1.1469 -0.1854
 8438TIP3    H146805   4.190   5.652  11.961  0.2514  1.5304 -0.4549
 8438TIP3    H246806   4.203   5.615  12.107 -1.2107  0.1975 -0.6340
 8439TIP3   OH246807   4.703   1.054   6.630 -0.0993  0.2053 -0.7611
 8439TIP3    H146808   4.644   1.128   6.619  1.1117  1.5974  1.3074
 8439TIP3    H246809   4.652   0.989   6.676 -0.1645  1.2929  0.7829
 8440TIP3   OH246810   6.164   2.248  11.281  0.0516  0.1026  0.1826
 8440TIP3    H146811   6.253   2.258  11.315 -0.7839  5.0128  1.8221
 8440TIP3    H246812   6.155   2.319  11.216 -2.7444  0.0436  0.3706
 8441TIP3   OH246813   2.185   2.329   6.124 -0.1260  1.0416  0.1626
 8441TIP3    H146814   2.175   2.234   6.129 -0.0951  0.6862 -3.5536
 8441TIP3    H246815   2.271   2.346   6.162  0.2097 -0.5269  0.1751
 8442TIP3   OH246816   0.810   1.639   2.814  0.1626  0.0508 -0.1729
 8442TIP3    H146817   0.812   1.546   2.835  1.0642  0.2270  0.6055
 8442TIP3    H246818   0.813   1.643   2.719 -0.1623 -0.7159 -0.2196
 8443TIP3   OH246819   1.089   3.310   1.341  0.3026  0.7074 -1.1231
 8443TIP3    H146820   1.091   3.355   1.257 -0.7794  1.0580 -0.9728
 8443TIP3    H246821   1.164   3.250   1.338  1.1879  1.8104 -1.7070
 8444TIP3   OH246822   1.914   4.856  13.747  0.2085 -0.0460  0.3676
 8444TIP3    H146823   1.996   4.828  13.706  0.7729  1.4920  0.3736
 8444TIP3    H246824   1.871   4.775  13.774  0.9816 -0.9647 -1.0490
 8445TIP3   OH246825   5.962   4.162   1.953  0.6276 -0.6178 -0.0550
 8445TIP3    H146826   5.891   4.160   2.018  0.9134 -0.4248  0.2643
 8445TIP3    H246827   6.042   4.158   2.005  0.9594  2.4144 -0.1531
 8446TIP3   OH246828   5.690   2.274  14.895 -0.0536  0.6700  0.2988
 8446TIP3    H146829   5.762   2.321  14.852 -1.7125  2.2943 -0.8563
 8446TIP3    H246830   5.626   2.342  14.914 -2.1266 -0.9838 -0.4340
 8447TIP3   OH246831   5.905   1.523   1.824  1.0262 -0.4559 -0.0274
 8447TIP3    H146832   5.985   1.471   1.827  0.1052 -1.8653  1.4359
 8447TIP3    H246833   5.848   1.484   1.890 -1.9191 -1.1715 -2.7253
 8448TIP3   OH246834   4.426   3.898   1.456  0.7414  0.6772 -0.0216
 8448TIP3    H146835   4.496   3.949   1.415  1.1085  0.4611  0.3309
 8448TIP3    H246836   4.463   3.810   1.466  0.6596  0.7297  0.7749
 8449TIP3   OH246837   6.357   2.251   5.184 -0.0675 -0.1226  0.7602
 8449TIP3    H146838   6.404   2.175   5.219 -0.1984 -0.2871  0.5819
 8449TIP3    H246839   6.402   2.326   5.222  0.2604 -0.2823  0.6961
 8450TIP3   OH246840   4.251   5.872  11.235  0.2745 -0.3214  0.3186
 8450TIP3    H146841   4.206   5.955  11.221  0.4336 -0.0643  1.2566
 8450TIP3    H246842   4.186   5.805  11.215  0.4800 -0.0178 -1.5971
 8451TIP3   OH246843   3.325   1.700  11.748  0.2626 -0.1542  0.0842
 8451TIP3    H146844   3.366   1.721  11.664  0.7787 -0.4797  0.2519
 8451TIP3    H246845   3.307   1.606  11.743  1.2445 -0.3903  0.7331
 8452TIP3   OH246846   2.272   5.622   4.843 -0.8663  0.4085 -0.2400
 8452TIP3    H146847   2.236   5.620   4.931 -2.9331 -1.4956 -1.0336
 8452TIP3    H246848   2.338   5.552   4.843  0.7716  1.8634  0.3334
 8453TIP3   OH246849   2.825   5.443   2.671  0.2844 -0.2299 -0.5613
 8453TIP3    H146850   2.881   5.520   2.676 -0.1911  0.1820 -1.3065
 8453TIP3    H246851   2.882   5.374   2.638  0.5049  0.0343 -0.7452
 8454TIP3   OH246852   5.316   4.062   4.298 -0.5286  0.4850 -0.3362
 8454TIP3    H146853   5.308   4.122   4.224  0.6415 -0.6761 -1.4482
 8454TIP3    H246854   5.336   3.977   4.259  2.6962  0.2883  1.3289
 8455TIP3   OH246855   3.879   5.439   4.487  0.4400  0.2239  0.2841
 8455TIP3    H146856   3.863   5.490   4.566 -1.7774  0.4418 -0.2501
 8455TIP3    H246857   3.957   5.479   4.448 -0.4429  2.3411  0.5818
 8456TIP3   OH246858   1.358   2.832   1.636 -0.0044  0.5363  0.1259
 8456TIP3    H146859   1.402   2.916   1.621  0.8763  0.2494  0.9672
 8456TIP3    H246860   1.296   2.824   1.564 -1.3395  2.7037  0.9047
 8457TIP3   OH246861   5.515   5.870   1.141 -0.3093 -0.1686 -0.5301
 8457TIP3    H146862   5.536   5.861   1.234 -0.5048 -1.3544 -0.5847
 8457TIP3    H246863   5.565   5.946   1.113  1.4479 -1.0600  0.0648
 8458TIP3   OH246864   0.412   4.325  13.227 -0.6820  0.3751 -0.5787
 8458TIP3    H146865   0.350   4.253  13.225 -0.1567 -0.1835  1.3229
 8458TIP3    H246866   0.358   4.404  13.218 -1.7491 -0.0854  1.2742
 8459TIP3   OH246867   3.331   4.845   3.433 -0.1725 -0.2890 -0.2614
 8459TIP3    H146868   3.261   4.780   3.435 -0.3599 -0.0932  2.2515
 8459TIP3    H246869   3.301   4.915   3.491  0.2232  1.9257 -2.5108
 8460TIP3   OH246870   0.893   3.383  15.350 -0.3631  0.1689  0.3285
 8460TIP3    H146871   0.853   3.470  15.338 -0.7014  0.0286  0.4184
 8460TIP3    H246872   0.986   3.401  15.359  0.0513  0.2554 -2.9680
 8461TIP3   OH246873   4.962   4.536  16.453  0.3387 -0.4166  0.2853
 8461TIP3    H146874   4.947   4.447  16.422  0.3888 -0.5954  0.7717
 8461TIP3    H246875   4.895   4.589  16.409  0.5614 -0.6274 -0.3070
 8462TIP3   OH246876   1.765   2.110   3.727 -0.4696 -0.3876 -0.4952
 8462TIP3    H146877   1.800   2.159   3.653  0.6594  0.2221  0.3926
 8462TIP3    H246878   1.671   2.107   3.713 -0.2728 -0.2836 -1.9346
 8463TIP3   OH246879   1.814   1.420  16.480  0.3901  0.2642  1.1168
 8463TIP3    H146880   1.839   1.410  16.388  1.7175  0.7666  1.3896
 8463TIP3    H246881   1.733   1.470  16.477 -0.4322 -1.0603  0.1784
 8464TIP3   OH246882   2.262   5.543   4.479 -0.0027  0.1103 -0.0962
 8464TIP3    H146883   2.243   5.480   4.548  0.3644 -0.6602 -0.6848
 8464TIP3    H246884   2.347   5.581   4.504 -0.8727  1.4160  0.9909
 8465TIP3   OH246885   6.102   4.910  11.143 -0.2601 -0.7675 -0.2431
 8465TIP3    H146886   6.044   4.842  11.108 -1.7643  0.9341 -1.2716
 8465TIP3    H246887   6.104   4.977  11.075 -0.3444  1.0542  1.4577
 8466TIP3   OH246888   1.714   6.251  16.644 -0.4972  0.1183  0.0261
 8466TIP3    H146889   1.722   6.239  16.739 -1.8719  0.9656  0.2648
 8466TIP3    H246890   1.769   6.181  16.607  1.0238  0.5018  1.4303
 8467TIP3   OH246891   1.526   1.773  15.132  0.5637 -0.6822 -0.0837
 8467TIP3    H146892   1.434   1.793  15.120  0.5528 -0.7481 -0.1172
 8467TIP3    H246893   1.529   1.719  15.211  0.4418 -1.5639 -0.6563
 8468TIP3   OH246894   4.097   1.074   0.099  0.1501 -0.5553 -0.2503
 8468TIP3    H146895   4.127   1.008   0.036  1.5143 -0.2727  0.0602
 8468TIP3    H246896   4.046   1.024   0.164  1.3947 -1.3838  0.1364
 8469TIP3   OH246897   6.715   1.800   4.872 -0.1154  0.3969 -0.8154
 8469TIP3    H146898   6.795   1.818   4.822  1.3970  1.7557  1.8603
 8469TIP3    H246899   6.713   1.704   4.881  0.1048  0.1975 -2.4927
 8470TIP3   OH246900   3.140   6.368   1.393  0.7082  0.3799  0.6557
 8470TIP3    H146901   3.217   6.324   1.356  0.1121  0.9760 -1.3764
 8470TIP3    H246902   3.089   6.298   1.432  1.0716 -0.3801 -0.2002
 8471TIP3   OH246903   6.623   0.017   2.521 -0.1192 -0.2416  0.5497
 8471TIP3    H146904   6.675   0.083   2.476  0.3794 -0.6658  0.4905
 8471TIP3    H246905   6.583  -0.035   2.450 -1.8934  1.0130  0.5545
 8472TIP3   OH246906   3.012   4.922   2.142  0.5748 -0.1724 -0.0653
 8472TIP3    H146907   2.979   4.873   2.217  0.4703  1.3594  0.9425
 8472TIP3    H246908   3.083   4.869   2.107  0.6258 -0.9156  1.1172
 8473TIP3   OH246909   5.481   4.906   2.376  0.0476  0.1737 -0.2137
 8473TIP3    H146910   5.435   4.822   2.383  1.1461 -0.7072 -2.3522
 8473TIP3    H246911   5.573   4.883   2.383  0.3650  1.2040 -0.7847
 8474TIP3   OH246912   4.217   3.586   3.254  0.5426 -0.3404  0.1969
 8474TIP3    H146913   4.307   3.597   3.284  0.9738 -0.1585 -1.0933
 8474TIP3    H246914   4.208   3.650   3.183 -1.0668  0.6676  1.2414
 8475TIP3   OH246915   0.808   0.122  10.875 -0.4084 -0.2807 -0.0286
 8475TIP3    H146916   0.772   0.153  10.957  0.1844 -1.2203  0.6104
 8475TIP3    H246917   0.748   0.052  10.847  0.4673 -1.3436  0.6620
 8476TIP3   OH246918   0.423   4.047  14.309  0.0155 -0.4111  0.6714
 8476TIP3    H146919   0.464   4.126  14.343  0.1926 -0.9698  1.8047
 8476TIP3    H246920   0.352   4.079  14.253 -0.3726  0.5575  1.6814
 8477TIP3   OH246921   2.747   2.121   1.351 -0.5854  0.6555  0.8480
 8477TIP3    H146922   2.735   2.182   1.278  0.9378 -2.1776 -2.0401
 8477TIP3    H246923   2.661   2.080   1.362 -1.1084  1.8702  1.4705
 8478TIP3   OH246924   0.869   3.452   0.493  0.0252 -0.0158 -0.1186
 8478TIP3    H146925   0.911   3.521   0.543 -0.2555  0.4179 -0.4772
 8478TIP3    H246926   0.859   3.380   0.555 -0.4794  0.5723  0.5008
 8479TIP3   OH246927   1.517   1.453   4.798 -0.2344 -0.0949  0.1485
 8479TIP3    H146928   1.462   1.395   4.746 -0.8647 -0.0778  0.7832
 8479TIP3    H246929   1.561   1.396   4.861 -1.4635  0.1961  1.2973
 8480TIP3   OH246930   1.023   2.556  15.392  0.0767  0.1153 -0.2186
 8480TIP3    H146931   1.005   2.511  15.310  0.0823 -1.7273  0.7322
 8480TIP3    H246932   0.995   2.494  15.460 -0.9764  2.0267  1.1831
 8481TIP3   OH246933   2.656   5.953  13.549 -0.0645 -0.5182  0.4010
 8481TIP3    H146934   2.584   5.890  13.553  1.1140 -1.9246  0.3104
 8481TIP3    H246935   2.616   6.036  13.573 -1.9422 -1.0386 -0.6696
 8482TIP3   OH246936   0.911   5.903  11.076  0.0087  0.2928 -0.0472
 8482TIP3    H146937   0.926   5.887  10.982  0.6671  1.0231 -0.0752
 8482TIP3    H246938   0.895   5.997  11.082 -0.0645  0.2409  0.5690
 8483TIP3   OH246939   4.779   4.200  15.746  0.3151 -0.1570  0.6840
 8483TIP3    H146940   4.869   4.170  15.736  0.2988 -0.8568  2.3166
 8483TIP3    H246941   4.727   4.120  15.751 -0.3098  0.2290  0.4738
 8484TIP3   OH246942   5.679   3.751   5.793 -0.6241  0.1492 -0.6195
 8484TIP3    H146943   5.656   3.681   5.731  0.5184  0.6165 -1.6085
 8484TIP3    H246944   5.736   3.708   5.857  0.0158  0.1400 -1.1826
 8485TIP3   OH246945   6.298   5.758  12.427 -0.5571 -0.4373  0.3842
 8485TIP3    H146946   6.355   5.763  12.350  0.8051  1.6295  1.4585
 8485TIP3    H246947   6.342   5.697  12.486 -0.7827 -0.7862  0.1974
 8486TIP3   OH246948   1.271   2.033  11.903  0.1762 -0.3463  0.2095
 8486TIP3    H146949   1.295   1.960  11.845 -0.5132 -0.6151  0.2591
 8486TIP3    H246950   1.320   2.108  11.867  0.6934 -0.7705  0.0081
 8487TIP3   OH246951   2.469   5.719   4.295 -0.3877  0.3764  0.2495
 8487TIP3    H146952   2.554   5.749   4.263 -0.7486  0.5936 -0.5331
 8487TIP3    H246953   2.467   5.745   4.387 -0.2192  1.7074 -0.1051
 8488TIP3   OH246954   6.481   5.655   0.887 -0.6976 -0.0282 -0.0961
 8488TIP3    H146955   6.444   5.650   0.975  0.7168  0.7032  0.5738
 8488TIP3    H246956   6.548   5.586   0.885 -1.1714 -0.4742 -0.8295
 8489TIP3   OH246957   0.241   3.536   0.118  0.2484 -0.2773 -0.2540
 8489TIP3    H146958   0.290   3.571   0.193 -1.4772  0.0194  0.8041
 8489TIP3    H246959   0.195   3.612   0.083  1.1336 -0.3979 -1.7247
 8490TIP3   OH246960   0.766   1.219   5.691 -0.3299  0.3043 -0.8639
 8490TIP3    H146961   0.741   1.290   5.632 -0.0184  0.1202 -1.2153
 8490TIP3    H246962   0.832   1.258   5.748 -1.0380  0.6512 -0.2479
 8491TIP3   OH246963   5.474   4.859   2.963 -0.0069 -0.4916  0.2862
 8491TIP3    H146964   5.523   4.901   3.034  1.0102 -0.8923 -0.1654
 8491TIP3    H246965   5.448   4.932   2.906 -0.5519 -0.2028  0.8855
 8492TIP3   OH246966   6.467   6.095   4.474  0.0010 -0.0615 -0.6660
 8492TIP3    H146967   6.463   6.017   4.418 -0.2755  0.2454 -1.0751
 8492TIP3    H246968   6.444   6.168   4.417 -0.7058  0.2088 -0.0548
 8493TIP3   OH246969   1.952   6.319  13.436 -0.5706  0.9569  0.0707
 8493TIP3    H146970   1.962   6.351  13.346 -2.0814  0.9216 -0.1214
 8493TIP3    H246971   1.935   6.226  13.428  1.2022  0.5390  0.5229
 8494TIP3   OH246972   0.883   0.460  13.394 -0.6320  0.9154 -0.1101
 8494TIP3    H146973   0.916   0.376  13.426 -0.8234  1.4907  1.7116
 8494TIP3    H246974   0.799   0.439  13.353  0.8752 -0.2461 -2.8738
 8495TIP3   OH246975   3.838   0.193  11.403 -0.7982 -0.6628 -0.0923
 8495TIP3    H146976   3.895   0.142  11.346 -0.5996  0.4408 -0.9092
 8495TIP3    H246977   3.888   0.204  11.484 -0.2942 -0.5979 -0.4141
 8496TIP3   OH246978   4.692   4.372   4.084 -0.4341 -0.3785 -0.3851
 8496TIP3    H146979   4.660   4.460   4.061 -0.1251  0.1372  1.0982
 8496TIP3    H246980   4.738   4.343   4.005 -0.6810  0.7153 -0.9604
 8497TIP3   OH246981   5.131   3.830   4.866 -0.6740  0.3210 -0.3008
 8497TIP3    H146982   5.185   3.897   4.909 -1.1197  1.1733 -1.0347
 8497TIP3    H246983   5.190   3.787   4.805 -0.3205 -0.1277  0.3549
 8498TIP3   OH246984   4.721   6.575  13.758 -0.1233 -0.1678  0.3615
 8498TIP3    H146985   4.810   6.538  13.761 -0.2246 -0.4603 -0.0730
 8498TIP3    H246986   4.682   6.548  13.840  0.1869 -0.0522  0.5506
 8499TIP3   OH246987   5.773   5.631   1.706 -0.1125  0.5742 -0.1269
 8499TIP3    H146988   5.841   5.620   1.772  2.8258  2.9704 -2.4555
 8499TIP3    H246989   5.715   5.698   1.743  1.1472  1.4499  0.3591
 8500TIP3   OH246990   3.658   4.117   1.001  0.1208  0.3938  0.4733
 8500TIP3    H146991   3.621   4.200   1.029  2.0118  0.2736  3.9244
 8500TIP3    H246992   3.733   4.141   0.946  0.2011  0.9556  0.8231
 8501TIP3   OH246993   2.563   0.952  15.454 -1.4944 -0.1632  0.4873
 8501TIP3    H146994   2.555   1.010  15.378  0.1690 -0.7719 -0.1889
 8501TIP3    H246995   2.635   0.990  15.505 -0.8644 -1.2250  0.4060
 8502TIP3   OH246996   0.570   0.103  17.173  0.2501  0.2754 -0.2373
 8502TIP3    H146997   0.482   0.127  17.144 -0.9536  0.3653  3.0702
 8502TIP3    H246998   0.566   0.009  17.188  0.0930  0.5579  1.6780
 8503TIP3   OH246999   1.648   1.951  14.441 -0.0372 -0.1195  0.4917
 8503TIP3    H147000   1.602   1.948  14.357 -2.1494 -0.2472  1.5883
 8503TIP3    H247001   1.730   1.997  14.422 -0.7889  0.5057 -1.4847
 8504TIP3   OH247002   2.308   6.661  14.934  0.1583  0.1289  0.2789
 8504TIP3    H147003   2.397   6.630  14.919  0.3377 -0.3273  2.1361
 8504TIP3    H247004   2.313   6.716  15.012 -1.3525 -0.8009  1.0857
 8505TIP3   OH247005   0.538   1.184  11.024 -0.0760  0.1853  0.3840
 8505TIP3    H147006   0.485   1.186  10.945  0.9431 -1.2283 -0.3779
 8505TIP3    H247007   0.624   1.216  10.996  0.0670  0.4579  1.1169
 8506TIP3   OH247008   0.352   3.845  11.975  0.0516  0.0200  0.0746
 8506TIP3    H147009   0.410   3.887  12.038 -1.9058  1.5184  0.9383
 8506TIP3    H247010   0.264   3.868  12.003 -0.9406 -0.5663 -2.3232
 8507TIP3   OH247011   4.824   1.408   5.612 -0.1253 -0.3220  0.1260
 8507TIP3    H147012   4.857   1.328   5.651  1.3388 -0.6646 -1.6688
 8507TIP3    H247013   4.855   1.478   5.670 -1.5403 -0.9868  1.7807
 8508TIP3   OH247014   5.102   1.622  15.739 -0.1595  0.6831 -0.6918
 8508TIP3    H147015   5.023   1.587  15.779  0.8887 -0.4778  0.4379
 8508TIP3    H247016   5.100   1.715  15.762  0.1563  0.1638  1.7753
 8509TIP3   OH247017   4.024   6.121  13.977 -0.3071  0.0182  0.7073
 8509TIP3    H147018   4.120   6.124  13.975 -0.2951 -0.0498 -1.1755
 8509TIP3    H247019   4.003   6.029  13.994 -0.0295 -0.0678  0.5900
 8510TIP3   OH247020   2.518   5.114  16.355 -0.4974  0.2884 -0.0509
 8510TIP3    H147021   2.434   5.077  16.382 -1.1547  3.1414  2.2853
 8510TIP3    H247022   2.505   5.209  16.355  1.9779  0.7797 -2.4392
 8511TIP3   OH247023   1.421   6.061   3.773  0.1565  0.0296  0.0506
 8511TIP3    H147024   1.380   5.992   3.825 -0.5387 -0.1474 -0.7059
 8511TIP3    H247025   1.444   6.129   3.836  0.2915 -0.6332  0.7183
 8512TIP3   OH247026   0.291   0.175  16.702 -0.4642 -1.0276  0.0302
 8512TIP3    H147027   0.254   0.165  16.789 -0.9721 -0.9764 -0.1749
 8512TIP3    H247028   0.371   0.225  16.715  0.8642 -3.1862  0.7857
 8513TIP3   OH247029   2.920   6.613  12.042  0.7892 -0.2886  0.9101
 8513TIP3    H147030   2.881   6.700  12.032  0.0388 -0.5543  1.4893
 8513TIP3    H247031   2.856   6.554  12.002  2.3164 -0.4015 -1.6273
 8514TIP3   OH247032   5.532   5.583   0.496 -0.1785 -0.0955 -0.8491
 8514TIP3    H147033   5.553   5.605   0.587 -1.3986 -0.3833 -0.4825
 8514TIP3    H247034   5.617   5.576   0.453  0.3994  0.5596  0.1435
 8515TIP3   OH247035   4.178   4.540  14.958  0.1954 -0.0720 -0.2613
 8515TIP3    H147036   4.101   4.557  14.903 -0.0443 -0.6648 -0.1173
 8515TIP3    H247037   4.251   4.578  14.909 -0.2392  0.8890 -0.1989
 8516TIP3   OH247038   3.751   1.132  17.089 -0.2330 -0.0634  0.0602
 8516TIP3    H147039   3.808   1.209  17.094 -0.1500 -0.0096 -1.4739
 8516TIP3    H247040   3.665   1.168  17.066  0.3131 -0.5762 -3.1022
 8517TIP3   OH247041   3.312   4.821  16.957 -0.4061 -0.3821  0.1282
 8517TIP3    H147042   3.247   4.751  16.950 -0.0021 -0.9081  1.3979
 8517TIP3    H247043   3.266   4.891  17.003 -0.7948  0.2059 -1.1004
 8518TIP3   OH247044   1.422   4.358   5.256 -0.0052 -0.0955 -0.1956
 8518TIP3    H147045   1.467   4.387   5.336  0.3742 -0.6440 -0.2082
 8518TIP3    H247046   1.340   4.407   5.257  0.7558  1.2249 -0.3895
 8519TIP3   OH247047   5.319   1.569   6.441  0.4536 -0.6901 -0.6634
 8519TIP3    H147048   5.267   1.497   6.405 -0.6997 -0.1828 -0.0627
 8519TIP3    H247049   5.344   1.539   6.529 -0.4647 -0.1681 -0.2122
 8520TIP3   OH247050   5.355   3.744  13.394 -0.3014  0.5833  0.4210
 8520TIP3    H147051   5.272   3.779  13.363 -0.6518  0.4790  1.2102
 8520TIP3    H247052   5.351   3.650  13.374 -0.1285  0.6801 -0.0647
 8521TIP3   OH247053   3.983   1.562   0.900  0.0222  0.5556 -0.1571
 8521TIP3    H147054   4.011   1.618   0.827 -0.7517  1.1809  0.0131
 8521TIP3    H247055   3.913   1.508   0.863  0.5726 -0.1201 -0.2415
 8522TIP3   OH247056   6.381   6.402   0.909 -0.4512 -0.6250 -0.0272
 8522TIP3    H147057   6.423   6.479   0.948  0.1002 -1.3429  0.8434
 8522TIP3    H247058   6.388   6.334   0.977 -0.9728 -1.4319 -0.7576
 8523TIP3   OH247059   1.475   0.875  15.495 -0.3700 -0.2018  0.2548
 8523TIP3    H147060   1.412   0.904  15.562 -0.5982  0.5488 -0.2729
 8523TIP3    H247061   1.429   0.887  15.412  0.3183 -0.0566 -0.1076
 8524TIP3   OH247062   4.632   5.705  13.043  0.5163 -0.4831 -0.4181
 8524TIP3    H147063   4.684   5.632  13.011 -2.3229 -2.6514 -0.3629
 8524TIP3    H247064   4.653   5.710  13.137  1.3802 -0.5703 -0.5932
 8525TIP3   OH247065   3.423   0.378   5.827  0.2809  0.4202 -0.6878
 8525TIP3    H147066   3.415   0.422   5.912  1.4233 -0.4105 -0.1399
 8525TIP3    H247067   3.369   0.300   5.835  2.3177 -0.9862  0.2081
 8526TIP3   OH247068   0.560   6.565  13.027 -0.2590  0.3717 -0.6788
 8526TIP3    H147069   0.584   6.483  13.070  0.2679  0.4686 -0.7846
 8526TIP3    H247070   0.492   6.540  12.964  0.3015 -0.0872 -1.1173
 8527TIP3   OH247071   3.232   3.878   1.762 -0.3985 -0.3033  0.3042
 8527TIP3    H147072   3.214   3.938   1.834 -0.9076  0.3231 -0.3292
 8527TIP3    H247073   3.305   3.918   1.715 -2.5490  1.4029 -1.8047
 8528TIP3   OH247074   1.066   0.394  10.779 -0.2875  0.9850 -0.1537
 8528TIP3    H147075   1.022   0.474  10.749  1.1826  1.3844 -1.3151
 8528TIP3    H247076   1.116   0.421  10.856  4.2038  2.5746 -3.2241
 8529TIP3   OH247077   5.232   0.253  17.181  0.0403 -0.5651  0.1204
 8529TIP3    H147078   5.269   0.165  17.190 -0.1182 -0.6256  0.1762
 8529TIP3    H247079   5.308   0.311  17.188  0.1020 -0.6810  0.4298
 8530TIP3   OH247080   4.485   1.206   4.070 -0.1608 -0.0436 -0.0164
 8530TIP3    H147081   4.414   1.147   4.042  0.5791 -0.8641 -0.1847
 8530TIP3    H247082   4.541   1.152   4.125 -0.2338  0.8939  1.0143
 8531TIP3   OH247083   1.945   4.103  13.875  0.2744 -0.8096  0.4251
 8531TIP3    H147084   1.920   4.128  13.786  0.7638 -0.8534  0.2715
 8531TIP3    H247085   1.952   4.008  13.872  0.8161 -0.7726  0.3654
 8532TIP3   OH247086   6.635   1.477  13.647  0.0642 -0.6404 -0.6108
 8532TIP3    H147087   6.684   1.552  13.613  0.6860  0.2211  1.9296
 8532TIP3    H247088   6.544   1.505  13.647 -0.0053 -0.8196 -1.8700
 8533TIP3   OH247089   6.368   3.365  13.920  0.6836  0.1886 -0.5615
 8533TIP3    H147090   6.425   3.290  13.905  1.0099  0.0409  1.2114
 8533TIP3    H247091   6.410   3.438  13.874 -0.2558 -0.8880 -3.3231
 8534TIP3   OH247092   1.227   5.348  14.849  0.2508 -0.1790  0.0230
 8534TIP3    H147093   1.257   5.434  14.881 -0.1603  0.0117 -0.1004
 8534TIP3    H247094   1.148   5.330  14.900  0.5486 -0.6601  0.3158
 8535TIP3   OH247095   1.761   0.847  17.185 -0.6823  0.3094  0.6996
 8535TIP3    H147096   1.826   0.835  17.254 -0.2151 -1.7292 -0.0359
 8535TIP3    H247097   1.779   0.934  17.149  0.7196  0.3384  1.4318
 8536TIP3   OH247098   4.429   2.082   2.271 -0.0669  0.4053  0.0901
 8536TIP3    H147099   4.473   2.110   2.352  2.0302  0.4950 -1.0095
 8536TIP3    H247100   4.438   1.986   2.271  2.7057  0.5382 -1.3816
 8537TIP3   OH247101   5.521   0.946   0.772  0.2383 -0.5455  0.1034
 8537TIP3    H147102   5.593   0.885   0.793 -0.6978 -1.9502 -0.6436
 8537TIP3    H247103   5.477   0.906   0.697 -1.8308 -0.1502  1.0490
 8538TIP3   OH247104   0.366   6.030  14.551 -0.3013  0.4520  0.0341
 8538TIP3    H147105   0.387   5.937  14.562 -1.0001  0.4187  1.2145
 8538TIP3    H247106   0.439   6.076  14.592 -0.4995  0.3948  0.4604
 8539TIP3   OH247107   4.245   1.590   0.691 -1.0279 -0.8673 -0.5813
 8539TIP3    H147108   4.245   1.640   0.772  0.4019  0.0685 -1.1262
 8539TIP3    H247109   4.313   1.524   0.703  1.2056  1.0003 -1.9487
 8540TIP3   OH247110   6.124   3.260  11.556  0.1569  0.6273  0.7718
 8540TIP3    H147111   6.132   3.310  11.474 -0.7778 -1.0396 -0.4013
 8540TIP3    H247112   6.063   3.312  11.609 -0.4421  0.9824 -0.2274
 8541TIP3   OH247113   5.878   5.781  16.243 -0.4079 -0.5503  0.0338
 8541TIP3    H147114   5.959   5.798  16.290 -0.6895 -0.0292  0.3402
 8541TIP3    H247115   5.840   5.704  16.287  0.5500 -1.6254 -0.9437
 8542TIP3   OH247116   6.294   4.535  14.305 -0.3126 -0.0738 -0.0442
 8542TIP3    H147117   6.321   4.624  14.330 -1.6450  0.3442 -0.0422
 8542TIP3    H247118   6.207   4.525  14.343  0.2255 -1.7757  0.8528
 8543TIP3   OH247119   4.726   3.125  14.724 -0.7224 -0.3833  0.4397
 8543TIP3    H147120   4.782   3.097  14.797  0.6379 -3.6372 -1.6249
 8543TIP3    H247121   4.655   3.062  14.723 -2.6584  1.6459  0.8612
 8544TIP3   OH247122   3.220   3.785  15.298  0.7240  0.3353  0.7457
 8544TIP3    H147123   3.170   3.711  15.263  3.3039 -1.0143 -0.3815
 8544TIP3    H247124   3.265   3.750  15.375  0.0768  1.4801  1.6800
 8545TIP3   OH247125   0.865   0.941  13.664 -0.1040 -0.4702  0.0340
 8545TIP3    H147126   0.860   0.849  13.639  0.3691 -0.4396 -0.1810
 8545TIP3    H247127   0.945   0.973  13.623 -0.0331 -0.0736  0.4717
 8546TIP3   OH247128   1.048   5.375   5.705  0.1677  0.0452  0.7308
 8546TIP3    H147129   0.978   5.410   5.761 -1.2293 -2.5421  0.7480
 8546TIP3    H247130   1.035   5.418   5.620 -1.5547 -0.4813  0.6977
 8547TIP3   OH247131   2.746   2.071  11.323 -0.1277  0.1360 -0.3288
 8547TIP3    H147132   2.831   2.080  11.367  0.8035 -2.6691 -1.3321
 8547TIP3    H247133   2.768   2.036  11.236 -2.3529 -3.4080  0.3576
 8548TIP3   OH247134   2.249   6.742  13.830  0.2790  0.2887  0.2283
 8548TIP3    H147135   2.220   6.712  13.916 -1.7463 -1.0295 -0.8565
 8548TIP3    H247136   2.345   6.739  13.835  0.2551  1.0766  2.6784
 8549TIP3   OH247137   6.782   2.759  13.164  0.0805  0.2685 -0.3356
 8549TIP3    H147138   6.749   2.734  13.078  1.0628  0.9876 -0.9442
 8549TIP3    H247139   6.819   2.678  13.200 -1.5902 -0.3720  0.0543
 8550TIP3   OH247140   5.686   6.379  13.604  0.1823  0.5026  0.1191
 8550TIP3    H147141   5.718   6.438  13.536 -0.8965  0.4602 -0.4471
 8550TIP3    H247142   5.728   6.295  13.584 -1.5911 -0.0346 -1.7313
 8551TIP3   OH247143   1.940   6.459   1.994 -0.1533  0.5527 -0.0009
 8551TIP3    H147144   2.002   6.531   2.006 -0.3228  0.7896 -0.5253
 8551TIP3    H247145   1.855   6.496   2.018 -0.1452  0.3304  0.3772
 8552TIP3   OH247146   3.426   5.135   2.523  0.0667 -0.2427  0.6303
 8552TIP3    H147147   3.464   5.203   2.466 -3.3062  1.3574  0.0528
 8552TIP3    H247148   3.375   5.080   2.463 -1.6571  0.0707  1.7524
 8553TIP3   OH247149   2.332   2.783  15.850  0.3888 -0.5797  0.2400
 8553TIP3    H147150   2.280   2.857  15.882  0.1224 -1.1110  1.0781
 8553TIP3    H247151   2.346   2.801  15.757 -1.8162 -0.7090 -0.1724
 8554TIP3   OH247152   0.850   5.153  11.358 -0.6065  0.1575 -0.3967
 8554TIP3    H147153   0.784   5.165  11.290 -1.9745  0.1625  0.8797
 8554TIP3    H247154   0.802   5.161  11.440  1.1745  1.2824  0.6212
 8555TIP3   OH247155   4.738   1.603   3.465  0.0204  0.5013  0.5847
 8555TIP3    H147156   4.819   1.647   3.443 -0.2816  0.7177 -0.1102
 8555TIP3    H247157   4.671   1.671   3.459 -0.7210 -0.3278 -2.1871
 8556TIP3   OH247158   3.799   4.762   5.998 -0.0739 -0.1030 -0.4595
 8556TIP3    H147159   3.769   4.775   6.087 -0.3641 -1.6387 -0.2959
 8556TIP3    H247160   3.858   4.687   6.004 -0.9161 -0.9030 -1.7049
 8557TIP3   OH247161   0.588   3.632  14.438  0.6770  0.2663  0.5510
 8557TIP3    H147162   0.500   3.667  14.446 -0.6678 -2.3675 -1.2438
 8557TIP3    H247163   0.623   3.673  14.359  0.2021 -0.2340  0.0673
 8558TIP3   OH247164   1.054   0.596   4.348  0.0245 -0.2547 -0.0468
 8558TIP3    H147165   0.984   0.653   4.316  1.6171  0.6742 -2.1792
 8558TIP3    H247166   1.120   0.597   4.278  1.6893 -1.9576  1.3610
 8559TIP3   OH247167   1.710   0.277   5.579  0.1487 -0.7891  0.0716
 8559TIP3    H147168   1.652   0.320   5.516 -0.1789  0.7409  1.3590
 8559TIP3    H247169   1.797   0.286   5.540 -0.3502 -2.9229 -1.7723
 8560TIP3   OH247170   1.798   1.159  14.908  0.1146  0.3900  0.1959
 8560TIP3    H147171   1.831   1.249  14.913  0.6365  0.1914  0.5031
 8560TIP3    H247172   1.785   1.133  14.999  2.7700 -0.8209  0.3439
 8561TIP3   OH247173   5.169   4.739  15.706 -0.2989 -0.1755 -0.2728
 8561TIP3    H147174   5.252   4.692  15.697 -0.5390 -0.5703 -0.4158
 8561TIP3    H247175   5.195   4.829  15.727  0.1542 -0.4207  0.2229
 8562TIP3   OH247176   2.920   5.945  15.422 -0.1341 -0.1855 -0.1816
 8562TIP3    H147177   3.007   5.939  15.463  0.6252 -0.0977 -1.7149
 8562TIP3    H247178   2.922   6.028  15.374 -2.0689  1.1562  1.9007
 8563TIP3   OH247179   1.119   3.079  12.177 -0.9430 -0.5143  0.5731
 8563TIP3    H147180   1.031   3.111  12.160 -1.3625 -1.1421  1.5240
 8563TIP3    H247181   1.173   3.122  12.110 -1.8591  0.3462  0.3622
 8564TIP3   OH247182   2.533   5.693  17.026  0.0586 -0.0521  0.0786
 8564TIP3    H147183   2.519   5.618  17.083  0.7345  1.2420  2.0419
 8564TIP3    H247184   2.478   5.762  17.062 -1.2192  0.2256 -2.2010
 8565TIP3   OH247185   4.227   4.002   5.639  0.1792 -0.5793 -0.5176
 8565TIP3    H147186   4.250   4.017   5.548  2.2848 -3.0128 -0.4832
 8565TIP3    H247187   4.168   3.927   5.637  1.3882 -1.5844  0.1669
 8566TIP3   OH247188   6.069   2.385  13.719  0.2839 -0.5920  0.2213
 8566TIP3    H147189   6.134   2.342  13.775 -1.7074 -2.9019  0.9318
 8566TIP3    H247190   5.990   2.333  13.730 -1.3819  1.3848 -1.5465
 8567TIP3   OH247191   0.831   0.636   4.036  0.4586  0.4838 -0.5500
 8567TIP3    H147192   0.887   0.571   4.079 -1.2069 -2.3356 -2.3674
 8567TIP3    H247193   0.773   0.667   4.106  2.0438  1.0204  0.6075
 8568TIP3   OH247194   2.063   3.147   3.544 -0.0753 -0.7083  0.7344
 8568TIP3    H147195   2.056   3.218   3.608  1.6243 -0.4847  0.6988
 8568TIP3    H247196   2.022   3.072   3.587 -0.4527 -0.1366  1.4044
 8569TIP3   OH247197   0.671   5.462  13.615  0.5172  0.4309 -0.0875
 8569TIP3    H147198   0.580   5.440  13.600  0.6202 -0.3388  0.3837
 8569TIP3    H247199   0.702   5.493  13.530  0.0945 -0.2991 -0.5200
 8570TIP3   OH247200   6.452   4.638   2.235 -0.2604  0.3912 -0.7309
 8570TIP3    H147201   6.538   4.679   2.228  0.5837 -1.1595 -0.0934
 8570TIP3    H247202   6.442   4.590   2.153 -0.6453  0.8002 -0.9222
 8571TIP3   OH247203   6.472   5.676  16.874 -0.3376 -0.9085 -0.1464
 8571TIP3    H147204   6.474   5.639  16.963  3.3519 -1.4354 -0.2879
 8571TIP3    H247205   6.563   5.670  16.844 -1.2338  0.3993 -3.5274
 8572TIP3   OH247206   6.533   4.310   1.639  0.0892 -0.6638 -0.3854
 8572TIP3    H147207   6.608   4.288   1.584 -0.2792 -0.2581 -1.0663
 8572TIP3    H247208   6.507   4.398   1.612 -1.2728 -1.1925 -0.9111
 8573TIP3   OH247209   1.717   4.368   3.185 -0.5111 -0.2785 -0.2817
 8573TIP3    H147210   1.692   4.305   3.252  1.7093  0.8120  1.7350
 8573TIP3    H247211   1.724   4.452   3.231 -0.1179  0.7777 -2.1413
 8574TIP3   OH247212   6.451   0.144   2.127 -0.1914 -0.2126 -0.0743
 8574TIP3    H147213   6.411   0.063   2.159 -0.8177  0.8844  2.0770
 8574TIP3    H247214   6.380   0.190   2.082 -0.2205 -0.2032 -0.0187
 8575TIP3   OH247215   4.061   2.498   4.555 -1.1117 -0.1979 -0.3701
 8575TIP3    H147216   4.079   2.583   4.595  0.3370 -0.3182 -0.7343
 8575TIP3    H247217   3.991   2.516   4.491 -1.1221  0.6235 -0.1422
 8576TIP3   OH247218   0.077   5.489   2.981 -0.0547 -0.3119 -0.1726
 8576TIP3    H147219   0.152   5.432   2.996 -0.1694 -0.7471 -1.1918
 8576TIP3    H247220   0.061   5.531   3.066  0.6698 -1.0141  0.3196
 8577TIP3   OH247221   4.657   1.663   6.655  0.9394 -0.2489  0.1673
 8577TIP3    H147222   4.683   1.587   6.706 -0.6911 -0.4857  0.6928
 8577TIP3    H247223   4.650   1.631   6.565  1.5311 -0.3872  0.1650
 8578TIP3   OH247224   3.500   0.200   0.455  0.2922 -0.3021  0.6318
 8578TIP3    H147225   3.516   0.262   0.384 -0.1725 -1.1562 -0.2530
 8578TIP3    H247226   3.487   0.254   0.533 -2.6037  0.8885 -0.5449
 8579TIP3   OH247227   0.773   6.777   3.267  0.1793 -0.4088  0.0036
 8579TIP3    H147228   0.711   6.846   3.290  0.8661 -0.0071  0.7193
 8579TIP3    H247229   0.841   6.783   3.335  0.4175 -1.5767 -0.1125
 8580TIP3   OH247230   2.181   1.049  10.924  0.8145  0.1902  0.2472
 8580TIP3    H147231   2.094   1.010  10.927  0.1694  1.5787  0.2819
 8580TIP3    H247232   2.225   1.004  10.852  0.4193 -1.2026  0.8431
 8581TIP3   OH247233   4.294   0.691   3.072 -0.1701  0.3564 -0.0892
 8581TIP3    H147234   4.293   0.771   3.019 -0.3161 -0.1576 -0.8833
 8581TIP3    H247235   4.384   0.684   3.103  0.0520  0.3946 -0.7058
 8582TIP3   OH247236   4.121   2.212   0.960  0.2066  0.1012  0.2185
 8582TIP3    H147237   4.056   2.187   0.895  0.6032 -0.4978  0.0423
 8582TIP3    H247238   4.075   2.273   1.018 -0.1955  0.5189 -0.5253
 8583TIP3   OH247239   5.880   3.536   5.210  0.7332  0.3601  0.3723
 8583TIP3    H147240   5.899   3.621   5.171  0.1505  0.3096 -0.0307
 8583TIP3    H247241   5.831   3.489   5.143  1.8755 -0.6596  0.2169
 8584TIP3   OH247242   3.285   2.955  11.438 -0.1742 -0.2972  0.0882
 8584TIP3    H147243   3.308   3.029  11.381 -0.7976 -0.4696 -0.3901
 8584TIP3    H247244   3.254   2.887  11.378 -0.9757 -0.4269  0.6356
 8585TIP3   OH247245   4.779   2.563   3.947  0.1426 -0.0584 -0.3975
 8585TIP3    H147246   4.834   2.607   4.013 -0.5259 -1.1495  0.9408
 8585TIP3    H247247   4.691   2.600   3.961  0.3502  1.2031 -2.0942
 8586TIP3   OH247248   4.768   3.110  12.786 -0.3352 -0.2208  0.3166
 8586TIP3    H147249   4.676   3.137  12.794 -0.1270  0.4831  0.4585
 8586TIP3    H247250   4.817   3.189  12.807  0.3047 -0.0101 -1.7805
 8587TIP3   OH247251   2.819   2.300  15.043 -0.2373  0.1365  0.4062
 8587TIP3    H147252   2.865   2.329  14.964  0.4332  2.0356  1.4393
 8587TIP3    H247253   2.761   2.230  15.012  0.8794 -0.0110 -1.5409
 8588TIP3   OH247254   0.542   4.685   5.540 -0.2039 -0.5812  0.4629
 8588TIP3    H147255   0.484   4.609   5.533 -1.0971 -0.0910  2.0432
 8588TIP3    H247256   0.541   4.724   5.453 -2.6470 -0.3432  0.5437
 8589TIP3   OH247257   5.194   3.066   6.173 -0.2401 -0.4083  0.0815
 8589TIP3    H147258   5.138   3.043   6.247 -1.0499  0.7169 -0.1603
 8589TIP3    H247259   5.184   2.993   6.112 -1.7799 -0.0565 -0.1315
 8590TIP3   OH247260   0.025   5.459   5.927 -0.1793 -0.2949 -0.2224
 8590TIP3    H147261  -0.001   5.503   6.008  0.3196 -2.6400  1.3464
 8590TIP3    H247262   0.091   5.394   5.956 -0.4845 -1.6636 -2.3921
 8591TIP3   OH247263   0.586   3.964   2.969  0.0098  0.0456 -0.0988
 8591TIP3    H147264   0.681   3.956   2.983  0.0421  2.2786  1.5270
 8591TIP3    H247265   0.548   3.958   3.056 -1.3643 -0.7215 -0.7218
 8592TIP3   OH247266   5.235   3.704  11.482  0.1359 -0.2839 -0.5005
 8592TIP3    H147267   5.262   3.788  11.520 -0.4011  0.4374 -1.6607
 8592TIP3    H247268   5.317   3.664  11.453  0.4074 -0.2344  0.1645
 8593TIP3   OH247269   0.948   1.563  15.735 -0.2910 -0.5092  0.3935
 8593TIP3    H147270   0.981   1.476  15.758 -1.7324 -0.9581  0.8921
 8593TIP3    H247271   1.027   1.615  15.718  0.6753 -1.4424  1.7717
 8594TIP3   OH247272   0.095   0.009   1.261 -0.0914  0.9917 -0.3565
 8594TIP3    H147273   0.111  -0.001   1.355 -0.9314  1.4079 -0.1676
 8594TIP3    H247274   0.154  -0.055   1.221 -2.0116 -1.5964  0.6141
 8595TIP3   OH247275   3.235   0.580  14.828 -0.0653 -0.5765 -0.3003
 8595TIP3    H147276   3.237   0.515  14.759  0.4609 -0.0617 -0.7807
 8595TIP3    H247277   3.266   0.534  14.906 -0.7295 -1.1755 -0.3799
 8596TIP3   OH247278   1.904   1.038   4.237  0.2443  0.5593 -0.1344
 8596TIP3    H147279   1.875   0.988   4.314  1.5340  1.4335  0.9686
 8596TIP3    H247280   1.826   1.088   4.210  0.0582  1.0997  1.3155
 8597TIP3   OH247281   3.621   0.063  13.477  0.8601  0.3444  0.0838
 8597TIP3    H147282   3.563   0.065  13.553  1.7951 -1.5318  0.9146
 8597TIP3    H247283   3.603  -0.020  13.435  1.2583  0.8118 -1.0361
 8598TIP3   OH247284   6.309   1.296  13.853 -0.1438  1.1976  0.5946
 8598TIP3    H147285   6.376   1.352  13.814 -0.0417 -0.0508 -1.1557
 8598TIP3    H247286   6.347   1.208  13.849 -2.0427  0.3619 -0.9936
 8599TIP3   OH247287   6.153   3.269   5.827  0.1395  0.1177 -0.0994
 8599TIP3    H147288   6.234   3.223   5.807  0.0219  0.0964 -0.5403
 8599TIP3    H247289   6.105   3.209   5.884  0.9073  0.5941  1.0862
 8600TIP3   OH247290   5.016   0.705  10.791 -0.8567 -0.2060  0.8075
 8600TIP3    H147291   5.069   0.645  10.738 -2.0160 -0.3825 -0.2023
 8600TIP3    H247292   5.048   0.792  10.768 -1.6226 -0.2600 -0.5266
 8601TIP3   OH247293   1.834   6.594  12.221  0.4116  0.3389 -0.5680
 8601TIP3    H147294   1.878   6.591  12.307  1.3687  2.0523 -0.9487
 8601TIP3    H247295   1.779   6.673  12.225  0.3961  0.3845 -1.4829
 8602TIP3   OH247296   4.217   6.214   4.068 -0.4021 -0.0696 -0.9931
 8602TIP3    H147297   4.142   6.259   4.030 -0.7759 -0.2885 -0.5241
 8602TIP3    H247298   4.290   6.238   4.011 -0.7693  0.3771 -1.2892
 8603TIP3   OH247299   6.795   5.423   3.263  0.2850 -0.0308 -0.4467
 8603TIP3    H147300   6.789   5.519   3.260 -1.1485 -0.0336  1.2717
 8603TIP3    H247301   6.884   5.406   3.293  0.4857  0.7637 -0.5554
 8604TIP3   OH247302   4.982   1.628  13.157  0.2028  0.0025  0.1975
 8604TIP3    H147303   5.029   1.664  13.082  1.7050 -1.3539  0.4489
 8604TIP3    H247304   4.981   1.699  13.221 -1.7997  1.4704 -1.3080
 8605TIP3   OH247305   2.297   5.046   3.872  0.4254 -0.1424 -0.2612
 8605TIP3    H147306   2.217   5.078   3.830  0.2576  1.1798  0.9917
 8605TIP3    H247307   2.368   5.089   3.824  0.4115 -1.2915 -1.3525
 8606TIP3   OH247308   1.117   4.037   5.131 -0.4930 -0.6106  0.0583
 8606TIP3    H147309   1.088   4.053   5.042 -0.9528 -0.7237  0.1856
 8606TIP3    H247310   1.212   4.051   5.129  0.0248 -3.5631 -1.1548
 8607TIP3   OH247311   2.999   6.251   3.535 -0.0167 -0.1073 -0.0402
 8607TIP3    H147312   2.914   6.271   3.576 -0.7830  0.2197 -1.6982
 8607TIP3    H247313   2.995   6.157   3.516 -0.1854 -0.0136 -0.4804
 8608TIP3   OH247314   3.526   4.776   3.985 -1.1797  0.1899  0.0211
 8608TIP3    H147315   3.618   4.802   3.981 -0.3811 -2.4122 -0.4075
 8608TIP3    H247316   3.479   4.844   3.936  0.6654  0.8789 -0.8680
 8609TIP3   OH247317   0.013   4.690   1.536  0.0591 -0.7089  0.0288
 8609TIP3    H147318  -0.022   4.712   1.449 -0.3821 -0.4335  0.2700
 8609TIP3    H247319  -0.062   4.698   1.594  0.5701  0.0729  0.5927
 8610TIP3   OH247320   5.184   5.237  11.453  0.6055  0.4580 -0.1469
 8610TIP3    H147321   5.163   5.251  11.361 -1.5711 -0.3087  0.1833
 8610TIP3    H247322   5.280   5.241  11.456  0.9194 -1.6935 -2.8460
 8611TIP3   OH247323   6.489   0.690   4.525  0.2644  0.1016 -0.3105
 8611TIP3    H147324   6.422   0.714   4.588 -0.7929 -3.1124  0.0204
 8611TIP3    H247325   6.452   0.714   4.440  0.4294  1.8129  0.0749
 8612TIP3   OH247326   2.187   2.993  13.061  0.3320  0.1972  0.8187
 8612TIP3    H147327   2.173   2.907  13.100  1.1186  0.1387  0.9813
 8612TIP3    H247328   2.229   2.975  12.977 -1.4828  0.3147 -0.1735
 8613TIP3   OH247329   3.338   1.482  15.090 -0.2882  0.2266 -0.6941
 8613TIP3    H147330   3.341   1.394  15.128  2.5442  1.1219  1.5485
 8613TIP3    H247331   3.403   1.480  15.021  2.5915  1.3577  1.7652
 8614TIP3   OH247332   3.881   6.463  12.790 -0.5437  0.7900  0.4438
 8614TIP3    H147333   3.884   6.515  12.871 -0.3087  1.8932 -0.2575
 8614TIP3    H247334   3.820   6.510  12.734 -0.3008  0.3218 -0.2216
 8615TIP3   OH247335   1.379   4.616  15.714  0.1650 -0.1807  0.1228
 8615TIP3    H147336   1.314   4.653  15.774  0.2936 -0.8549  0.7039
 8615TIP3    H247337   1.462   4.627  15.760  0.3390 -0.1835 -0.1899
 8616TIP3   OH247338   4.539   0.919  12.643 -0.0439 -0.3349  1.2065
 8616TIP3    H147339   4.469   0.978  12.616  0.2967 -0.9222 -1.2150
 8616TIP3    H247340   4.620   0.967  12.623  0.2503 -0.7057  1.4767
 8617TIP3   OH247341   2.726   3.868  13.516  0.0238  0.0826 -0.6062
 8617TIP3    H147342   2.691   3.878  13.605  1.5888  0.2874  0.0343
 8617TIP3    H247343   2.732   3.774  13.503  2.1672 -0.0234  0.5803
 8618TIP3   OH247344   3.509   0.624  17.293  0.0642 -0.4502 -0.0644
 8618TIP3    H147345   3.596   0.657  17.270 -0.3168 -0.1895 -1.2134
 8618TIP3    H247346   3.458   0.635  17.213 -0.9546 -0.8558  0.5159
 8619TIP3   OH247347   1.491   1.342   2.488  0.6482 -0.3086 -0.8454
 8619TIP3    H147348   1.440   1.271   2.451  1.9116 -1.2409 -0.8534
 8619TIP3    H247349   1.482   1.331   2.583 -0.5078  0.5474 -0.8342
 8620TIP3   OH247350   0.204   4.261   4.240 -0.0348  0.5055 -0.3958
 8620TIP3    H147351   0.297   4.274   4.259 -0.7903  2.8990  2.3602
 8620TIP3    H247352   0.190   4.303   4.155  1.5745 -1.0648 -1.5030
 8621TIP3   OH247353   6.190   4.979   3.945 -0.0843  0.1042 -0.1326
 8621TIP3    H147354   6.136   5.044   3.988  0.4890  1.4499 -1.3684
 8621TIP3    H247355   6.276   5.021   3.936  1.2906 -2.0211  1.9224
 8622TIP3   OH247356   5.661   6.333  13.872  0.1355 -0.0071  0.1763
 8622TIP3    H147357   5.670   6.310  13.779  1.6476 -0.3871  0.3810
 8622TIP3    H247358   5.700   6.420  13.878  1.1719 -0.4819  0.6357
 8623TIP3   OH247359   6.265   1.147  13.171 -0.2722 -0.3605  0.4421
 8623TIP3    H147360   6.208   1.183  13.238 -0.7959  0.3010 -0.3321
 8623TIP3    H247361   6.205   1.117  13.102  0.1458 -2.5988  0.9544
 8624TIP3   OH247362   1.347   1.405  11.943 -0.2286  0.3481 -0.9444
 8624TIP3    H147363   1.400   1.327  11.930 -0.0224  0.4165 -0.5062
 8624TIP3    H247364   1.276   1.397  11.879 -0.2828 -0.2603 -0.8090
 8625TIP3   OH247365   4.436   6.556   5.824 -0.0042 -0.2400  0.3865
 8625TIP3    H147366   4.398   6.642   5.843  1.8311  0.5188  0.8847
 8625TIP3    H247367   4.486   6.534   5.903  0.7231 -1.0853 -0.2869
 8626TIP3   OH247368   5.858   0.194  12.781 -0.1859 -0.1131 -0.1126
 8626TIP3    H147369   5.870   0.284  12.751  1.0644 -0.1349  0.2505
 8626TIP3    H247370   5.939   0.173  12.827 -0.7831 -1.1559  0.5155
 8627TIP3   OH247371   0.535   3.180   1.060  0.1403  0.5344  0.1394
 8627TIP3    H147372   0.466   3.157   0.998  0.8105  0.8062 -0.7250
 8627TIP3    H247373   0.536   3.276   1.061 -0.4197  0.5383  1.2096
 8628TIP3   OH247374   6.489   1.176   4.881  0.0223 -0.2389 -0.0743
 8628TIP3    H147375   6.474   1.198   4.973 -0.5018  1.1555 -0.4773
 8628TIP3    H247376   6.571   1.126   4.883  1.1498  1.5164  0.9570
 8629TIP3   OH247377   5.544   5.105  12.981 -0.2085  1.0873 -0.4333
 8629TIP3    H147378   5.611   5.165  13.014  2.5773 -0.8073 -2.2179
 8629TIP3    H247379   5.499   5.154  12.912  0.4446  1.8941 -0.3013
 8630TIP3   OH247380   6.279   2.957  10.839  0.3311  0.4533  0.5725
 8630TIP3    H147381   6.220   2.894  10.879 -0.7136  0.9578 -0.1326
 8630TIP3    H247382   6.287   3.027  10.903  2.5743 -0.9326  1.9548
 8631TIP3   OH247383   6.392   6.327   4.362  0.1453 -0.3114  0.1222
 8631TIP3    H147384   6.424   6.416   4.346  0.9380 -0.4628  0.7575
 8631TIP3    H247385   6.298   6.337   4.379 -0.0800  0.2102 -1.3344
 8632TIP3   OH247386   1.776   1.951  13.351  0.4289  0.3119  0.0266
 8632TIP3    H147387   1.814   1.989  13.271 -0.8052 -1.5635 -1.5361
 8632TIP3    H247388   1.829   1.873  13.367 -0.1461 -0.0366  0.2566
 8633TIP3   OH247389   3.902   1.307   4.245 -0.3473 -0.1910  0.3346
 8633TIP3    H147390   3.834   1.374   4.244  1.7428  2.1115 -1.4265
 8633TIP3    H247391   3.884   1.255   4.323 -3.9001  0.4374  0.0787
 8634TIP3   OH247392   2.266   5.410  15.338 -0.1782  0.0546  0.6265
 8634TIP3    H147393   2.197   5.346  15.320 -0.2324 -0.3679  2.2611
 8634TIP3    H247394   2.251   5.438  15.428  1.9562 -0.2774  1.1451
 8635TIP3   OH247395   0.715   5.593  14.528  0.0250  0.4966  0.2706
 8635TIP3    H147396   0.711   5.551  14.614  0.7411  0.4366  0.2810
 8635TIP3    H247397   0.640   5.559  14.481 -0.1693  0.2551  0.7534
 8636TIP3   OH247398   0.434   0.793   1.988 -0.1065  0.1397 -0.2332
 8636TIP3    H147399   0.469   0.748   1.911 -0.5508 -0.4220 -0.1136
 8636TIP3    H247400   0.347   0.755   2.000  0.7492 -1.2921  1.7789
 8637TIP3   OH247401   4.353   3.292  14.828 -0.5024  0.0392  0.4290
 8637TIP3    H147402   4.300   3.315  14.752  0.8038 -1.9821 -1.2339
 8637TIP3    H247403   4.299   3.229  14.876  0.0371 -1.5234 -0.9093
 8638TIP3   OH247404   5.991   6.527   6.664 -0.1922 -0.6108 -0.0136
 8638TIP3    H147405   6.054   6.481   6.719  0.5411 -0.3418 -0.6068
 8638TIP3    H247406   6.044   6.590   6.614 -1.0449  0.2148  0.0889
 8639TIP3   OH247407   4.955   2.176  13.379 -0.0282  0.3517  0.0153
 8639TIP3    H147408   4.941   2.214  13.466 -0.5483 -0.0165  0.0945
 8639TIP3    H247409   4.868   2.151  13.349  0.3168 -0.9923  0.0636
 8640TIP3   OH247410   5.173   4.235   1.041  0.1202  0.2615  0.5925
 8640TIP3    H147411   5.226   4.176   1.095  0.0575 -0.3797 -0.0259
 8640TIP3    H247412   5.084   4.198   1.045 -0.2569  1.2322  1.4899
 8641TIP3   OH247413   2.491   0.066   0.783 -0.0846  0.2403 -0.0746
 8641TIP3    H147414   2.584   0.087   0.779 -0.2248  1.4941  1.7966
 8641TIP3    H247415   2.449   0.151   0.797 -1.5062 -0.3400 -0.6532
 8642TIP3   OH247416   4.972   5.683  11.746 -0.2534 -0.3221  0.4903
 8642TIP3    H147417   4.918   5.604  11.754 -0.7488 -0.1989 -1.1797
 8642TIP3    H247418   5.062   5.651  11.749 -0.4403 -0.8337  0.7890
 8643TIP3   OH247419   2.692   2.175  15.646  0.2199 -0.7902  0.3454
 8643TIP3    H147420   2.653   2.147  15.563  1.4605  0.4234 -0.7042
 8643TIP3    H247421   2.618   2.203  15.700 -0.5939 -1.4991 -0.3918
 8644TIP3   OH247422   3.858   6.260   4.299  0.0873 -0.9018 -0.6033
 8644TIP3    H147423   3.916   6.309   4.241 -2.6921 -0.8261 -3.6027
 8644TIP3    H247424   3.890   6.279   4.387  2.8719  1.2699 -1.9442
 8645TIP3   OH247425   0.674   4.778   1.617  0.0732  0.0873 -0.2442
 8645TIP3    H147426   0.594   4.732   1.591  0.2800 -0.5437  0.2081
 8645TIP3    H247427   0.699   4.828   1.540 -1.5993  1.5341  0.0700
 8646TIP3   OH247428   1.207   0.072  15.866  0.5148  0.3666 -0.7132
 8646TIP3    H147429   1.162   0.156  15.856  0.8548  0.5370 -0.8673
 8646TIP3    H247430   1.266   0.068  15.791 -0.1015 -0.4010 -1.1688
 8647TIP3   OH247431   2.932   3.088  14.313 -0.3063  0.8958 -0.2197
 8647TIP3    H147432   2.908   3.067  14.223 -0.1992 -0.3011  0.0085
 8647TIP3    H247433   2.997   3.157  14.306  0.4493  0.1105 -1.1156
 8648TIP3   OH247434   0.398   1.811  16.594 -0.2878 -0.7121  0.0855
 8648TIP3    H147435   0.317   1.859  16.611 -1.4621 -3.0304  1.5693
 8648TIP3    H247436   0.378   1.758  16.517  0.4377 -0.0310 -0.5796
 8649TIP3   OH247437   5.239   2.294   6.242 -0.6898  0.7192 -0.2315
 8649TIP3    H147438   5.159   2.251   6.214  0.5234 -1.2584 -0.8132
 8649TIP3    H247439   5.215   2.339   6.323 -2.0418 -1.0955  0.4422
 8650TIP3   OH247440   2.191   6.386   1.727  0.0672 -0.3479  0.3937
 8650TIP3    H147441   2.280   6.390   1.690  0.3236 -0.7603  0.9518
 8650TIP3    H247442   2.205   6.385   1.822 -0.5717  0.3865  0.5023
 8651TIP3   OH247443   6.048   2.763   1.450  0.1876  0.0929  0.7076
 8651TIP3    H147444   6.130   2.771   1.498  0.4642 -3.1696  1.0355
 8651TIP3    H247445   6.067   2.796   1.363  1.0226  1.8362  1.5009
 8652TIP3   OH247446   3.915   5.835   2.310 -0.1913  0.3909 -0.0540
 8652TIP3    H147447   3.898   5.887   2.388  0.9929  0.0281  0.4759
 8652TIP3    H247448   3.866   5.754   2.324 -1.0712  0.8683 -0.3256
 8653TIP3   OH247449   2.660   6.009   3.260 -0.2579 -0.4677 -0.1221
 8653TIP3    H147450   2.649   6.005   3.165 -0.2979 -0.5244 -0.1149
 8653TIP3    H247451   2.594   5.950   3.295  0.3324 -1.1272 -0.0963
 8654TIP3   OH247452   5.674   5.174  11.727  0.0407 -0.2438 -0.2107
 8654TIP3    H147453   5.721   5.247  11.686  1.0812 -1.1481 -0.6679
 8654TIP3    H247454   5.711   5.169  11.815  0.0010 -0.2588 -0.1953
 8655TIP3   OH247455   1.266   6.367  11.437  0.1828 -0.2486  0.0758
 8655TIP3    H147456   1.308   6.325  11.362  0.5884 -0.5477  0.4642
 8655TIP3    H247457   1.241   6.453  11.405 -0.9666 -0.9023 -0.8321
 8656TIP3   OH247458   3.317   1.281   6.837  0.4731  0.0384 -0.0029
 8656TIP3    H147459   3.339   1.189   6.851  0.5502  0.0811  0.1561
 8656TIP3    H247460   3.378   1.329   6.892  0.3538  0.1811  0.0050
 8657TIP3   OH247461   1.852   4.983   1.673 -0.0688  0.2109 -1.1096
 8657TIP3    H147462   1.908   5.061   1.670  0.2788  0.0106 -0.2285
 8657TIP3    H247463   1.765   5.017   1.693 -0.0387  0.4160 -1.3087
 8658TIP3   OH247464   4.863   0.480   1.595  0.1501  0.4975  0.4145
 8658TIP3    H147465   4.809   0.559   1.593 -1.8612 -0.7457  1.7842
 8658TIP3    H247466   4.847   0.442   1.681  2.6774 -0.3768  0.5848
 8659TIP3   OH247467   1.808   0.587   0.968  0.3032 -0.1205  0.2224
 8659TIP3    H147468   1.786   0.571   0.876  0.0994  0.7214  0.1201
 8659TIP3    H247469   1.887   0.641   0.965 -0.5579  1.2016  0.4979
 8660TIP3   OH247470   1.951   6.712  10.765  0.1540 -0.3355  0.3858
 8660TIP3    H147471   1.918   6.693  10.677  2.7539  1.8745 -1.2229
 8660TIP3    H247472   2.004   6.636  10.788 -0.4108 -0.8584 -0.0178
 8661TIP3   OH247473   4.285   0.100   3.265  0.0688 -0.3088 -0.6842
 8661TIP3    H147474   4.286   0.157   3.342  2.6070  1.6094 -1.9670
 8661TIP3    H247475   4.338   0.024   3.290  0.7864  0.2526 -0.4722
 8662TIP3   OH247476   5.637   6.179   4.053 -0.4650  0.0343 -0.0507
 8662TIP3    H147477   5.721   6.175   4.097 -0.3138 -1.3649 -0.4357
 8662TIP3    H247478   5.645   6.254   3.994  0.2559  0.3270  0.4026
 8663TIP3   OH247479   3.918   6.748  12.985 -0.5726  0.2129  0.0526
 8663TIP3    H147480   3.967   6.800  13.048 -0.2887 -1.0535  0.9130
 8663TIP3    H247481   3.846   6.710  13.036 -1.2354  0.3700 -0.7333
 8664TIP3   OH247482   0.375   5.627  14.135  0.0046  0.0873  0.7848
 8664TIP3    H147483   0.379   5.541  14.093 -2.8076 -0.0861  0.7386
 8664TIP3    H247484   0.283   5.651  14.134  0.4552  2.2588  2.5698
 8665TIP3   OH247485   2.304   3.084  11.617  0.7102  0.0328  0.4211
 8665TIP3    H147486   2.344   3.083  11.530  1.4005 -0.8043  0.7402
 8665TIP3    H247487   2.378   3.087  11.678  0.3592 -2.0478  1.0328
 8666TIP3   OH247488   3.895   0.073  13.454 -0.4200 -0.1321 -0.1179
 8666TIP3    H147489   3.799   0.076  13.456 -0.3770  2.0013  0.6867
 8666TIP3    H247490   3.920   0.045  13.542 -0.3060  2.2338  0.6719
 8667TIP3   OH247491   2.630   1.726  11.781  0.3260  0.4677 -0.3622
 8667TIP3    H147492   2.568   1.787  11.821 -0.4905 -0.1639 -0.6400
 8667TIP3    H247493   2.575   1.658  11.743  1.1360  0.5700 -1.7612
 8668TIP3   OH247494   4.664   1.843  11.706  0.0396 -0.2161 -0.5294
 8668TIP3    H147495   4.633   1.933  11.710 -1.8352 -0.6426 -3.1688
 8668TIP3    H247496   4.613   1.797  11.772 -1.0785  0.1383 -1.1241
 8669TIP3   OH247497   6.640   6.265  15.152  0.2517  0.2839 -0.0246
 8669TIP3    H147498   6.692   6.344  15.166 -0.3151  0.3713  1.8074
 8669TIP3    H247499   6.560   6.279  15.203 -0.4499 -0.9175 -0.7431
 8670TIP3   OH247500   3.172   5.848  13.512  0.1395  0.0072 -0.4207
 8670TIP3    H147501   3.201   5.863  13.602 -0.7650 -0.1752 -0.0863
 8670TIP3    H247502   3.086   5.888  13.508  0.3988  0.4970 -1.3761
 8671TIP3   OH247503   3.101   1.175   5.736 -0.1152  0.5359 -0.0628
 8671TIP3    H147504   3.190   1.144   5.723 -0.9405 -3.2592  1.8318
 8671TIP3    H247505   3.058   1.160   5.652  0.3678 -0.4114 -0.1575
 8672TIP3   OH247506   3.516   0.848   5.187  0.5649 -0.4943 -0.5789
 8672TIP3    H147507   3.513   0.801   5.270 -0.4376 -0.3421 -0.5190
 8672TIP3    H247508   3.434   0.825   5.143 -1.0636  2.8738  0.4057
 8673TIP3   OH247509   2.125   2.918   3.229 -0.0857 -0.3189  0.6814
 8673TIP3    H147510   2.220   2.905   3.233 -0.0641 -0.4754 -0.1664
 8673TIP3    H247511   2.111   3.006   3.263  0.5312  0.3222 -0.6215
 8674TIP3   OH247512   5.632   3.407  16.986  0.6246  0.1331 -0.1332
 8674TIP3    H147513   5.575   3.451  16.922  0.3530  0.3418  0.2461
 8674TIP3    H247514   5.719   3.444  16.970  0.5249  0.3112 -0.2648
 8675TIP3   OH247515   1.659   5.809  14.632 -0.2119  0.2966  0.6810
 8675TIP3    H147516   1.657   5.861  14.552 -0.8982 -0.4785  0.1663
 8675TIP3    H247517   1.567   5.798  14.655 -0.1656 -1.5825  0.1443
 8676TIP3   OH247518   4.558   1.679   5.833 -0.2008  0.1508  0.0850
 8676TIP3    H147519   4.629   1.655   5.893  0.9601 -0.7614 -1.5658
 8676TIP3    H247520   4.580   1.635   5.751 -1.0861  2.2682 -1.3858
 8677TIP3   OH247521   1.967   5.476  11.935 -0.3303  0.1907 -0.3370
 8677TIP3    H147522   1.982   5.495  11.843 -0.1782 -1.1189 -0.6022
 8677TIP3    H247523   1.979   5.560  11.979 -2.5046  1.3216 -1.7224
 8678TIP3   OH247524   2.208   4.728   2.760  0.4339 -0.2528 -0.0004
 8678TIP3    H147525   2.219   4.644   2.717  1.3085 -0.8487  1.3020
 8678TIP3    H247526   2.203   4.707   2.853  1.2305  1.1695  0.4025
 8679TIP3   OH247527   4.865   2.130  13.898  0.1709 -0.0345 -0.2784
 8679TIP3    H147528   4.896   2.139  13.808  2.8144  1.4065  0.6528
 8679TIP3    H247529   4.878   2.037  13.918  0.5961 -0.1559 -1.0618
 8680TIP3   OH247530   3.865   3.297  14.507  0.6966  0.3653  0.7090
 8680TIP3    H147531   3.926   3.371  14.497 -0.0863  1.4823  3.2771
 8680TIP3    H247532   3.813   3.298  14.426  2.7797  0.5758 -0.6991
 8681TIP3   OH247533   6.745   2.885  16.387 -0.0880 -0.4255 -0.0655
 8681TIP3    H147534   6.804   2.832  16.334 -1.4848 -1.7750 -0.3514
 8681TIP3    H247535   6.690   2.930  16.323  1.1810  1.5904  0.1663
 8682TIP3   OH247536   3.535   6.025  13.759 -0.2004 -0.5617  0.1481
 8682TIP3    H147537   3.541   5.943  13.808 -0.1478 -0.8145 -0.2851
 8682TIP3    H247538   3.597   6.016  13.687 -0.6891 -0.4124 -0.2969
 8683TIP3   OH247539   2.322   4.443   5.363 -0.0867 -0.2786 -0.0499
 8683TIP3    H147540   2.351   4.370   5.309  0.6662  0.5392 -0.7651
 8683TIP3    H247541   2.362   4.426   5.449  0.9600 -0.1609 -0.5039
 8684TIP3   OH247542   2.158   2.660   5.113 -0.0587 -0.1856  0.1972
 8684TIP3    H147543   2.157   2.573   5.151 -0.2846 -0.4239 -0.3475
 8684TIP3    H247544   2.087   2.707   5.157  3.1380  1.4286  4.3319
 8685TIP3   OH247545   5.116   3.058  14.291 -0.1696 -0.5417 -0.7178
 8685TIP3    H147546   5.091   3.142  14.330 -1.7773 -1.8556  1.2851
 8685TIP3    H247547   5.211   3.064  14.280 -0.0850  1.0789  0.5738
 8686TIP3   OH247548   1.504   2.102   3.363  0.2228 -0.2391  0.4675
 8686TIP3    H147549   1.473   2.109   3.272  0.6239 -1.4979  0.2197
 8686TIP3    H247550   1.596   2.079   3.355  0.0082 -1.3923  1.1877
 8687TIP3   OH247551   4.373   5.140  16.818 -0.2404  0.1132 -0.3875
 8687TIP3    H147552   4.398   5.162  16.908  1.3839 -0.3332 -0.6912
 8687TIP3    H247553   4.280   5.118  16.823 -0.3434  0.7769  1.0497
 8688TIP3   OH247554   5.122   2.897   2.286 -0.0157  0.3935  0.0063
 8688TIP3    H147555   5.038   2.888   2.331  1.2255 -0.0436  2.4026
 8688TIP3    H247556   5.183   2.926   2.354  2.2260 -1.3557 -1.1250
 8689TIP3   OH247557   5.798   0.955  10.421 -0.5252 -0.6693  0.1906
 8689TIP3    H147558   5.815   0.865  10.393 -0.8481 -0.6689 -0.0177
 8689TIP3    H247559   5.874   0.979  10.473  0.3793 -0.4904 -1.1514
 8690TIP3   OH247560   6.358   1.645   0.637 -0.0989 -0.0331  0.0902
 8690TIP3    H147561   6.447   1.612   0.652  1.0693  1.9924 -1.8160
 8690TIP3    H247562   6.335   1.613   0.550  0.4352  2.5684 -1.1214
 8691TIP3   OH247563   1.577   6.376  10.582 -0.0481 -0.0189 -0.4287
 8691TIP3    H147564   1.660   6.329  10.571 -0.6644 -1.1532 -0.4590
 8691TIP3    H247565   1.590   6.459  10.536  0.9255 -0.3500 -0.7851
 8692TIP3   OH247566   0.589   4.340   0.862  0.3248  0.1913 -0.4320
 8692TIP3    H147567   0.616   4.409   0.802  0.8611  0.5448  0.2066
 8692TIP3    H247568   0.662   4.330   0.922 -0.3286  0.0495  0.3521
 8693TIP3   OH247569   3.725   3.662  14.081  0.1134 -0.2791 -0.2390
 8693TIP3    H147570   3.673   3.609  14.020  1.3399 -0.5281 -1.0983
 8693TIP3    H247571   3.740   3.745  14.035 -0.1995  0.1082  0.3385
 8694TIP3   OH247572   6.779   5.856   0.348 -0.3808 -0.5019 -0.2267
 8694TIP3    H147573   6.821   5.791   0.293  1.3011  2.4104 -2.7257
 8694TIP3    H247574   6.724   5.907   0.287 -0.6271  1.1718  1.3014
 8695TIP3   OH247575   1.160   0.713   0.817  0.0099  0.2766 -1.0028
 8695TIP3    H147576   1.128   0.803   0.826 -1.5349 -0.3886  0.6638
 8695TIP3    H247577   1.224   0.703   0.888  0.0509 -0.0056 -1.0785
 8696TIP3   OH247578   4.765   3.639   6.663 -0.2989 -0.0022 -0.1806
 8696TIP3    H147579   4.754   3.696   6.739  0.6779  1.8082 -1.3312
 8696TIP3    H247580   4.849   3.665   6.625 -1.5541  0.4372 -2.8926
 8697TIP3   OH247581   0.160   5.252   3.881 -0.6182  0.1872  0.1467
 8697TIP3    H147582   0.107   5.317   3.836  2.2176  0.3474 -3.3250
 8697TIP3    H247583   0.218   5.303   3.937  0.4051  0.5713 -1.2286
 8698TIP3   OH247584   0.973   1.586  12.324  0.7689 -0.4811 -0.4202
 8698TIP3    H147585   1.028   1.624  12.393  0.0488 -0.8350  0.3627
 8698TIP3    H247586   1.028   1.518  12.285  1.3656  0.0571 -0.5476
 8699TIP3   OH247587   5.251   3.104  13.173  0.2060 -0.0449  0.0222
 8699TIP3    H147588   5.160   3.102  13.143  1.1165 -0.5124 -3.1142
 8699TIP3    H247589   5.263   3.022  13.220 -0.4284 -1.1312 -1.6314
 8700TIP3   OH247590   0.324   6.214  15.225 -0.0385 -0.3069  0.1340
 8700TIP3    H147591   0.297   6.140  15.279  0.9204 -0.5907  0.2250
 8700TIP3    H247592   0.277   6.200  15.142  1.7227 -2.2166 -0.6437
 8701TIP3   OH247593   0.193   6.548  16.301  0.2138 -0.1895 -0.4285
 8701TIP3    H147594   0.213   6.614  16.368  1.9169 -1.9024  0.8867
 8701TIP3    H247595   0.279   6.513  16.277 -0.6018 -1.4455 -1.5858
 8702TIP3   OH247596   0.386   2.585  12.218  0.7114 -0.5962 -0.2468
 8702TIP3    H147597   0.295   2.565  12.240  0.9077 -1.4676 -0.1613
 8702TIP3    H247598   0.414   2.648  12.284  0.2986 -0.6577 -0.0066
 8703TIP3   OH247599   5.869   2.871  16.518  0.3933 -0.6470  0.5894
 8703TIP3    H147600   5.929   2.847  16.589  1.6844  0.7893  0.0504
 8703TIP3    H247601   5.833   2.956  16.545  0.7082 -0.2057 -0.3312
 8704TIP3   OH247602   6.395   1.693   2.546  0.3037 -0.0731 -0.5351
 8704TIP3    H147603   6.404   1.760   2.613  1.6250  1.1965 -1.8803
 8704TIP3    H247604   6.457   1.625   2.572 -0.6216 -0.5379  0.5320
 8705TIP3   OH247605   1.237   6.270   1.870  0.1343  1.0956 -0.1700
 8705TIP3    H147606   1.243   6.216   1.949 -2.3957 -1.8700 -1.7437
 8705TIP3    H247607   1.323   6.310   1.861  1.0446  0.1424  3.0951
 8706TIP3   OH247608   4.993   3.236   2.002  0.2895  0.0405  0.0899
 8706TIP3    H147609   5.076   3.254   1.958  1.8899  0.5532  3.0484
 8706TIP3    H247610   5.001   3.145   2.032 -1.0075 -0.4859 -1.0289
 8707TIP3   OH247611   5.086   0.221   4.157  0.1889 -0.1237 -0.4502
 8707TIP3    H147612   5.065   0.166   4.232 -0.9212  0.7493 -0.1027
 8707TIP3    H247613   5.038   0.181   4.084  1.5527 -1.1826 -0.8048
 8708TIP3   OH247614   6.276   0.861   2.908  0.3841 -0.9831 -0.5287
 8708TIP3    H147615   6.190   0.858   2.949  0.3007  0.4102 -0.5416
 8708TIP3    H247616   6.294   0.771   2.882 -0.6310 -1.4635  0.3667
 8709TIP3   OH247617   1.562   3.453   5.970 -0.0649  0.1920 -0.1459
 8709TIP3    H147618   1.507   3.527   5.943  0.4568  1.6982  2.4787
 8709TIP3    H247619   1.533   3.433   6.059  0.4288 -2.2335 -0.4651
 8710TIP3   OH247620   2.329   0.806   2.462 -0.5619 -0.3283  0.8881
 8710TIP3    H147621   2.360   0.749   2.392 -2.4160  0.5751 -0.7772
 8710TIP3    H247622   2.233   0.799   2.457 -0.8830  2.9178  0.5193
 8711TIP3   OH247623   0.296   4.416   6.925 -0.0613  0.2522  0.0351
 8711TIP3    H147624   0.310   4.476   6.852 -1.0632  0.1257 -0.2743
 8711TIP3    H247625   0.302   4.328   6.886  3.3658 -0.0153  0.8067
 8712TIP3   OH247626   6.775   5.857   6.122  0.8248 -0.3013  0.2233
 8712TIP3    H147627   6.693   5.808   6.125  1.6724 -1.8041 -0.0153
 8712TIP3    H247628   6.749   5.948   6.109 -0.8714 -0.4858  1.8911
 8713TIP3   OH247629   2.262   6.745   0.757  0.2913  0.0405  0.0650
 8713TIP3    H147630   2.287   6.671   0.813 -2.4033  0.1155  1.5119
 8713TIP3    H247631   2.340   6.801   0.756  1.6404 -1.7258  0.7463
 8714TIP3   OH247632   1.628   2.869   5.111  0.1563  0.2666 -0.4052
 8714TIP3    H147633   1.675   2.930   5.167  1.7572 -2.0939  1.0277
 8714TIP3    H247634   1.650   2.783   5.147 -0.5217 -1.2707 -3.3739
 8715TIP3   OH247635   0.741   0.458  12.420 -0.6940  0.5627  0.7721
 8715TIP3    H147636   0.695   0.423  12.343 -1.4635  2.6130  0.2332
 8715TIP3    H247637   0.802   0.388  12.445  0.2416  0.1333 -2.2514
 8716TIP3   OH247638   6.191   1.736  11.011 -0.1835 -0.1319 -0.2330
 8716TIP3    H147639   6.149   1.819  11.031 -0.2539 -0.4774  1.2346
 8716TIP3    H247640   6.122   1.671  11.021  0.0214 -0.4313 -0.7253
 8717TIP3   OH247641   2.900   2.513  16.185 -0.1083  0.4242  0.0137
 8717TIP3    H147642   2.898   2.421  16.211  2.7373  0.5407  0.9532
 8717TIP3    H247643   2.832   2.520  16.118 -0.2206 -2.4105 -0.3076
 8718TIP3   OH247644   6.261   6.133   3.699 -0.3249  0.5109 -0.2093
 8718TIP3    H147645   6.259   6.225   3.673  0.3568  0.4311 -0.5684
 8718TIP3    H247646   6.306   6.088   3.627  1.4204  0.2619  0.9645
 8719TIP3   OH247647   5.616   4.719   2.632 -0.0150  0.6662 -0.0404
 8719TIP3    H147648   5.665   4.722   2.714  0.4923 -0.6358 -0.2654
 8719TIP3    H247649   5.576   4.632   2.631 -1.6780  1.3963 -0.2562
 8720TIP3   OH247650   3.647   3.643   1.530 -0.1163  0.0964  0.3477
 8720TIP3    H147651   3.713   3.624   1.463  0.9995 -1.5435  1.7916
 8720TIP3    H247652   3.627   3.735   1.519  2.7245  0.7713  0.0367
 8721TIP3   OH247653   3.894   0.374   3.134 -0.0950 -0.6222 -0.1539
 8721TIP3    H147654   3.833   0.407   3.200  0.8470 -1.5299  1.2374
 8721TIP3    H247655   3.897   0.280   3.149  0.0457 -0.8759 -1.6163
 8722TIP3   OH247656   3.620   1.086   3.829 -0.0196  0.2186  0.3456
 8722TIP3    H147657   3.609   1.078   3.923 -0.3358 -0.0483  0.2880
 8722TIP3    H247658   3.698   1.034   3.809  1.1541  1.7812  0.6996
 8723TIP3   OH247659   6.165   6.456  16.522 -0.4507 -0.6190  0.0524
 8723TIP3    H147660   6.184   6.399  16.447  1.1942  0.3698 -0.3399
 8723TIP3    H247661   6.090   6.416  16.565  0.1703 -2.6418 -0.6542
 8724TIP3   OH247662   0.498   1.144  11.284 -0.1931 -0.2545  0.0240
 8724TIP3    H147663   0.514   1.142  11.190  1.0710  0.0614  0.2034
 8724TIP3    H247664   0.443   1.068  11.302 -0.8803 -0.0191 -1.0320
 8725TIP3   OH247665   2.616   1.552  15.192 -0.4119 -0.5037 -1.0029
 8725TIP3    H147666   2.690   1.524  15.140  0.3713 -1.3706  0.5161
 8725TIP3    H247667   2.567   1.472  15.211 -1.0048 -0.1230 -0.8811
 8726TIP3   OH247668   0.516   6.339  11.458  0.6504  0.6991  0.0406
 8726TIP3    H147669   0.449   6.278  11.426 -0.2091  1.6729 -0.0604
 8726TIP3    H247670   0.473   6.424  11.460  0.7353  0.8231  3.3217
 8727TIP3   OH247671   5.158   4.541   6.356 -0.3930  0.1918  0.0141
 8727TIP3    H147672   5.117   4.471   6.306 -2.1376  1.8010 -0.9373
 8727TIP3    H247673   5.105   4.549   6.435  1.6856 -1.5884  1.6877
 8728TIP3   OH247674   0.555   6.285  10.832  0.6480  0.4063 -0.3691
 8728TIP3    H147675   0.586   6.215  10.775 -0.6753 -0.5138  0.0026
 8728TIP3    H247676   0.477   6.319  10.787  0.0013  0.1444  0.5240
 8729TIP3   OH247677   5.274   2.505   2.598 -0.1606 -0.0438 -0.5761
 8729TIP3    H147678   5.237   2.560   2.667  0.6857  0.5558 -0.5773
 8729TIP3    H247679   5.343   2.455   2.642  0.6109  0.5861 -1.0444
 8730TIP3   OH247680   0.804   4.470   3.963  0.0384 -0.2759  0.1340
 8730TIP3    H147681   0.870   4.462   4.033  0.7058  1.4816 -0.2282
 8730TIP3    H247682   0.854   4.500   3.887 -0.8315 -1.2697 -0.8587
 8731TIP3   OH247683   2.890   3.368  12.330  0.2551  0.3617  0.6715
 8731TIP3    H147684   2.852   3.401  12.248  0.8350 -0.3983  0.0801
 8731TIP3    H247685   2.846   3.418  12.398 -0.8408  0.4475 -0.0604
 8732TIP3   OH247686   2.021   0.332  10.911  0.2681  0.0298  0.2094
 8732TIP3    H147687   2.031   0.406  10.970 -2.4338 -1.4074  2.7198
 8732TIP3    H247688   2.019   0.371  10.824 -0.0877  2.7965  1.3674
 8733TIP3   OH247689   5.043   4.724  13.655 -0.2738 -0.4778 -0.0587
 8733TIP3    H147690   5.027   4.663  13.583  2.0138 -1.1602 -0.0677
 8733TIP3    H247691   5.041   4.670  13.734  1.4467 -0.5820 -0.0393
 8734TIP3   OH247692   5.726   5.617   5.991  0.0539 -0.4957 -0.5692
 8734TIP3    H147693   5.725   5.528   6.026  3.6775 -0.2835  0.4822
 8734TIP3    H247694   5.753   5.671   6.065  0.0256  1.1560 -1.7325
 8735TIP3   OH247695   3.510   2.373  11.791  0.4242 -0.5713 -0.3174
 8735TIP3    H147696   3.462   2.341  11.714  0.4641  1.8465 -1.4128
 8735TIP3    H247697   3.491   2.466  11.795  1.3474 -0.4007  1.9838
 8736TIP3   OH247698   0.366   2.281   2.749 -0.1665  0.8091  0.3486
 8736TIP3    H147699   0.422   2.249   2.678 -0.3000 -2.0743  1.3779
 8736TIP3    H247700   0.279   2.287   2.710 -0.4487 -1.7450  0.3907
 8737TIP3   OH247701   2.638   4.491  16.914  0.1997  0.9517  0.0803
 8737TIP3    H147702   2.683   4.407  16.923 -1.4516  0.0960  0.7763
 8737TIP3    H247703   2.669   4.526  16.831  1.7155  0.1618  0.2757
 8738TIP3   OH247704   4.567   6.807   1.484 -0.2235  0.0723 -0.0988
 8738TIP3    H147705   4.545   6.898   1.505 -0.7434  0.9588 -3.7582
 8738TIP3    H247706   4.657   6.812   1.453 -1.3402  0.1579 -3.7438
 8739TIP3   OH247707   5.522   4.833  11.637 -0.3128  0.1750  0.8607
 8739TIP3    H147708   5.508   4.924  11.665 -1.4716  0.2697  0.0453
 8739TIP3    H247709   5.519   4.837  11.542 -0.6009 -0.7592  0.8268
 8740TIP3   OH247710   5.060   2.340   2.802 -0.8152  0.2582 -0.0856
 8740TIP3    H147711   5.009   2.408   2.845  1.2909  1.8414  0.0604
 8740TIP3    H247712   5.146   2.380   2.788  0.2190 -2.0786 -0.8420
 8741TIP3   OH247713   2.035   1.493  12.853  0.0349  0.6438  0.0882
 8741TIP3    H147714   1.943   1.519  12.863 -0.1644 -0.2740  0.7113
 8741TIP3    H247715   2.042   1.470  12.760 -1.4623 -3.1091  0.7060
 8742TIP3   OH247716   0.737   2.345  15.406  0.2946  0.1229 -0.7371
 8742TIP3    H147717   0.665   2.337  15.343  2.0189 -1.3504 -2.6610
 8742TIP3    H247718   0.708   2.296  15.483 -0.5789 -0.8570 -1.6678
 8743TIP3   OH247719   0.200   4.435  16.694  0.0932  0.3320  0.0158
 8743TIP3    H147720   0.262   4.508  16.690  0.8328 -0.3219 -1.0614
 8743TIP3    H247721   0.253   4.361  16.724 -0.0057 -0.3687 -1.4285
 8744TIP3   OH247722   6.058   5.730   3.224 -0.2450 -0.4200  0.2785
 8744TIP3    H147723   6.054   5.776   3.141  0.7627  0.7035  0.8312
 8744TIP3    H247724   5.983   5.670   3.221 -2.2994  1.9583 -0.0569
 8745TIP3   OH247725   2.927   3.238   0.286 -0.1640 -0.0445 -0.4645
 8745TIP3    H147726   2.902   3.283   0.367  0.1852 -1.4981  0.4854
 8745TIP3    H247727   3.021   3.250   0.279 -0.1426 -0.2221 -0.4773
 8746TIP3   OH247728   6.604   4.449   6.048  0.1781  0.0464  0.2627
 8746TIP3    H147729   6.621   4.529   5.998 -0.3790  1.5857  2.3578
 8746TIP3    H247730   6.509   4.442   6.051  0.2290 -0.6946  0.0754
 8747TIP3   OH247731   0.790   4.701   5.678  0.0476 -0.3856 -0.3650
 8747TIP3    H147732   0.824   4.750   5.603  0.0970  3.0342  1.6985
 8747TIP3    H247733   0.704   4.671   5.650 -1.2459  3.3690 -0.9695
 8748TIP3   OH247734   0.838   4.053  16.431  0.4177  0.0227  0.0633
 8748TIP3    H147735   0.882   4.033  16.348  0.0788 -0.1540 -0.0765
 8748TIP3    H247736   0.903   4.100  16.482  1.2228 -1.4129  0.3951
 8749TIP3   OH247737   6.006   2.586   5.787  0.1162  0.1109 -0.2170
 8749TIP3    H147738   6.061   2.627   5.721 -2.2308 -0.5514 -2.7859
 8749TIP3    H247739   5.953   2.658   5.822  0.8864  0.3561  0.4519
 8750TIP3   OH247740   5.350   2.045  16.387 -0.1724  0.0118 -0.1099
 8750TIP3    H147741   5.258   2.049  16.360  0.2231  2.0951 -1.3624
 8750TIP3    H247742   5.396   2.011  16.310  0.3827  1.3505 -0.3911
 8751TIP3   OH247743   1.283   3.595  16.562 -0.1348 -0.4391 -0.2453
 8751TIP3    H147744   1.223   3.649  16.511  0.7577 -1.7678 -2.8737
 8751TIP3    H247745   1.240   3.584  16.647 -3.8400 -1.5746 -2.0593
 8752TIP3   OH247746   2.510   5.733  16.106  0.0338  0.3653  0.1627
 8752TIP3    H147747   2.438   5.794  16.092  1.3857  1.6982 -1.3192
 8752TIP3    H247748   2.579   5.785  16.147  1.5821  0.1938 -2.0405
 8753TIP3   OH247749   6.676   5.459   5.060  0.0857 -0.3260  0.4085
 8753TIP3    H147750   6.588   5.457   5.096  0.0306  2.8907  0.7292
 8753TIP3    H247751   6.730   5.415   5.126 -0.8803  0.2659  1.6346
 8754TIP3   OH247752   3.184   3.047  10.824  0.1176 -0.0031 -0.0562
 8754TIP3    H147753   3.182   2.995  10.903 -2.2361 -2.9157 -1.8202
 8754TIP3    H247754   3.112   3.110  10.834  0.3216  0.1583  0.3958
 8755TIP3   OH247755   2.811   1.707  13.657  0.1924 -0.0059  0.1506
 8755TIP3    H147756   2.777   1.650  13.726  1.0958 -0.0757  0.5552
 8755TIP3    H247757   2.820   1.649  13.581 -0.0977 -0.0998  0.1839
 8756TIP3   OH247758   4.069   2.009  16.204 -0.0009 -0.0045  0.4024
 8756TIP3    H147759   4.149   1.958  16.217 -0.1458 -0.0816  1.0213
 8756TIP3    H247760   4.063   2.020  16.109 -0.3064 -1.6936  0.1943
 8757TIP3   OH247761   3.092   2.898   0.454 -0.2876 -0.0782  0.0827
 8757TIP3    H147762   3.120   2.857   0.372 -1.2331 -2.1024  0.7319
 8757TIP3    H247763   3.012   2.853   0.478 -0.9688  1.6523  1.2735
 8758TIP3   OH247764   2.376   0.534  11.575  0.8847 -0.0614 -0.0516
 8758TIP3    H147765   2.423   0.450  11.578 -1.7681 -1.6891 -0.4833
 8758TIP3    H247766   2.284   0.510  11.586  0.1791  3.0575  1.9635
 8759TIP3   OH247767   2.210   2.271   2.572  0.6377  0.2025 -0.1083
 8759TIP3    H147768   2.225   2.214   2.496 -0.4086  1.3761 -1.2476
 8759TIP3    H247769   2.267   2.347   2.556  0.6921  0.2834  0.4704
 8760TIP3   OH247770   3.839   3.592   3.274 -0.7587  0.0788  0.6219
 8760TIP3    H147771   3.843   3.642   3.355  0.3497  0.8644  0.1113
 8760TIP3    H247772   3.834   3.501   3.302  2.7377  0.0423  1.7042
 8761TIP3   OH247773   1.968   3.474   2.152  0.0555  0.7424 -0.4411
 8761TIP3    H147774   2.006   3.517   2.075  0.9072  3.6076  1.3885
 8761TIP3    H247775   2.034   3.486   2.221 -1.9991  1.3470  1.5598
 8762TIP3   OH247776   2.937   1.926  11.673  0.7652 -0.0190  0.3187
 8762TIP3    H147777   2.948   1.975  11.591  2.9533 -0.9302 -0.0007
 8762TIP3    H247778   2.843   1.905  11.676  0.5987  0.1787 -1.8905
 8763TIP3   OH247779   6.603   6.039   0.798  0.1112 -0.2040 -0.1995
 8763TIP3    H147780   6.536   5.970   0.803 -0.7077  0.4314 -1.6153
 8763TIP3    H247781   6.619   6.050   0.704  0.0937  1.6199 -0.0382
 8764TIP3   OH247782   2.662   5.745  11.363  0.0763  0.0615 -0.4021
 8764TIP3    H147783   2.745   5.794  11.371  0.1150 -0.1044  0.2834
 8764TIP3    H247784   2.651   5.704  11.448 -0.2077 -0.7380 -0.8180
 8765TIP3   OH247785   2.606   5.443   3.186  0.1834 -0.4160  0.0613
 8765TIP3    H147786   2.679   5.492   3.224 -0.0789 -0.1839  0.2684
 8765TIP3    H247787   2.567   5.396   3.259  2.2040 -3.2893 -0.5586
 8766TIP3   OH247788   5.117   4.744   0.322 -0.3288  0.3088  0.2054
 8766TIP3    H147789   5.168   4.665   0.338 -0.5364 -0.5841 -2.9074
 8766TIP3    H247790   5.148   4.776   0.237 -0.5913  3.3373  1.1376
 8767TIP3   OH247791   3.179   6.061   4.996  0.0073 -0.1196  0.0141
 8767TIP3    H147792   3.268   6.041   5.026  0.5327  0.2010 -1.2662
 8767TIP3    H247793   3.168   6.010   4.916 -0.3357  1.1128 -0.7531
 8768TIP3   OH247794   6.234   5.809   3.449  0.2217 -0.5338 -0.1800
 8768TIP3    H147795   6.266   5.899   3.438  0.5173 -0.5538  0.4746
 8768TIP3    H247796   6.202   5.784   3.362 -0.3113  0.3760 -0.2584
 8769TIP3   OH247797   1.117   1.455  15.225  0.4311 -0.5713  0.0175
 8769TIP3    H147798   1.146   1.380  15.276  0.2961 -0.3964  0.3540
 8769TIP3    H247799   1.186   1.467  15.159  1.7571  0.5744  1.5355
 8770TIP3   OH247800   2.181   3.419   5.005 -0.3240 -0.6059 -0.4966
 8770TIP3    H147801   2.141   3.343   4.962 -0.8022 -1.2841  1.1019
 8770TIP3    H247802   2.253   3.382   5.056 -0.6911 -0.0113  0.4577
 8771TIP3   OH247803   4.615   3.969   5.720 -0.6975  0.1023 -0.2132
 8771TIP3    H147804   4.578   4.042   5.770 -1.0978 -0.7042  0.7022
 8771TIP3    H247805   4.637   3.904   5.786  3.2383  0.8358 -0.5348
 8772TIP3   OH247806   6.447   1.118   3.043 -0.1289 -0.1241 -0.1789
 8772TIP3    H147807   6.428   1.034   3.001  0.2238 -0.8054  0.9694
 8772TIP3    H247808   6.511   1.160   2.986 -0.3520 -0.6036 -0.7963
 8773TIP3   OH247809   6.319   5.223  13.207 -0.3724  0.0696  0.3244
 8773TIP3    H147810   6.343   5.192  13.119 -0.3076  1.7472 -0.2908
 8773TIP3    H247811   6.400   5.219  13.257 -0.1515  0.1711 -0.0215
 8774TIP3   OH247812   5.612   4.981   3.179  0.3622  0.2851 -0.1865
 8774TIP3    H147813   5.540   4.976   3.242 -0.3401 -2.6123 -1.0934
 8774TIP3    H247814   5.687   4.943   3.225  0.2170 -0.5157 -0.5977
 8775TIP3   OH247815   6.506   5.368  17.052  0.1297 -0.2055  0.0585
 8775TIP3    H147816   6.515   5.463  17.059  0.0076 -0.0455 -1.5194
 8775TIP3    H247817   6.569   5.343  16.985  0.6942 -1.3630  0.9861
 8776TIP3   OH247818   1.515   3.556  12.996 -0.9272  0.4769 -0.2429
 8776TIP3    H147819   1.527   3.596  13.082 -1.3991  0.5271 -0.1999
 8776TIP3    H247820   1.506   3.463  13.014 -1.0547  0.4906 -0.2362
 8777TIP3   OH247821   2.963   2.819  16.908 -0.7309 -0.4488 -0.2347
 8777TIP3    H147822   2.954   2.913  16.923 -3.3781 -0.5401 -0.5988
 8777TIP3    H247823   3.014   2.786  16.982 -0.0034  1.2197  0.0387
 8778TIP3   OH247824   4.757   4.440   4.935  0.1410 -0.0367  0.2329
 8778TIP3    H147825   4.691   4.377   4.905  1.5641 -0.8072 -1.4748
 8778TIP3    H247826   4.777   4.412   5.025  0.4857 -1.8578 -0.3656
 8779TIP3   OH247827   4.053   3.865   6.184 -0.2701 -0.0349  0.0894
 8779TIP3    H147828   3.976   3.826   6.226  1.5576 -0.5500  3.2776
 8779TIP3    H247829   4.076   3.939   6.241  1.0094  0.7494 -1.3754
 8780TIP3   OH247830   3.923   0.209   5.243 -0.1912 -0.0119  0.6042
 8780TIP3    H147831   3.845   0.155   5.233  0.0607 -0.2986  0.1440
 8780TIP3    H247832   3.906   0.286   5.189 -1.1202  1.0423  2.3064
 8781TIP3   OH247833   1.092   0.190   4.230 -0.0719 -0.0238 -0.0255
 8781TIP3    H147834   1.143   0.138   4.168  1.2168 -0.1971  1.1354
 8781TIP3    H247835   1.007   0.146   4.234  0.0066 -0.3232 -1.2360
 8782TIP3   OH247836   2.548   2.451   6.027  0.3770  0.1828  0.0118
 8782TIP3    H147837   2.537   2.357   6.040  0.4344  0.0586 -0.8044
 8782TIP3    H247838   2.576   2.483   6.112  1.1037 -0.6552  0.1050
 8783TIP3   OH247839   2.699   0.198  15.523 -0.6207 -0.1804 -0.9137
 8783TIP3    H147840   2.709   0.274  15.467 -1.3275  0.7253  0.1339
 8783TIP3    H247841   2.766   0.209  15.591  0.0940 -1.1518 -1.4481
 8784TIP3   OH247842   6.543   2.587   1.673  0.3890 -0.3081  0.2533
 8784TIP3    H147843   6.636   2.580   1.695  1.0018  0.4745 -1.8732
 8784TIP3    H247844   6.512   2.662   1.723  0.7662 -0.8007  1.2678
 8785TIP3   OH247845   2.168   5.748  14.712 -0.3335 -0.1483 -0.3210
 8785TIP3    H147846   2.086   5.779  14.674 -0.7230 -1.4824 -0.6346
 8785TIP3    H247847   2.144   5.718  14.799 -0.0225  0.1764 -0.1232
 8786TIP3   OH247848   1.371   2.107   2.738 -0.3894  0.2785  0.1046
 8786TIP3    H147849   1.359   2.078   2.647 -2.0218  0.7823  0.1280
 8786TIP3    H247850   1.463   2.131   2.743 -0.4667  1.1302 -1.6859
 8787TIP3   OH247851   4.876   0.741  11.877 -0.0992  0.1146  0.3310
 8787TIP3    H147852   4.793   0.778  11.906 -0.2997 -0.3771  0.4015
 8787TIP3    H247853   4.852   0.681  11.806  0.4946  2.1862 -1.7436
 8788TIP3   OH247854   5.893   0.885  12.264 -0.2848 -0.2288 -0.5238
 8788TIP3    H147855   5.870   0.886  12.171  0.9417  0.2678 -0.8418
 8788TIP3    H247856   5.955   0.812  12.272 -1.8280 -1.5164  0.3012
 8789TIP3   OH247857   4.706   3.696   3.358  0.0217  0.2258  0.3269
 8789TIP3    H147858   4.752   3.748   3.424 -0.4660  0.4254  0.5117
 8789TIP3    H247859   4.707   3.751   3.280  1.5161 -0.4310 -0.1615
 8790TIP3   OH247860   6.492   6.636  12.190  0.3271  0.4568  0.4476
 8790TIP3    H147861   6.477   6.722  12.151 -2.3275  1.5241  3.4049
 8790TIP3    H247862   6.551   6.654  12.264  0.5919 -0.4726  0.4699
 8791TIP3   OH247863   0.612   4.850  15.047  0.1177 -0.2016  0.2437
 8791TIP3    H147864   0.583   4.839  14.956  1.2062 -2.6811  0.0983
 8791TIP3    H247865   0.679   4.918  15.043 -0.2502  0.1197 -0.7088
 8792TIP3   OH247866   2.459   6.789   2.369 -0.6277 -0.5781 -0.0595
 8792TIP3    H147867   2.546   6.770   2.405  0.3531 -3.0538 -3.3029
 8792TIP3    H247868   2.399   6.740   2.426  0.0196  0.8250  1.9627
 8793TIP3   OH247869   2.806   4.147   0.400 -0.1768  0.1297  0.1584
 8793TIP3    H147870   2.768   4.183   0.480 -1.1072  0.3730 -0.3775
 8793TIP3    H247871   2.901   4.153   0.414 -0.3226  0.4516  1.1115
 8794TIP3   OH247872   0.315   5.486   5.319  0.2738  0.0061  0.0711
 8794TIP3    H147873   0.396   5.517   5.277 -0.3110  1.3927 -0.0921
 8794TIP3    H247874   0.330   5.499   5.412 -0.4306  2.1065 -0.0508
 8795TIP3   OH247875   5.958   0.468   0.748 -0.3308  0.1795  0.4883
 8795TIP3    H147876   5.869   0.504   0.747 -1.0067 -1.4053  0.4379
 8795TIP3    H247877   5.970   0.434   0.660 -0.2726 -0.9564  0.9188
 8796TIP3   OH247878   6.194   5.953   0.500  0.1076 -0.2429 -0.0499
 8796TIP3    H147879   6.113   5.941   0.451  0.7288 -0.7453 -0.9918
 8796TIP3    H247880   6.207   6.048   0.503 -1.1380 -0.0849  1.1834
 8797TIP3   OH247881   5.805   2.311   6.042 -0.0130  0.7356  0.2687
 8797TIP3    H147882   5.759   2.267   5.971  0.2234  1.4715 -0.3504
 8797TIP3    H247883   5.794   2.252   6.117 -0.8397  0.2772 -0.1931
 8798TIP3   OH247884   4.036   6.684   0.815 -0.2934  0.2016  0.2217
 8798TIP3    H147885   4.103   6.622   0.786 -1.6594 -0.8455 -0.9051
 8798TIP3    H247886   4.076   6.770   0.806  1.0653 -0.4194  0.0937
 8799TIP3   OH247887   6.636   2.090   1.180 -0.6398 -0.3510  0.2642
 8799TIP3    H147888   6.722   2.131   1.176 -0.9603  0.2358 -1.5342
 8799TIP3    H247889   6.650   2.010   1.229  0.6943  0.2827  0.9688
 8800TIP3   OH247890   5.527   4.254   6.101 -0.0404 -0.4281 -0.1443
 8800TIP3    H147891   5.534   4.349   6.091 -0.7807 -0.1677  1.4411
 8800TIP3    H247892   5.444   4.232   6.059  0.5925 -0.5312 -1.3632
 8801TIP3   OH247893   0.495   3.702   1.464  0.0626  0.6244 -0.2968
 8801TIP3    H147894   0.488   3.622   1.411 -0.7548  1.2725 -1.2076
 8801TIP3    H247895   0.405   3.722   1.489  0.1821  1.6195 -0.6325
 8802TIP3   OH247896   2.119   3.703  14.892  0.5774 -0.5655  0.5224
 8802TIP3    H147897   2.164   3.667  14.968  2.1279  3.2533  1.6470
 8802TIP3    H247898   2.030   3.718  14.922  0.7506 -0.5683  1.0444
 8803TIP3   OH247899   3.355   2.146   0.835  0.0778  0.4575  0.6975
 8803TIP3    H147900   3.403   2.114   0.759 -1.4443 -0.0730 -0.0766
 8803TIP3    H247901   3.263   2.143   0.809 -0.5220 -0.0961  2.6818
 8804TIP3   OH247902   5.696   1.137   6.441 -0.0148  0.3378 -0.3582
 8804TIP3    H147903   5.658   1.087   6.514  0.0935  0.1629 -0.4215
 8804TIP3    H247904   5.694   1.228   6.472  0.8115  0.1758  0.2183
 8805TIP3   OH247905   2.248   2.600  14.635  0.6231  0.3006 -0.0091
 8805TIP3    H147906   2.332   2.624  14.596  1.9054  1.4626  3.1248
 8805TIP3    H247907   2.254   2.631  14.725 -2.5680 -1.0708  0.8106
 8806TIP3   OH247908   3.740   6.435   1.167 -0.1591 -0.0433 -0.1574
 8806TIP3    H147909   3.807   6.429   1.098 -0.2860 -0.4810 -0.2432
 8806TIP3    H247910   3.708   6.525   1.161  0.4852  0.2001 -0.0557
 8807TIP3   OH247911   4.263   3.874  13.555 -0.2943 -0.0765 -0.0860
 8807TIP3    H147912   4.262   3.779  13.571 -1.6074 -0.1595 -0.5477
 8807TIP3    H247913   4.198   3.909  13.616  0.0406  0.5070 -0.0585
 8808TIP3   OH247914   1.764   5.952   2.494  0.1660 -0.2504 -0.2278
 8808TIP3    H147915   1.858   5.951   2.475  0.3388 -1.1760  0.5757
 8808TIP3    H247916   1.741   6.045   2.499  1.4953  0.0515  1.6244
 8809TIP3   OH247917   5.024   5.831   3.371  0.2217  0.8495 -0.1575
 8809TIP3    H147918   5.020   5.803   3.463 -0.2804  0.2850 -0.3449
 8809TIP3    H247919   5.117   5.847   3.355  0.7168 -1.8251 -0.3488
 8810TIP3   OH247920   4.475   2.225  16.353 -0.2237  0.1395 -0.6239
 8810TIP3    H147921   4.480   2.304  16.301  1.1743  1.1602  0.9402
 8810TIP3    H247922   4.566   2.201  16.370 -0.6169 -1.4068 -0.4700
 8811TIP3   OH247923   2.251   4.098   3.530 -0.0529  0.4853  0.3601
 8811TIP3    H147924   2.249   4.058   3.443 -0.3414 -0.3723  0.7404
 8811TIP3    H247925   2.208   4.182   3.519 -2.1004 -0.5269  0.0901
 8812TIP3   OH247926   6.641   5.816  15.361  0.1737  0.1972  0.1126
 8812TIP3    H147927   6.711   5.754  15.381  0.6589  0.1433 -1.5944
 8812TIP3    H247928   6.576   5.765  15.314  0.9715  1.0972 -2.0849
 8813TIP3   OH247929   6.698   5.462  13.729  0.2054  0.0954 -0.1095
 8813TIP3    H147930   6.659   5.497  13.809  0.4908  1.7079 -0.6235
 8813TIP3    H247931   6.709   5.539  13.673 -0.3960 -1.0510 -1.8805
 8814TIP3   OH247932   5.938   1.991   1.437 -0.0352  0.8445  0.3693
 8814TIP3    H147933   5.933   2.087   1.436  0.2588  0.8587 -0.0324
 8814TIP3    H247934   5.872   1.964   1.373  1.1788  0.8549 -0.9571
 8815TIP3   OH247935   6.571   5.078  13.660  0.3760 -0.6274  0.3158
 8815TIP3    H147936   6.656   5.036  13.651 -0.2972 -1.6918 -1.5482
 8815TIP3    H247937   6.518   5.014  13.707  0.2957 -0.4002  0.5379
 8816TIP3   OH247938   2.705   1.468  14.178 -0.1640 -0.0448  0.1602
 8816TIP3    H147939   2.651   1.453  14.100 -0.3518  1.3792 -0.0085
 8816TIP3    H247940   2.740   1.556  14.166  1.4105 -0.5532  0.7532
 8817TIP3   OH247941   0.652   5.052  12.254 -0.1265  0.6713 -0.1804
 8817TIP3    H147942   0.699   4.980  12.296 -0.3582  1.3908  1.3897
 8817TIP3    H247943   0.705   5.074  12.177  0.6340 -0.3107  0.0442
 8818TIP3   OH247944   3.036   1.990   3.958  0.0402 -0.0042 -0.2964
 8818TIP3    H147945   2.984   1.986   4.038  1.0858 -0.6387  0.3760
 8818TIP3    H247946   3.086   1.908   3.958  1.5079  0.8607 -0.5803
 8819TIP3   OH247947   3.910   1.236  12.236 -0.0612  0.3414  0.2243
 8819TIP3    H147948   3.833   1.290  12.217  0.4686  1.7534  1.9216
 8819TIP3    H247949   3.873   1.153  12.267 -0.8828 -0.4162 -2.5030
 8820TIP3   OH247950   3.884   0.982  12.415  0.0093 -0.6749  0.4174
 8820TIP3    H147951   3.946   0.943  12.354  0.1554 -0.3026  0.3260
 8820TIP3    H247952   3.823   0.911  12.436 -0.5413 -0.5961 -0.7954
 8821TIP3   OH247953   2.269   2.347  12.437 -0.2921 -0.3607 -0.0485
 8821TIP3    H147954   2.352   2.390  12.419 -0.9244  0.5914 -0.8174
 8821TIP3    H247955   2.209   2.419  12.456 -1.1181 -0.9795 -0.2666
 8822TIP3   OH247956   1.240   4.173  16.207 -0.3818 -0.3855  0.1178
 8822TIP3    H147957   1.177   4.134  16.267 -1.2720  2.4200  1.2104
 8822TIP3    H247958   1.185   4.217  16.142  0.4617  0.5566  0.0250
 8823TIP3   OH247959   4.062   5.860  15.671  0.8230  0.6854 -0.1715
 8823TIP3    H147960   3.972   5.875  15.699  0.3988  0.3531 -1.2716
 8823TIP3    H247961   4.114   5.861  15.751 -0.1890  0.7067  0.4926
 8824TIP3   OH247962   5.206   4.127  11.500  0.1177 -0.1693 -0.0896
 8824TIP3    H147963   5.293   4.112  11.537  0.1111 -0.7791 -0.3076
 8824TIP3    H247964   5.154   4.157  11.574  0.0789 -1.4669  0.4431
 8825TIP3   OH247965   5.326   3.976  16.762  0.2935  0.7488 -0.4221
 8825TIP3    H147966   5.417   3.969  16.789  0.1574  1.8742  0.4039
 8825TIP3    H247967   5.289   4.044  16.820 -1.1313  0.1081 -0.5441
 8826TIP3   OH247968   3.862   4.983   3.546  0.0762 -0.1033  0.1918
 8826TIP3    H147969   3.950   5.014   3.521  0.3509 -0.6159  0.5031
 8826TIP3    H247970   3.845   5.027   3.629 -0.2477  0.5112 -0.1893
 8827TIP3   OH247971   6.543   3.026  10.780  0.6728  0.2835  0.3254
 8827TIP3    H147972   6.461   2.978  10.782  0.2525  0.9953  0.4275
 8827TIP3    H247973   6.526   3.106  10.830  2.0684 -0.5414  2.2066
 8828TIP3   OH247974   1.472   3.317  11.331  0.0023 -0.1645 -0.2035
 8828TIP3    H147975   1.456   3.341  11.239 -0.3139 -2.1761 -0.7223
 8828TIP3    H247976   1.392   3.345  11.377 -1.4054 -2.2440 -1.2168
 8829TIP3   OH247977   1.468   4.721  13.850  0.3879  0.3060  0.0564
 8829TIP3    H147978   1.385   4.750  13.811  0.2505  0.7739  0.6879
 8829TIP3    H247979   1.532   4.731  13.780  0.1017  0.9240 -0.1229
 8830TIP3   OH247980   4.059   2.342  15.269 -0.4775  0.0823 -0.1050
 8830TIP3    H147981   3.966   2.321  15.280  0.2031 -2.6974  1.3887
 8830TIP3    H247982   4.094   2.267  15.220  1.2739  0.1856  0.9114
 8831TIP3   OH247983   5.975   4.581  11.288  0.5163 -0.4329  0.2130
 8831TIP3    H147984   5.925   4.533  11.354  0.6117 -0.4812  0.2503
 8831TIP3    H247985   6.037   4.634  11.338  1.2169 -1.1675  0.1348
 8832TIP3   OH247986   5.227   4.698   2.334  0.4687 -0.4381 -0.0555
 8832TIP3    H147987   5.263   4.675   2.249 -0.7038  0.0081 -0.6876
 8832TIP3    H247988   5.133   4.699   2.321  0.3232  0.8701  0.9326
 8833TIP3   OH247989   5.130   2.210  13.876 -0.0144  0.5217  0.4883
 8833TIP3    H147990   5.136   2.302  13.902 -1.2595  0.3364  1.5469
 8833TIP3    H247991   5.041   2.184  13.901 -0.5297 -0.3362 -1.9560
 8834TIP3   OH247992   1.175   2.856  12.574  0.0689  0.2442 -0.4942
 8834TIP3    H147993   1.108   2.913  12.537 -0.2166  0.2640  0.0430
 8834TIP3    H247994   1.151   2.768  12.546  0.2462  0.3361 -0.9339
 8835TIP3   OH247995   5.127   3.794   5.349 -0.1392 -0.1097  0.8405
 8835TIP3    H147996   5.129   3.738   5.271  2.0928 -0.0519  0.8067
 8835TIP3    H247997   5.171   3.875   5.322 -1.1770  0.7421  1.5982
 8836TIP3   OH247998   4.387   5.141  12.765  0.1938 -0.1798 -0.1006
 8836TIP3    H147999   4.326   5.069  12.782 -0.2260  0.3996  0.9791
 8836TIP3    H248000   4.354   5.181  12.685 -0.8494  0.0982  0.4448
 8837TIP3   OH248001   2.547   6.437  11.289  0.2201  0.5309 -0.2013
 8837TIP3    H148002   2.518   6.405  11.374  1.3462  0.7512  0.2816
 8837TIP3    H248003   2.603   6.368  11.255 -0.4894  0.3001 -0.9236
 8838TIP3   OH248004   2.213   4.713  12.812  0.0350 -0.7416  0.3133
 8838TIP3    H148005   2.215   4.746  12.722 -1.0839  2.2913  1.2598
 8838TIP3    H248006   2.302   4.726  12.844 -0.3273  1.5448  0.6083
 8839TIP3   OH248007   0.563   2.384  14.769 -0.0147  0.0944 -0.0340
 8839TIP3    H148008   0.524   2.298  14.781  1.7656 -0.8623 -0.7376
 8839TIP3    H248009   0.526   2.437  14.839 -0.2160 -1.5661  1.1653
 8840TIP3   OH248010   1.922   3.004   2.415 -0.2085  0.1355 -0.5651
 8840TIP3    H148011   1.918   3.044   2.503  0.8470  0.9649 -0.8724
 8840TIP3    H248012   1.858   3.053   2.364  1.7826  2.2787 -1.2163
 8841TIP3   OH248013   2.853   1.638   1.420 -0.0779  0.0751  0.4555
 8841TIP3    H148014   2.894   1.722   1.398 -0.3559  0.3651  1.0366
 8841TIP3    H248015   2.764   1.645   1.385  0.3143 -0.5283 -0.7454
 8842TIP3   OH248016   1.955   0.629   2.643  0.7321 -0.2736 -0.3895
 8842TIP3    H148017   1.883   0.666   2.693  0.5191 -1.0868 -0.0774
 8842TIP3    H248018   1.934   0.649   2.552  0.6325  0.3726 -0.2288
 8843TIP3   OH248019   2.056   0.232  11.308  0.1909  0.1073  0.5911
 8843TIP3    H148020   1.970   0.207  11.276 -0.1545  0.0424  1.5337
 8843TIP3    H248021   2.104   0.259  11.230 -0.7234  0.2640  0.0711
 8844TIP3   OH248022   6.641   1.808   1.870 -0.0570 -0.4035 -0.4193
 8844TIP3    H148023   6.595   1.870   1.814 -0.3198 -1.2481 -1.1519
 8844TIP3    H248024   6.573   1.769   1.924  0.1882  0.3717  0.4895
 8845TIP3   OH248025   5.720   5.252  13.138  0.3285  0.5573  0.2626
 8845TIP3    H148026   5.787   5.190  13.108  0.2806 -0.0799  1.4020
 8845TIP3    H248027   5.706   5.228  13.230 -0.1605  1.8557  0.5408
 8846TIP3   OH248028   6.560   0.616   0.336  0.7217 -0.3500  0.4165
 8846TIP3    H148029   6.614   0.652   0.407 -1.5228 -1.0440  2.6511
 8846TIP3    H248030   6.570   0.521   0.344 -2.2067 -0.6385  2.2748
 8847TIP3   OH248031   1.572   6.257  12.968 -0.5712  0.6885 -0.1362
 8847TIP3    H148032   1.666   6.240  12.972 -0.3223  1.4428 -1.9632
 8847TIP3    H248033   1.538   6.223  13.051  1.2207 -0.0989  0.3192
 8848TIP3   OH248034   5.628   6.490  12.513 -0.1929 -0.3347 -0.3841
 8848TIP3    H148035   5.547   6.479  12.464 -0.4220 -0.1983 -0.0420
 8848TIP3    H248036   5.599   6.501  12.604  0.1650  0.6145 -0.3804
 8849TIP3   OH248037   0.545   4.053   5.916  0.0749  0.4355  0.1990
 8849TIP3    H148038   0.620   3.997   5.899 -1.1270 -1.1564 -0.0122
 8849TIP3    H248039   0.566   4.136   5.873  2.1337  0.3919  1.0235
 8850TIP3   OH248040   4.422   5.505  16.951  0.3880 -0.0299 -0.6804
 8850TIP3    H148041   4.369   5.467  17.021 -0.8313  3.1200  0.2922
 8850TIP3    H248042   4.509   5.515  16.989  0.1534  0.1331 -0.1755
 8851TIP3   OH248043   2.951   0.452   3.945  0.0633 -0.3871  1.1798
 8851TIP3    H148044   2.954   0.444   3.849  1.2764  0.1070  1.1617
 8851TIP3    H248045   3.008   0.526   3.964 -1.1076  0.2800  2.2154
 8852TIP3   OH248046   0.235   1.479   6.215  0.6857  0.5993  0.4279
 8852TIP3    H148047   0.327   1.452   6.206  0.4942 -0.5511  1.5582
 8852TIP3    H248048   0.197   1.415   6.275 -1.6865 -0.9118 -2.3922
 8853TIP3   OH248049   1.945   0.831   0.083 -0.4762 -0.2563  0.0728
 8853TIP3    H148050   1.970   0.915   0.121 -0.6115  0.0712 -0.5604
 8853TIP3    H248051   1.988   0.766   0.140  1.5704  0.2737 -0.7647
 8854TIP3   OH248052   1.889   6.678   5.364  0.4374  0.1269  0.7380
 8854TIP3    H148053   1.830   6.641   5.430 -0.2447  0.5704  0.3904
 8854TIP3    H248054   1.925   6.602   5.319 -1.4584 -0.1601 -0.4109
 8855TIP3   OH248055   0.491   1.873  13.185  0.6099  0.1975  0.1226
 8855TIP3    H148056   0.426   1.910  13.126 -0.2645 -0.5032  0.6164
 8855TIP3    H248057   0.561   1.938  13.188  1.2799 -0.2914 -2.6438
 8856TIP3   OH248058   1.086   6.401   5.394 -0.1881 -0.1831  0.4959
 8856TIP3    H148059   1.067   6.334   5.328 -1.2524  0.2932  0.2892
 8856TIP3    H248060   1.089   6.353   5.476 -0.4617 -0.5564  0.2931
 8857TIP3   OH248061   3.456   3.074  12.103 -1.0472  0.1522  0.0198
 8857TIP3    H148062   3.387   3.136  12.080 -0.0096  0.8717 -1.3201
 8857TIP3    H248063   3.507   3.120  12.170 -1.4855 -0.1174  0.5437
 8858TIP3   OH248064   4.856   6.763  14.181 -0.6675 -0.6561 -0.1728
 8858TIP3    H148065   4.940   6.803  14.157  0.6454 -1.7902  2.1995
 8858TIP3    H248066   4.803   6.769  14.101  1.7550 -0.1855 -1.8630
 8859TIP3   OH248067   6.619   4.268   3.505 -0.1048 -0.4144  0.4538
 8859TIP3    H148068   6.565   4.189   3.506  1.6624 -1.7785 -1.5403
 8859TIP3    H248069   6.624   4.293   3.413 -0.1285  1.7391  0.9739
 8860TIP3   OH248070   5.981   5.574   1.888  0.3327  0.0056  0.1929
 8860TIP3    H148071   6.003   5.481   1.880  0.7295  0.0209  1.0100
 8860TIP3    H248072   5.900   5.574   1.939 -0.4802  0.0518 -1.0481
 8861TIP3   OH248073   0.679   2.470  13.149  0.3239 -0.2575  0.3049
 8861TIP3    H148074   0.664   2.380  13.179 -1.3648  0.2378  1.1344
 8861TIP3    H248075   0.752   2.502  13.202  0.8946 -1.1210  0.0420
 8862TIP3   OH248076   1.999   3.502   0.417 -0.2646  0.3321  0.6708
 8862TIP3    H148077   1.997   3.504   0.321 -1.9128 -2.4814  0.5311
 8862TIP3    H248078   1.983   3.592   0.444 -1.7554  0.8530 -1.7056
 8863TIP3   OH248079   5.466   5.547  14.267  0.1705 -0.2550 -0.1184
 8863TIP3    H148080   5.455   5.474  14.206  0.8186 -0.3565 -0.1242
 8863TIP3    H248081   5.556   5.538  14.299 -0.7280 -1.3002  2.2882
 8864TIP3   OH248082   1.453   1.873  15.454  0.0889  0.0806 -0.1369
 8864TIP3    H148083   1.384   1.892  15.390  0.6499 -2.0711 -1.4787
 8864TIP3    H248084   1.526   1.929  15.427  0.2103 -0.5702 -1.2350
 8865TIP3   OH248085   3.150   0.368   0.242 -0.0247  0.1314 -0.0634
 8865TIP3    H148086   3.121   0.373   0.151 -0.0386 -1.5102 -0.1715
 8865TIP3    H248087   3.245   0.377   0.238  0.1837 -1.8353 -0.4704
 8866TIP3   OH248088   3.027   2.447   5.632 -0.7348  0.2052 -0.6660
 8866TIP3    H148089   2.971   2.516   5.596 -0.1596  1.3323  0.5057
 8866TIP3    H248090   3.114   2.464   5.594 -0.8492 -0.6207 -1.3121
 8867TIP3   OH248091   5.959   2.575  13.287  0.2534  0.2227 -1.2002
 8867TIP3    H148092   5.895   2.555  13.355  0.3139 -1.1951 -1.5179
 8867TIP3    H248093   5.993   2.661  13.310 -1.6315  0.9468 -0.9283
 8868TIP3   OH248094   4.849   0.779   5.519  0.2439 -0.2884  0.1838
 8868TIP3    H148095   4.848   0.702   5.576  0.8034 -0.0015  0.5851
 8868TIP3    H248096   4.756   0.801   5.508 -0.0551 -2.0310 -1.3327
 8869TIP3   OH248097   5.314   1.076   3.885 -0.5276  0.2346 -0.2641
 8869TIP3    H148098   5.358   1.161   3.883  2.0359 -0.9791  0.0832
 8869TIP3    H248099   5.285   1.062   3.795 -0.9703  1.4411 -0.3270
 8870TIP3   OH248100   0.387   4.450   2.895  0.1527 -0.2745  0.0920
 8870TIP3    H148101   0.380   4.384   2.964  0.0537 -0.5886 -0.2114
 8870TIP3    H248102   0.307   4.438   2.844 -0.0256  0.3106  0.2318
 8871TIP3   OH248103   3.344   3.782   0.766 -0.8150 -0.0950 -0.0268
 8871TIP3    H148104   3.353   3.812   0.675  1.1844 -4.3546 -1.4972
 8871TIP3    H248105   3.419   3.820   0.811 -0.7112  0.4711 -0.6622
 8872TIP3   OH248106   5.986   2.365  16.464 -0.3024 -0.2274  0.4420
 8872TIP3    H148107   5.913   2.345  16.522 -1.2302  1.7018  0.0249
 8872TIP3    H248108   5.953   2.344  16.376  1.4758 -4.2564  0.4814
 8873TIP3   OH248109   5.149   2.856   6.004 -0.4130  0.1044 -0.4027
 8873TIP3    H148110   5.156   2.929   5.943 -0.7967  2.4582  2.1938
 8873TIP3    H248111   5.064   2.816   5.984  0.2465 -0.3696 -2.5209
 8874TIP3   OH248112   5.317   1.587  16.386  0.2721 -0.0539  0.3107
 8874TIP3    H148113   5.263   1.511  16.408 -1.8571  0.7977 -1.5797
 8874TIP3    H248114   5.256   1.651  16.350  2.4361  1.2464 -1.3776
 8875TIP3   OH248115   5.388   4.907   5.115 -0.0834 -0.0181 -0.4989
 8875TIP3    H148116   5.350   4.989   5.146 -0.4215 -0.1060 -0.6695
 8875TIP3    H248117   5.380   4.847   5.188  0.6371  0.2462 -0.1969
 8876TIP3   OH248118   2.594   5.051   5.603 -0.1500 -0.1360  0.1412
 8876TIP3    H148119   2.647   5.028   5.680  0.5770  1.8168  0.2739
 8876TIP3    H248120   2.506   5.065   5.638  0.1709  0.7181  0.6281
 8877TIP3   OH248121   6.303   3.174  16.253  0.0549  0.1907 -0.0481
 8877TIP3    H148122   6.221   3.186  16.300  0.1152  1.2966 -0.2097
 8877TIP3    H248123   6.278   3.129  16.172 -0.1667 -0.8815  0.5901
 8878TIP3   OH248124   5.514   0.009   4.683 -0.6069 -0.6872 -0.1918
 8878TIP3    H148125   5.488   0.003   4.591 -1.9483 -0.0705  0.1167
 8878TIP3    H248126   5.494   0.099   4.708 -0.6296 -0.9532  0.8115
 8879TIP3   OH248127   5.624   6.572   1.263  0.6394  0.3938  0.3928
 8879TIP3    H148128   5.622   6.480   1.237  0.4730  0.7351 -0.8295
 8879TIP3    H248129   5.540   6.586   1.307 -0.5401  0.6169 -1.7925
 8880TIP3   OH248130   4.068   4.681  10.950 -0.5023  0.0924 -0.8746
 8880TIP3    H148131   4.036   4.594  10.927 -1.9736  0.3042  0.2326
 8880TIP3    H248132   4.032   4.738  10.882 -0.1744 -0.0564 -1.1739
 8881TIP3   OH248133   4.833   0.102  17.159 -0.3421 -0.0765  0.3569
 8881TIP3    H148134   4.788   0.147  17.088  0.4419  0.4396  0.1716
 8881TIP3    H248135   4.774   0.031  17.185  0.0256 -1.2853 -1.8792
 8882TIP3   OH248136   5.486   0.440  17.217 -0.7310 -0.4271  0.3853
 8882TIP3    H148137   5.527   0.359  17.185 -1.3086 -0.9357  0.9124
 8882TIP3    H248138   5.546   0.471  17.285  0.3657  0.5159 -0.9697
 8883TIP3   OH248139   1.603   5.420   2.468  1.0020  0.0441  0.0407
 8883TIP3    H148140   1.581   5.335   2.508  0.4992  0.5688  0.9191
 8883TIP3    H248141   1.635   5.398   2.381  0.1724 -0.9977 -0.0158
 8884TIP3   OH248142   3.043   5.703   2.723  0.0775  0.1920  0.4861
 8884TIP3    H148143   3.103   5.669   2.656 -0.2078 -0.4214  0.5400
 8884TIP3    H248144   3.082   5.677   2.806  0.1162  0.4303  0.5441
 8885TIP3   OH248145   1.656   0.589   0.187  0.1027  0.0173 -0.0796
 8885TIP3    H148146   1.626   0.612   0.099  0.5434 -1.0161 -0.5125
 8885TIP3    H248147   1.576   0.565   0.233  0.0578 -1.2532 -0.7750
 8886TIP3   OH248148   5.388   1.375   3.950  0.6724  0.1452  0.2707
 8886TIP3    H148149   5.423   1.417   4.029  2.0231  0.2034 -0.3144
 8886TIP3    H248150   5.298   1.351   3.972  1.0978 -0.0563  1.9044
 8887TIP3   OH248151   6.347   3.920   5.019 -0.5302 -0.6158 -0.0548
 8887TIP3    H148152   6.431   3.963   5.041 -0.5745 -0.6350  0.1577
 8887TIP3    H248153   6.298   3.987   4.972  1.0710 -1.7529 -3.6840
 8888TIP3   OH248154   1.171   6.672  10.415  0.4561 -0.1056 -0.2051
 8888TIP3    H148155   1.175   6.714  10.501 -2.5998 -0.6386  0.3269
 8888TIP3    H248156   1.149   6.581  10.433 -1.9659  0.1347 -1.4820
 8889TIP3   OH248157   2.940   0.824  15.988  0.0567 -0.8146 -0.1738
 8889TIP3    H148158   2.965   0.735  15.963  0.3414 -0.7078 -0.2695
 8889TIP3    H248159   3.012   0.855  16.043 -0.5391 -1.0270  0.7539
 8890TIP3   OH248160   4.393   1.697   1.996  0.4295  1.0436 -0.3972
 8890TIP3    H148161   4.371   1.700   2.089  0.2804 -2.2010 -0.2319
 8890TIP3    H248162   4.379   1.787   1.966 -1.2198  1.8157  2.3044
 8891TIP3   OH248163   5.947   2.410   1.105  0.3551  0.4472 -0.1216
 8891TIP3    H148164   5.859   2.374   1.116  0.3594  0.0188 -1.3708
 8891TIP3    H248165   6.000   2.362   1.168 -0.0872 -0.1035 -0.1626
 8892TIP3   OH248166   6.217   4.809  14.719 -0.8727  0.3722 -0.3798
 8892TIP3    H148167   6.201   4.895  14.759 -2.3549  0.0160 -0.1448
 8892TIP3    H248168   6.129   4.773  14.703 -0.3552  0.0278 -2.9789
 8893TIP3   OH248169   1.727   2.601   4.859  0.3741  0.0334  0.1725
 8893TIP3    H148170   1.722   2.586   4.954  1.7952 -0.4328  0.1939
 8893TIP3    H248171   1.773   2.684   4.850 -0.4767  0.4899 -0.1145
 8894TIP3   OH248172   2.994   6.543  10.852  0.8127 -0.0990 -0.0034
 8894TIP3    H148173   2.904   6.555  10.823  0.1838 -0.2004  1.7857
 8894TIP3    H248174   3.013   6.621  10.905  1.3947 -0.5963  0.5319
 8895TIP3   OH248175   3.728   3.810  15.376  0.2640 -0.1349  0.0662
 8895TIP3    H148176   3.815   3.827  15.342  0.1922  1.6785  0.6800
 8895TIP3    H248177   3.715   3.877  15.444 -0.3293 -2.4056  2.3497
 8896TIP3   OH248178   6.124   0.803   2.127  0.8825  0.1804  0.1629
 8896TIP3    H148179   6.110   0.815   2.220 -1.3235  2.2342 -0.3349
 8896TIP3    H248180   6.209   0.843   2.110  2.1923 -1.8444  1.4850
 8897TIP3   OH248181   5.011   4.645  16.833  0.1801  0.6590  0.7230
 8897TIP3    H148182   4.931   4.594  16.819 -0.0440  0.8645  1.1964
 8897TIP3    H248183   4.999   4.683  16.920  0.5579  1.1201  0.5797
 8898TIP3   OH248184   3.569   5.154   5.079 -0.2213  0.1590  0.3087
 8898TIP3    H148185   3.605   5.091   5.017  0.6176  1.3699 -0.4711
 8898TIP3    H248186   3.486   5.116   5.106 -0.1464 -0.8562 -0.8240
 8899TIP3   OH248187   0.036   5.631  15.951 -0.6999  0.9107 -0.5515
 8899TIP3    H148188  -0.047   5.659  15.990 -0.7828 -0.4366  0.3021
 8899TIP3    H248189   0.103   5.673  16.004 -0.8326  1.6447 -0.9630
 8900TIP3   OH248190   2.773   3.326   4.676  0.4995 -0.6409 -0.3168
 8900TIP3    H148191   2.838   3.386   4.640 -1.3015 -0.2049 -3.1855
 8900TIP3    H248192   2.728   3.376   4.743  1.4765 -0.1218 -0.0289
 8901TIP3   OH248193   3.325   4.015  16.448 -0.0330 -0.3931 -0.1235
 8901TIP3    H148194   3.359   4.104  16.444  1.1331 -0.7268  1.2846
 8901TIP3    H248195   3.326   3.985  16.357 -1.9680  1.5196 -0.8477
 8902TIP3   OH248196   3.910   2.240   4.001  0.2142  0.0194  0.1150
 8902TIP3    H148197   3.823   2.204   4.020 -0.8109  1.2443 -1.9801
 8902TIP3    H248198   3.907   2.328   4.039  1.6244 -0.8582  2.5081
 8903TIP3   OH248199   5.068   5.617   3.858  0.3191  0.4047 -0.6243
 8903TIP3    H148200   5.049   5.658   3.943 -2.1200 -0.8893 -0.4388
 8903TIP3    H248201   5.090   5.526   3.879 -2.2309 -0.4742 -1.3803
 8904TIP3   OH248202   5.422   0.285   4.732 -0.0334 -0.1709 -0.5440
 8904TIP3    H148203   5.340   0.265   4.686 -0.7865 -0.2788  0.7749
 8904TIP3    H248204   5.393   0.331   4.811  1.0827 -1.3437  0.5798
 8905TIP3   OH248205   0.951   5.296  15.529  0.0031  0.2943 -0.5674
 8905TIP3    H148206   0.971   5.385  15.558  0.4635  0.5190 -1.5444
 8905TIP3    H248207   1.036   5.254  15.518  0.0492  0.9459 -3.7673
 8906TIP3   OH248208   4.476   5.310  14.565  0.4228  0.7849  0.2478
 8906TIP3    H148209   4.471   5.223  14.605  0.0192  0.5849 -0.2271
 8906TIP3    H248210   4.471   5.294  14.471 -0.3772  1.3662  0.1778
 8907TIP3   OH248211   3.217   6.015   2.700  0.0093 -0.0533 -0.0735
 8907TIP3    H148212   3.263   6.030   2.783  1.0907 -0.9610 -0.4760
 8907TIP3    H248213   3.133   5.976   2.726 -0.4290  1.3218  0.6631
 8908TIP3   OH248214   1.428   2.724   4.237  0.0431  0.3855  0.2833
 8908TIP3    H148215   1.394   2.696   4.322 -0.3727 -0.1775 -0.0660
 8908TIP3    H248216   1.366   2.790   4.206  0.5438  1.0638  0.7040
 8909TIP3   OH248217   2.804   5.342  14.709  0.4252  0.6285 -0.0867
 8909TIP3    H148218   2.854   5.337  14.627  1.4298 -1.3025  0.5541
 8909TIP3    H248219   2.867   5.375  14.773  1.0387 -1.8619  0.7384
 8910TIP3   OH248220   3.882   1.202   5.429  0.3390  0.3916  0.0884
 8910TIP3    H148221   3.960   1.257   5.438  0.6450 -0.0758  0.3005
 8910TIP3    H248222   3.813   1.252   5.472  0.2211  1.4060 -1.2227
 8911TIP3   OH248223   2.088   0.881  11.740  0.3966 -0.3246  0.0703
 8911TIP3    H148224   2.055   0.844  11.658 -0.0991  1.0329 -0.3755
 8911TIP3    H248225   2.013   0.877  11.799  0.2855  0.1081 -0.0366
 8912TIP3   OH248226   5.903   1.972   0.604  0.3002 -0.2329 -0.0894
 8912TIP3    H148227   5.976   1.973   0.666  1.6279  0.4643 -1.5719
 8912TIP3    H248228   5.886   1.879   0.588 -1.2596 -0.5110  2.5427
 8913TIP3   OH248229   1.875   1.055   3.328 -0.0893 -0.3693 -0.0218
 8913TIP3    H148230   1.793   1.093   3.360  0.5621 -0.2373  1.6319
 8913TIP3    H248231   1.861   1.041   3.235 -1.4193  1.1443 -0.0971
 8914TIP3   OH248232   3.870   0.036  14.608  0.2910  0.1076 -0.3370
 8914TIP3    H148233   3.925   0.031  14.530  0.2675 -1.1629 -0.2814
 8914TIP3    H248234   3.916  -0.016  14.674  0.2340  1.0407  0.4769
 8915TIP3   OH248235   1.809   0.175  11.189 -0.4832 -0.1331 -0.0600
 8915TIP3    H148236   1.736   0.227  11.155 -0.0689 -0.2839 -1.2255
 8915TIP3    H248237   1.845   0.131  11.112  0.6515 -0.3041  0.5507
 8916TIP3   OH248238   2.062   5.112  15.045  0.1828  0.4207 -0.1011
 8916TIP3    H148239   2.064   5.093  14.951 -0.0257 -1.8405  0.2882
 8916TIP3    H248240   2.145   5.076  15.078  0.3594  1.4041  0.5705
 8917TIP3   OH248241   6.206   1.570   5.861 -0.1820 -0.4954 -0.4468
 8917TIP3    H148242   6.221   1.610   5.775 -1.3435  0.8431 -0.0549
 8917TIP3    H248243   6.243   1.482   5.852 -1.2078 -0.7889 -2.6719
 8918TIP3   OH248244   5.821   5.262  11.198 -0.1259 -0.1938  0.1145
 8918TIP3    H148245   5.865   5.219  11.271  1.1586 -1.3153 -1.2249
 8918TIP3    H248246   5.759   5.196  11.165 -1.1266  0.5159  0.5348
 8919TIP3   OH248247   0.643   2.590   3.441  0.1123 -0.1580 -0.3641
 8919TIP3    H148248   0.619   2.641   3.363  0.4043  0.8754  0.1991
 8919TIP3    H248249   0.566   2.536   3.459 -1.4824  2.3079  0.7764
 8920TIP3   OH248250   1.246   0.929  12.575  1.0650  0.9242 -0.5482
 8920TIP3    H148251   1.300   0.924  12.655  1.4052  0.2898 -0.8126
 8920TIP3    H248252   1.217   1.020  12.572  2.4740  1.3967 -0.6179
 8921TIP3   OH248253   0.683   0.203   1.113  0.1186  0.1101  0.3450
 8921TIP3    H148254   0.709   0.212   1.021  0.3538  0.2283  0.4239
 8921TIP3    H248255   0.756   0.239   1.163  1.1007 -2.2108  0.6752
 8922TIP3   OH248256   6.556   0.154  14.920  0.1806 -0.4387  0.0485
 8922TIP3    H148257   6.573   0.109  15.002  0.3038 -0.2757  0.1112
 8922TIP3    H248258   6.633   0.137  14.866  0.3597 -0.0431  0.1846
 8923TIP3   OH248259   6.201   6.652  17.125  0.5951 -0.0487 -0.2225
 8923TIP3    H148260   6.126   6.678  17.071 -0.4781  0.9892  1.6561
 8923TIP3    H248261   6.234   6.734  17.161  1.0100 -0.7260  0.9933
 8924TIP3   OH248262   5.880   3.114  14.075 -0.1248  0.6491  0.2636
 8924TIP3    H148263   5.897   3.182  14.140 -1.2056 -0.7487  2.1037
 8924TIP3    H248264   5.798   3.141  14.034  0.4099  1.3824 -0.3696
 8925TIP3   OH248265   5.507   5.082  16.761 -0.0518  0.1737 -0.1268
 8925TIP3    H148266   5.552   4.998  16.773 -0.5490  0.0161  0.7236
 8925TIP3    H248267   5.427   5.075  16.813  0.2320  1.4209  0.5336
 8926TIP3   OH248268   4.036   5.432   6.454  0.0501 -0.1856 -0.2718
 8926TIP3    H148269   3.997   5.450   6.539  0.4142 -0.5445 -0.0261
 8926TIP3    H248270   3.986   5.356   6.422 -0.8462  0.6323 -0.8865
 8927TIP3   OH248271   6.023   0.797  14.828 -0.1680 -0.8686  0.0185
 8927TIP3    H148272   5.993   0.769  14.914 -0.6605 -2.3209 -0.5777
 8927TIP3    H248273   5.950   0.774  14.769 -0.1325  0.7317 -0.6937
 8928TIP3   OH248274   2.620   2.107  17.194  0.3991 -0.2355 -0.3987
 8928TIP3    H148275   2.643   2.178  17.135  1.2881  1.3583  1.7746
 8928TIP3    H248276   2.528   2.122  17.215  0.2180 -0.5261 -0.9501
 8929TIP3   OH248277   0.699   0.761  16.214  0.4490 -0.1267  0.7262
 8929TIP3    H148278   0.775   0.706  16.233 -0.2407 -3.0236 -3.4937
 8929TIP3    H248279   0.734   0.841  16.176  1.4018 -0.1306  1.5766
 8930TIP3   OH248280   2.288   6.340   5.452  0.2968  0.6944 -0.0760
 8930TIP3    H148281   2.353   6.276   5.479 -1.5010 -0.1203  2.7659
 8930TIP3    H248282   2.334   6.397   5.391  2.7159 -1.6809 -0.6381
 8931TIP3   OH248283   4.087   5.464   3.369 -0.3111 -0.0771 -0.2877
 8931TIP3    H148284   4.159   5.524   3.349 -0.9893  0.6850 -0.4836
 8931TIP3    H248285   4.126   5.399   3.427  0.3157  0.8783  0.4077
 8932TIP3   OH248286   5.405   3.793   1.397  0.1940 -0.5929 -0.4361
 8932TIP3    H148287   5.480   3.851   1.382  1.2545 -1.5077  0.9667
 8932TIP3    H248288   5.329   3.845   1.375  0.9422  2.0577  2.5267
 8933TIP3   OH248289   2.785   0.189   3.119  0.5327 -0.1717 -0.1447
 8933TIP3    H148290   2.808   0.268   3.070  0.4288  0.3195  0.5768
 8933TIP3    H248291   2.867   0.139   3.123  0.5432 -0.2155 -0.8046
 8934TIP3   OH248292   6.538   3.161  13.880  0.6160  0.2134  0.3852
 8934TIP3    H148293   6.586   3.113  13.948  1.6502  2.3738  1.2531
 8934TIP3    H248294   6.604   3.212  13.834 -0.6133  2.0911  0.5913
 8935TIP3   OH248295   4.031   4.261  16.428  0.0257  0.3897  0.1192
 8935TIP3    H148296   3.977   4.291  16.355  2.2728  1.3778 -1.2259
 8935TIP3    H248297   4.089   4.195  16.390 -0.5059 -1.0395  1.6501
 8936TIP3   OH248298   4.078   5.750   0.789  0.0867  0.3473 -0.2085
 8936TIP3    H148299   4.109   5.752   0.879  2.7859  1.2277 -1.0320
 8936TIP3    H248300   3.992   5.791   0.791 -0.3097 -0.4707  2.0537
 8937TIP3   OH248301   1.236   0.191  13.608 -0.1296 -0.3161  0.0960
 8937TIP3    H148302   1.301   0.232  13.665  0.1694  1.1983 -1.2689
 8937TIP3    H248303   1.155   0.195  13.658 -0.2222  2.4418 -0.0890
 8938TIP3   OH248304   5.566   5.854  10.431 -0.7625  0.0630  0.1899
 8938TIP3    H148305   5.477   5.862  10.397 -0.8070 -0.4473  0.1740
 8938TIP3    H248306   5.604   5.941  10.419 -0.9788  0.0574 -0.5923
 8939TIP3   OH248307   0.150   1.866   2.336  0.2044 -0.2956  0.5855
 8939TIP3    H148308   0.182   1.955   2.318 -1.8368  0.4000  0.1895
 8939TIP3    H248309   0.167   1.853   2.429  1.9917 -0.1609  0.3269
 8940TIP3   OH248310   6.422   5.651  14.880  0.0397  0.1235  0.2793
 8940TIP3    H148311   6.366   5.724  14.907 -1.1468 -0.1375 -1.3348
 8940TIP3    H248312   6.507   5.691  14.863 -0.3980  1.0235  0.1309
 8941TIP3   OH248313   0.077   0.159  15.317 -0.1759 -0.4587  0.4385
 8941TIP3    H148314   0.038   0.239  15.352  1.2108 -0.0547  1.1372
 8941TIP3    H248315   0.169   0.181  15.304  0.1792 -1.8625  0.3870
 8942TIP3   OH248316   4.079   0.715  15.253  0.0866 -0.1996  0.1242
 8942TIP3    H148317   4.157   0.663  15.272  0.5044  0.0657 -0.7810
 8942TIP3    H248318   4.083   0.788  15.316  0.0692 -0.6740  0.6845
 8943TIP3   OH248319   4.125   5.130   0.789 -0.2604 -0.6116 -0.0771
 8943TIP3    H148320   4.149   5.116   0.881  0.7864 -1.2590 -0.4288
 8943TIP3    H248321   4.195   5.087   0.739 -0.4044  0.3742 -1.1837
 8944TIP3   OH248322   0.376   4.562  13.443  0.1740 -0.4602  0.0812
 8944TIP3    H148323   0.434   4.595  13.375  0.1179  0.8321  0.6342
 8944TIP3    H248324   0.348   4.640  13.491 -0.8541 -1.2075  0.7429
 8945TIP3   OH248325   4.824   2.296  14.120 -0.5724 -0.2010  0.5257
 8945TIP3    H148326   4.843   2.390  14.120 -2.6503  0.2663 -0.0043
 8945TIP3    H248327   4.862   2.264  14.039  0.5923  0.0479  0.9468
 8946TIP3   OH248328   0.976   1.032   0.592 -0.2500  0.1628  0.1608
 8946TIP3    H148329   0.995   1.029   0.686 -0.5028 -0.0958  0.2068
 8946TIP3    H248330   0.884   1.006   0.586 -0.2958  0.3961 -0.1396
 8947TIP3   OH248331   1.174   5.663  16.220 -0.0859  0.1359 -0.1658
 8947TIP3    H148332   1.082   5.686  16.208 -0.6046 -1.6375  0.0863
 8947TIP3    H248333   1.206   5.723  16.288 -1.2636  0.2960  0.2656
 8948TIP3   OH248334   5.355   5.158  12.443  0.0609  0.9037  0.0859
 8948TIP3    H148335   5.386   5.071  12.468  1.1500  0.6428 -1.9511
 8948TIP3    H248336   5.288   5.142  12.376 -0.1649  1.6337  0.1248
 8949TIP3   OH248337   5.598   2.524  12.869  0.4509 -0.2130 -0.1276
 8949TIP3    H148338   5.599   2.573  12.951 -1.7866 -1.6550  0.8572
 8949TIP3    H248339   5.675   2.467  12.874  0.2903 -0.3423  1.0151
 8950TIP3   OH248340   6.253   6.489  16.914  0.2169  0.4704  0.5888
 8950TIP3    H148341   6.286   6.417  16.968  0.1970  0.8578  1.1253
 8950TIP3    H248342   6.158   6.481  16.920  0.2132  0.6517  0.8096
 8951TIP3   OH248343   1.891   5.514   2.500  0.2681 -0.1019 -0.5024
 8951TIP3    H148344   1.873   5.569   2.575  1.5322 -1.3936  0.8139
 8951TIP3    H248345   1.809   5.466   2.485 -0.2924  0.8601 -0.5999
 8952TIP3   OH248346   4.401   6.695   5.132 -0.5257  0.1650  0.1941
 8952TIP3    H148347   4.452   6.774   5.152  0.5964 -0.4692 -0.0934
 8952TIP3    H248348   4.311   6.718   5.158 -0.0349  1.1572  1.1233
 8953TIP3   OH248349   0.178   6.177   1.633 -0.4846  0.2126  0.6820
 8953TIP3    H148350   0.269   6.153   1.649 -0.5942  0.0491  1.0795
 8953TIP3    H248351   0.172   6.188   1.538 -0.2220 -0.4921  0.5786
 8954TIP3   OH248352   0.891   3.150  16.919  0.1145 -0.3046 -0.2073
 8954TIP3    H148353   0.800   3.173  16.901  0.0914 -0.7046 -0.6432
 8954TIP3    H248354   0.886   3.068  16.967  0.2036  0.4340  1.0973
 8955TIP3   OH248355   6.712   3.690  13.276 -0.5351  0.3087 -0.3408
 8955TIP3    H148356   6.651   3.618  13.293 -0.2257  0.2999  0.8768
 8955TIP3    H248357   6.727   3.687  13.182  0.7803 -2.3412 -0.1676
 8956TIP3   OH248358   4.950   3.907   6.327 -0.3944 -0.1527 -0.3443
 8956TIP3    H148359   4.901   3.988   6.317 -1.3590 -0.8932 -1.9923
 8956TIP3    H248360   4.900   3.856   6.391 -1.2549 -0.5090 -1.2879
 8957TIP3   OH248361   2.350   1.299   3.999 -0.2560  0.0477  0.4790
 8957TIP3    H148362   2.303   1.230   3.951 -0.7812 -0.3303  1.5230
 8957TIP3    H248363   2.282   1.351   4.041  0.0657  1.8849 -1.1111
 8958TIP3   OH248364   3.238   0.902   3.261 -0.1018  0.2574 -0.1303
 8958TIP3    H148365   3.317   0.895   3.314 -0.6532  0.1194  0.6961
 8958TIP3    H248366   3.213   0.994   3.268 -1.9538 -0.3479  2.5485
 8959TIP3   OH248367   5.638   0.681   3.937 -0.4267  0.2160  0.2735
 8959TIP3    H148368   5.551   0.674   3.897  0.0197  0.6532 -0.8013
 8959TIP3    H248369   5.620   0.688   4.031 -1.4721 -1.3719  0.2238
 8960TIP3   OH248370   0.054   6.112   2.678 -0.0941  0.3663  0.3868
 8960TIP3    H148371   0.070   6.018   2.672  0.2821  0.3801  1.1360
 8960TIP3    H248372   0.001   6.131   2.601 -0.7181 -0.5731  0.5599
 8961TIP3   OH248373   5.670   6.578  16.997 -0.3324  0.1094 -0.6504
 8961TIP3    H148374   5.595   6.619  16.954 -1.2854 -0.0039  0.8259
 8961TIP3    H248375   5.632   6.505  17.046  1.0044 -1.0651 -1.3102
 8962TIP3   OH248376   0.298   1.382   2.422 -0.2969  0.2833  0.3509
 8962TIP3    H148377   0.336   1.335   2.348  0.9908 -1.0140  1.7791
 8962TIP3    H248378   0.322   1.473   2.408  0.7699 -0.0907 -0.3493
 8963TIP3   OH248379   0.750   1.781   5.359 -0.4879 -0.3648  0.4385
 8963TIP3    H148380   0.763   1.844   5.288  1.3187 -1.3462 -0.1556
 8963TIP3    H248381   0.757   1.833   5.439  0.6379  0.2836 -0.0543
 8964TIP3   OH248382   4.890   2.776   1.022  0.0991  0.5605  0.1761
 8964TIP3    H148383   4.916   2.685   1.034 -0.8381  0.5570  2.7940
 8964TIP3    H248384   4.796   2.772   1.002  0.2209  0.9358 -0.5060
 8965TIP3   OH248385   4.959   0.829  16.943  0.2054 -0.2035  0.0679
 8965TIP3    H148386   4.925   0.905  16.896  1.8588 -0.2019 -1.2525
 8965TIP3    H248387   5.000   0.865  17.021  1.1258  0.3194 -0.6314
 8966TIP3   OH248388   4.206   4.936  11.638 -0.5202  0.5550  0.2515
 8966TIP3    H148389   4.132   4.995  11.624 -0.2701  1.0441  0.9063
 8966TIP3    H248390   4.233   4.909  11.550 -2.0110 -0.3164  0.0377
 8967TIP3   OH248391   6.813   0.645  13.136  0.2160  0.1824  0.2548
 8967TIP3    H148392   6.876   0.634  13.065 -2.0625  0.0673 -1.8730
 8967TIP3    H248393   6.827   0.734  13.166  1.4469  0.1279 -0.0900
 8968TIP3   OH248394   2.961   1.259  11.517  0.2440 -0.0504 -0.3745
 8968TIP3    H148395   2.922   1.279  11.603 -0.5795 -0.4525 -0.6433
 8968TIP3    H248396   3.044   1.307  11.517 -0.6911  1.6633 -0.1715
 8969TIP3   OH248397   6.084   3.634  11.566  0.0950 -0.7372  0.0781
 8969TIP3    H148398   6.018   3.586  11.616  0.1212  0.3718  1.2150
 8969TIP3    H248399   6.121   3.568  11.507 -1.5155 -1.5437 -0.0924
 8970TIP3   OH248400   5.971   4.272  14.417 -0.4939 -0.4931  0.4889
 8970TIP3    H148401   6.055   4.316  14.430 -0.1884 -1.2136  0.9491
 8970TIP3    H248402   5.908   4.344  14.408 -0.1605  0.0580  2.2469
 8971TIP3   OH248403   1.505   0.138  17.089 -0.4919 -0.0321  0.1973
 8971TIP3    H148404   1.586   0.086  17.090  0.0761  0.6774 -2.1810
 8971TIP3    H248405   1.447   0.093  17.150  1.0272 -1.6865  0.5121
 8972TIP3   OH248406   1.377   5.004   3.336  1.1044 -0.0715 -0.3296
 8972TIP3    H148407   1.360   5.089   3.377  3.7734  0.8986 -1.0058
 8972TIP3    H248408   1.367   4.941   3.407 -3.4751  0.3112 -0.3038
 8973TIP3   OH248409   5.297   1.269  14.832 -0.2699 -0.6203 -0.1105
 8973TIP3    H148410   5.255   1.346  14.869  0.6035 -0.3492  0.3347
 8973TIP3    H248411   5.362   1.243  14.896 -0.4308 -1.6399 -0.3320
 8974TIP3   OH248412   4.133   4.698  14.472 -0.4420 -0.2572  0.4142
 8974TIP3    H148413   4.158   4.791  14.475  0.3378 -0.4707  1.0626
 8974TIP3    H248414   4.195   4.655  14.532 -1.3618 -1.0635  0.8184
 8975TIP3   OH248415   0.974   2.371  14.441 -0.1444 -0.0175 -0.6611
 8975TIP3    H148416   0.901   2.335  14.391  0.6827  0.2240 -2.1317
 8975TIP3    H248417   1.014   2.296  14.485 -1.5614 -0.0728  0.5877
 8976TIP3   OH248418   1.634   1.104  16.737  0.2920 -0.0288  0.5160
 8976TIP3    H148419   1.661   1.038  16.801 -0.0056 -0.2305  0.4347
 8976TIP3    H248420   1.560   1.064  16.691  0.5024  0.1111  0.0475
 8977TIP3   OH248421   2.850   6.525   4.785 -0.0218 -0.1620 -0.6818
 8977TIP3    H148422   2.779   6.504   4.845  0.2153  0.4778 -0.1724
 8977TIP3    H248423   2.927   6.483   4.823  0.4129  1.4055  0.2306
 8978TIP3   OH248424   4.269   2.909   2.836 -0.4615 -0.6695  0.1862
 8978TIP3    H148425   4.263   2.927   2.742  0.2893  1.9041  0.5531
 8978TIP3    H248426   4.348   2.956   2.864 -0.7721 -1.2336  2.1522
 8979TIP3   OH248427   3.078   6.535  15.820  0.0662  0.2473 -0.3393
 8979TIP3    H148428   3.017   6.541  15.746  0.0696 -0.1455 -0.3777
 8979TIP3    H248429   3.161   6.511  15.780 -0.1062 -0.7394 -0.1414
 8980TIP3   OH248430   6.465   1.230   4.045 -0.4949 -0.2294 -0.5687
 8980TIP3    H148431   6.375   1.230   4.075 -0.3304 -0.6193 -0.0711
 8980TIP3    H248432   6.502   1.149   4.080 -0.2052 -0.5213 -1.5268
 8981TIP3   OH248433   5.906   2.969  15.106 -0.4197  0.1293  0.1586
 8981TIP3    H148434   5.926   3.000  15.018 -0.3470  2.0121  0.7964
 8981TIP3    H248435   5.935   3.040  15.164 -0.1283 -1.2018  1.7390
 8982TIP3   OH248436   1.784   0.353   1.619 -0.1393 -0.5270 -0.3188
 8982TIP3    H148437   1.804   0.278   1.564  1.9247  0.2454 -0.6832
 8982TIP3    H248438   1.844   0.345   1.694  0.4675  0.9927 -0.6053
 8983TIP3   OH248439   4.775   4.054   1.611 -0.1974 -0.6859 -0.3794
 8983TIP3    H148440   4.858   4.029   1.651  0.7896  2.4604 -0.1278
 8983TIP3    H248441   4.797   4.078   1.521 -0.6959  0.5806 -0.1928
 8984TIP3   OH248442   0.977   0.133  11.128 -0.0108 -0.8379 -0.5890
 8984TIP3    H148443   1.059   0.134  11.177  0.9390  2.3718 -2.0114
 8984TIP3    H248444   1.004   0.110  11.039 -0.6028  0.3141 -1.0804
 8985TIP3   OH248445   1.950   3.395   5.168 -0.0026 -0.6050  0.5017
 8985TIP3    H148446   1.875   3.439   5.128 -1.1759 -2.6142  0.3751
 8985TIP3    H248447   2.024   3.418   5.112 -0.2278  2.2561  1.2048
 8986TIP3   OH248448   4.989   1.229  16.950 -0.5748 -0.1203  0.2824
 8986TIP3    H148449   4.906   1.238  16.997 -0.7665 -2.3128  0.4536
 8986TIP3    H248450   4.982   1.145  16.904  1.2702 -0.0157 -0.2662
 8987TIP3   OH248451   1.566   6.096  14.715 -0.0157 -0.4604 -0.4150
 8987TIP3    H148452   1.564   6.079  14.809  2.0175 -1.0888 -0.4406
 8987TIP3    H248453   1.481   6.065  14.683  0.0337 -2.1361  0.9238
 8988TIP3   OH248454   0.276   0.529  12.373  0.1126 -0.1577  0.3124
 8988TIP3    H148455   0.284   0.558  12.283  1.2370 -1.0749  0.0897
 8988TIP3    H248456   0.359   0.552  12.414 -0.4951  0.5148  1.2057
 8989TIP3   OH248457   5.962   3.970  14.927  0.3755 -0.1155 -0.1400
 8989TIP3    H148458   6.007   3.902  14.877 -1.4156 -0.8292 -0.8540
 8989TIP3    H248459   5.898   3.922  14.980 -1.1409  1.0105 -0.8944
 8990TIP3   OH248460   5.905   2.366   0.256  0.2953  0.2258 -1.1524
 8990TIP3    H148461   5.934   2.438   0.312  0.1590 -0.8578  0.4095
 8990TIP3    H248462   5.976   2.302   0.262 -1.4551 -1.7030  1.2741
 8991TIP3   OH248463   2.523   1.963  16.500 -0.1992  0.2705 -0.8472
 8991TIP3    H148464   2.445   1.970  16.554  1.2030 -0.0430  1.3268
 8991TIP3    H248465   2.536   2.052  16.465 -1.1081  0.4876 -0.6530
 8992TIP3   OH248466   5.228   0.106   5.945  0.2625  0.1939 -0.4939
 8992TIP3    H148467   5.167   0.134   5.876 -0.2486 -0.5767 -0.3734
 8992TIP3    H248468   5.226   0.177   6.008 -0.1129  0.4158 -0.7498
 8993TIP3   OH248469   1.239   3.748  15.854  0.1377  0.0382  0.0444
 8993TIP3    H148470   1.180   3.801  15.908 -2.9302 -0.4774 -2.5360
 8993TIP3    H248471   1.285   3.812  15.799 -0.3728  0.2560 -0.1293
 8994TIP3   OH248472   4.409   5.031  11.250 -0.0800  0.4663  0.5989
 8994TIP3    H148473   4.393   5.123  11.268  1.5930  0.8386  0.3427
 8994TIP3    H248474   4.504   5.025  11.236 -0.1201 -1.3217  0.8133
 8995TIP3   OH248475   0.361   3.154   0.188  0.1767 -0.2133  0.0773
 8995TIP3    H148476   0.383   3.194   0.104 -1.4968 -0.3088 -0.4447
 8995TIP3    H248477   0.363   3.226   0.251  0.3256  0.0747 -0.2541
 8996TIP3   OH248478   4.181   6.601  13.421 -0.2808 -0.7363  0.4770
 8996TIP3    H148479   4.163   6.516  13.462  0.0669 -0.8184  0.4620
 8996TIP3    H248480   4.252   6.584  13.360 -0.0331 -0.3820  0.6612
 8997TIP3   OH248481   6.064   6.235   0.988 -0.0805 -1.1948  0.0013
 8997TIP3    H148482   6.155   6.205   0.992  0.5598  0.5412 -0.6759
 8997TIP3    H248483   6.013   6.163   1.026  1.4007 -2.8384 -1.0083
 8998TIP3   OH248484   4.927   4.372   0.166 -0.0677 -0.1912 -0.0586
 8998TIP3    H148485   4.833   4.381   0.152 -0.3124 -0.1326  1.4716
 8998TIP3    H248486   4.964   4.369   0.078 -1.0194  4.3291 -0.8763
 8999TIP3   OH248487   5.892   2.947   1.762  0.4948 -0.0586 -0.4323
 8999TIP3    H148488   5.910   2.861   1.802 -3.1120 -0.4215  0.7238
 8999TIP3    H248489   5.855   2.926   1.676 -3.1272 -0.0008  0.9438
 9000TIP3   OH248490   1.385   4.060  14.530  0.0641  0.0752 -0.2241
 9000TIP3    H148491   1.342   3.979  14.503  1.5935 -0.6270 -0.6993
 9000TIP3    H248492   1.365   4.122  14.460 -0.7883 -0.0016 -0.0571
 9001TIP3   OH248493   2.630   4.249  17.264  0.1310 -0.1797 -0.2611
 9001TIP3    H148494   2.673   4.188  17.204  0.3013 -1.4812  1.1430
 9001TIP3    H248495   2.697   4.270  17.329  0.4955  2.5286 -1.3437
 9002TIP3   OH248496   4.376   2.426  11.359 -0.1332 -0.7345  0.1432
 9002TIP3    H148497   4.341   2.445  11.272 -0.2128 -1.0555  0.1045
 9002TIP3    H248498   4.413   2.338  11.351  0.1349 -0.6429  0.3507
 9003TIP3   OH248499   5.793   6.606   5.790  0.8611  0.2129  0.4337
 9003TIP3    H148500   5.810   6.693   5.752  0.3736  0.4268  0.7008
 9003TIP3    H248501   5.714   6.618   5.843  0.6247 -0.4658  0.2408
 9004TIP3   OH248502   1.261   0.222   5.450  0.3816  0.6532  0.0861
 9004TIP3    H148503   1.234   0.295   5.394  1.0833  0.6566 -0.2648
 9004TIP3    H248504   1.239   0.249   5.539  0.2144  1.0980 -0.0913
 9005TIP3   OH248505   2.439   6.408  16.257  0.5743 -0.9487 -0.0835
 9005TIP3    H148506   2.368   6.367  16.209  1.4342 -0.7204 -1.5961
 9005TIP3    H248507   2.493   6.451  16.190 -0.1759  2.5969  1.3568
 9006TIP3   OH248508   4.382   4.967   0.285  0.2770 -0.3992  0.1728
 9006TIP3    H148509   4.393   4.917   0.366 -0.4365  1.3213  1.3852
 9006TIP3    H248510   4.326   4.912   0.230  0.6982 -1.5507  0.8668
 9007TIP3   OH248511   5.388   1.019   5.400  0.3560  0.3101  0.5970
 9007TIP3    H148512   5.364   0.928   5.418 -0.8444  0.1838 -1.3653
 9007TIP3    H248513   5.472   1.030   5.444  0.8035 -1.9322  0.4412
 9008TIP3   OH248514   1.370   2.317   2.076  0.2726  0.5030  0.2654
 9008TIP3    H148515   1.466   2.314   2.082  0.3261 -0.5451 -0.7783
 9008TIP3    H248516   1.351   2.291   1.986 -1.0652 -1.1505  0.9802
 9009TIP3   OH248517   6.799   0.849  13.612 -1.1148  0.2692  0.2902
 9009TIP3    H148518   6.820   0.781  13.549  0.9565  1.7689 -0.7743
 9009TIP3    H248519   6.742   0.910  13.565  1.0784  1.8146 -0.5539
 9010TIP3   OH248520   1.369   0.992   3.523 -0.0520 -0.4087 -0.3261
 9010TIP3    H148521   1.422   0.914   3.538  0.4062 -0.1855 -0.7351
 9010TIP3    H248522   1.308   0.995   3.597  1.4638  0.1218  0.9541
 9011TIP3   OH248523   0.768   2.519  11.402 -0.2704 -0.2242  0.0079
 9011TIP3    H148524   0.686   2.540  11.446 -0.3359  0.9150 -0.6223
 9011TIP3    H248525   0.806   2.604  11.380  1.3399 -0.7158  0.7443
 9012TIP3   OH248526   4.895   2.984   3.051  0.6258 -0.1215 -0.5448
 9012TIP3    H148527   4.905   2.951   3.140 -0.0290 -0.2836 -0.5212
 9012TIP3    H248528   4.867   3.075   3.061 -4.7726 -1.4653 -0.3550
 9013TIP3   OH248529   0.782   6.166  13.462 -0.0042 -0.1019 -0.1461
 9013TIP3    H148530   0.861   6.165  13.408 -1.0672  1.7808 -1.9283
 9013TIP3    H248531   0.793   6.241  13.520 -0.2542 -0.1635 -0.0163
 9014TIP3   OH248532   1.686   1.073  13.203 -0.2358 -0.5012  0.5091
 9014TIP3    H148533   1.734   1.091  13.284 -2.0898  1.2489  1.2889
 9014TIP3    H248534   1.643   0.989  13.219 -1.9343  0.6069  2.0650
 9015TIP3   OH248535   5.410   1.191   5.152 -0.2424 -0.0954 -0.1532
 9015TIP3    H148536   5.389   1.135   5.226 -0.1286  0.7173  0.5003
 9015TIP3    H248537   5.362   1.152   5.079  0.5000 -1.5331  0.0884
 9016TIP3   OH248538   5.326   4.634   2.833  0.1856 -0.4858  0.1712
 9016TIP3    H148539   5.234   4.652   2.853  0.3094 -0.2816  0.5645
 9016TIP3    H248540   5.374   4.709   2.869  0.4956 -0.5234 -0.1517
 9017TIP3   OH248541   1.872   4.533   2.299 -0.1682 -0.0912 -0.2505
 9017TIP3    H148542   1.791   4.577   2.272  0.1747  0.6235 -0.1212
 9017TIP3    H248543   1.909   4.499   2.217 -0.4846 -0.2367 -0.3370
 9018TIP3   OH248544   5.390   5.422   2.066  0.5291  0.3224 -0.3087
 9018TIP3    H148545   5.412   5.436   2.158  0.3201  1.4424 -0.4186
 9018TIP3    H248546   5.319   5.357   2.068  1.1777 -0.3824  0.2533
 9019TIP3   OH248547   5.198   5.919  16.376 -0.1036  0.3379  0.1335
 9019TIP3    H148548   5.131   5.932  16.444  0.0140 -1.2707  0.6072
 9019TIP3    H248549   5.149   5.891  16.299 -0.1291  1.0249 -0.1069
 9020TIP3   OH248550   4.693   6.796  15.266 -0.2377 -0.1609  0.1213
 9020TIP3    H148551   4.774   6.747  15.275 -1.4093 -1.9781  1.6133
 9020TIP3    H248552   4.652   6.760  15.186  0.9133  1.6187 -1.3381
 9021TIP3   OH248553   2.139   4.430   3.136 -0.1259  0.4603  0.1339
 9021TIP3    H148554   2.118   4.496   3.069  1.0842  0.2331 -0.4968
 9021TIP3    H248555   2.208   4.377   3.096  1.9790  1.4268  2.2476
 9022TIP3   OH248556   3.385   1.814  14.369 -0.5508 -0.0202  0.2443
 9022TIP3    H148557   3.315   1.878  14.358 -1.6946 -1.4996 -1.6731
 9022TIP3    H248558   3.410   1.790  14.280 -0.8153 -2.8529  0.8366
 9023TIP3   OH248559   0.223   3.809   5.695  0.1787 -0.1387 -0.1497
 9023TIP3    H148560   0.228   3.778   5.785  2.2699 -1.9960 -0.8317
 9023TIP3    H248561   0.136   3.781   5.665 -0.9685  1.3910  1.5031
 9024TIP3   OH248562   6.170   5.760  10.309  0.1762  0.1064  0.0851
 9024TIP3    H148563   6.081   5.745  10.340  0.6870 -1.7616  0.7592
 9024TIP3    H248564   6.158   5.800  10.223 -1.3627 -1.8016 -0.6637
 9025TIP3   OH248565   1.732   1.421  14.529  0.1053 -0.4175 -0.1702
 9025TIP3    H148566   1.670   1.386  14.593  0.2103 -1.4734 -0.6234
 9025TIP3    H248567   1.771   1.497  14.572  0.2653 -1.1777  1.0590
 9026TIP3   OH248568   5.671   4.764  16.392  0.0020 -0.4599  0.1121
 9026TIP3    H148569   5.630   4.747  16.476  0.4551  2.7448  1.1337
 9026TIP3    H248570   5.756   4.721  16.397  0.4126  0.4677  1.7522
 9027TIP3   OH248571   3.556   4.190   2.024 -0.3015 -0.3127 -0.0236
 9027TIP3    H148572   3.573   4.245   2.101 -1.4954 -1.9113  1.4791
 9027TIP3    H248573   3.614   4.114   2.036 -1.3188 -1.1182 -0.0511
 9028TIP3   OH248574   5.458   3.448   6.490  0.1382 -0.1046 -0.6988
 9028TIP3    H148575   5.377   3.497   6.478 -0.6475 -0.8739  1.0928
 9028TIP3    H248576   5.430   3.357   6.499  1.4108 -0.6876 -2.1327
 9029TIP3   OH248577   5.260   1.738   5.357  0.0475  0.0668 -0.4008
 9029TIP3    H148578   5.270   1.649   5.391  0.4988  0.0774 -0.4999
 9029TIP3    H248579   5.210   1.784   5.425 -0.9901 -0.4918 -0.7504
 9030TIP3   OH248580   1.266   2.996  11.010 -0.1593 -0.4350  0.0916
 9030TIP3    H148581   1.230   2.985  10.922 -1.2151 -0.2905  0.4837
 9030TIP3    H248582   1.272   2.907  11.045  2.9575 -0.8174 -1.0904
 9031TIP3   OH248583   1.820   0.335  11.625  0.2175 -0.0522 -0.8231
 9031TIP3    H148584   1.811   0.370  11.714 -1.1619  0.3060 -1.0814
 9031TIP3    H248585   1.903   0.288  11.626 -0.3758 -1.1733  1.0542
 9032TIP3   OH248586   4.103   3.516  11.938 -0.3487 -0.6974 -0.2972
 9032TIP3    H148587   4.165   3.555  11.877  0.5474 -1.0999  0.3388
 9032TIP3    H248588   4.019   3.519  11.892  0.2403 -0.6751 -1.4048
 9033TIP3   OH248589   1.482   3.314  10.707 -0.2858 -0.0794 -0.1753
 9033TIP3    H148590   1.523   3.398  10.684  1.2063 -0.5170  0.7495
 9033TIP3    H248591   1.526   3.288  10.787  0.4435 -2.5471 -1.2929
 9034TIP3   OH248592   2.186   0.963   1.354 -0.3024 -0.1992  0.6126
 9034TIP3    H148593   2.177   0.900   1.426 -0.3736 -2.1828 -1.0375
 9034TIP3    H248594   2.106   0.951   1.302 -1.1275  2.5113  1.1182
 9035TIP3   OH248595   5.907   0.596   5.264 -0.0103 -0.6768  0.4316
 9035TIP3    H148596   5.947   0.562   5.344 -0.9134 -0.8148  0.8424
 9035TIP3    H248597   5.821   0.553   5.260 -0.7165  0.6926  0.3598
 9036TIP3   OH248598   6.210   0.950  11.467  0.0465  0.2208  0.2512
 9036TIP3    H148599   6.125   0.979  11.433 -0.5044 -1.1652  0.3738
 9036TIP3    H248600   6.256   1.031  11.489 -0.7811  1.0377 -0.9036
 9037TIP3   OH248601   3.222   5.714  15.269  0.4089 -0.1014 -0.2883
 9037TIP3    H148602   3.168   5.639  15.294 -0.0549 -0.0588 -1.1242
 9037TIP3    H248603   3.272   5.735  15.348  0.5136 -1.2654 -0.0176
 9038TIP3   OH248604   1.713   3.393   2.194 -0.0758  0.6782 -0.4256
 9038TIP3    H148605   1.796   3.438   2.177 -0.6527  1.5504 -1.0726
 9038TIP3    H248606   1.686   3.359   2.108  0.2640 -0.7911  0.0251
 9039TIP3   OH248607   5.496   2.277  16.868  0.3352  0.2661 -1.2003
 9039TIP3    H148608   5.560   2.306  16.802  1.3704 -1.5640 -1.0689
 9039TIP3    H248609   5.544   2.214  16.922 -0.1135  2.4815  2.0873
 9040TIP3   OH248610   3.597   3.259  12.264  0.0023  0.4755 -0.2475
 9040TIP3    H148611   3.692   3.272  12.272  0.0541  0.0989 -0.1935
 9040TIP3    H248612   3.573   3.209  12.342  0.0969 -1.1021 -1.1830
 9041TIP3   OH248613   4.576   4.717  13.766 -0.5810 -0.1561 -0.0444
 9041TIP3    H148614   4.657   4.763  13.743  0.3394 -2.1113 -0.9240
 9041TIP3    H248615   4.544   4.762  13.844  0.8852  1.2117 -0.1874
 9042TIP3   OH248616   2.075   0.673  16.358 -0.3337 -0.1563 -0.0665
 9042TIP3    H148617   2.042   0.585  16.341  1.1881 -0.5195 -1.5113
 9042TIP3    H248618   2.110   0.702  16.273 -1.4500  2.1635  0.1795
 9043TIP3   OH248619   6.128   5.646   1.158 -0.6462 -0.6734  0.3252
 9043TIP3    H148620   6.121   5.678   1.068  0.0688  0.0734  0.5156
 9043TIP3    H248621   6.218   5.613   1.164 -0.4565 -0.0747  0.9556
 9044TIP3   OH248622   2.964   3.114  15.870 -0.2816 -0.2223 -0.3012
 9044TIP3    H148623   2.927   3.201  15.854  0.2968  0.1247  0.1990
 9044TIP3    H248624   2.919   3.083  15.948  1.3491  0.7469  1.0888
 9045TIP3   OH248625   5.550   3.740  15.458  0.0497 -0.2043  0.3250
 9045TIP3    H148626   5.635   3.778  15.482  0.7446 -0.6585 -1.2624
 9045TIP3    H248627   5.556   3.650  15.491  1.3927 -1.1287 -2.2016
 9046TIP3   OH248628   1.000   0.296  12.948 -0.6526 -0.6132 -0.0641
 9046TIP3    H148629   0.970   0.249  13.026 -0.5518 -2.5306 -1.1258
 9046TIP3    H248630   0.920   0.311  12.897 -0.3651 -2.2921 -1.0843
 9047TIP3   OH248631   1.651   4.493  11.053 -0.2714  0.3868  0.0565
 9047TIP3    H148632   1.648   4.483  10.958  0.6607 -2.1030  0.2153
 9047TIP3    H248633   1.569   4.454  11.084  0.1767 -0.3351  0.3514
 9048TIP3   OH248634   6.531   6.426  10.754 -0.8028  0.2339  0.0338
 9048TIP3    H148635   6.451   6.459  10.714 -0.4726  3.1295  1.5041
 9048TIP3    H248636   6.602   6.474  10.710  0.2058 -2.0216 -1.0032
 9049TIP3   OH248637   1.638   5.315   3.229  0.0473  0.3248  0.0703
 9049TIP3    H148638   1.571   5.378   3.205 -0.6133 -0.5836 -0.5539
 9049TIP3    H248639   1.643   5.319   3.325  1.3171  2.5872 -0.0252
 9050TIP3   OH248640   5.581   4.153   1.324  0.1525 -0.2526  0.8929
 9050TIP3    H148641   5.550   4.182   1.238 -1.1745  1.2673  1.8355
 9050TIP3    H248642   5.612   4.233   1.366  1.5168 -1.0981  1.5768
 9051TIP3   OH248643   5.572   5.844   0.639 -0.0353 -0.4950  0.5666
 9051TIP3    H148644   5.661   5.874   0.658 -0.2863 -0.7158  2.2228
 9051TIP3    H248645   5.543   5.801   0.719 -1.3356 -1.1977 -0.2305
 9052TIP3   OH248646   2.916   3.119  14.798 -0.6680  0.2031 -0.3115
 9052TIP3    H148647   2.926   3.103  14.704 -2.7648  0.9834 -0.7164
 9052TIP3    H248648   2.868   3.043  14.831  0.3955 -0.2556  0.2424
 9053TIP3   OH248649   1.119   6.155  15.910  0.1797  0.5149  0.7665
 9053TIP3    H148650   1.077   6.222  15.963  2.4337  1.3571  1.5786
 9053TIP3    H248651   1.177   6.109  15.971  1.7455  0.5563 -0.6266
 9054TIP3   OH248652   2.226   5.042  16.361  0.3002  0.5537 -0.4464
 9054TIP3    H148653   2.186   4.957  16.379 -0.9025  1.3208  0.7299
 9054TIP3    H248654   2.176   5.104  16.415  0.9014  2.0667 -1.5393
 9055TIP3   OH248655   1.695   2.339  16.042 -0.8310  0.2873  0.0639
 9055TIP3    H148656   1.610   2.367  16.007 -0.7378  1.1877  0.5434
 9055TIP3    H248657   1.759   2.390  15.992 -0.7092  2.0069  1.8553
 9056TIP3   OH248658   2.266   0.439  12.607  0.7370 -0.0742  0.8551
 9056TIP3    H148659   2.266   0.534  12.597 -0.8632  0.0110  1.4119
 9056TIP3    H248660   2.329   0.408  12.542  0.6241  1.3097  0.0494
 9057TIP3   OH248661   3.264   3.155   5.136  0.0865 -0.0441  0.1213
 9057TIP3    H148662   3.257   3.084   5.073  0.2310 -1.1287  1.2994
 9057TIP3    H248663   3.212   3.126   5.211  0.3852  0.9665  0.7440
 9058TIP3   OH248664   0.043   3.066  15.105 -0.2556 -0.4990 -0.1725
 9058TIP3    H148665   0.030   3.161  15.106 -0.2223 -0.4959  1.3889
 9058TIP3    H248666   0.066   3.046  15.014 -0.8594  0.8987 -0.6510
 9059TIP3   OH248667   0.247   5.950   0.800 -0.0403 -0.0050  0.2198
 9059TIP3    H148668   0.210   5.861   0.804  1.6823 -0.8765 -1.4219
 9059TIP3    H248669   0.308   5.954   0.873  0.3660 -0.4423 -0.0853
 9060TIP3   OH248670   4.948   0.862   3.560  0.4583 -0.5353 -0.5950
 9060TIP3    H148671   4.869   0.907   3.532  0.6309  0.9509  1.1446
 9060TIP3    H248672   4.969   0.803   3.488 -2.1287 -0.8589 -1.1628
 9061TIP3   OH248673   1.337   5.347  13.802 -0.2486 -0.1637 -0.4083
 9061TIP3    H148674   1.248   5.319  13.781 -0.0498 -0.0649 -1.4373
 9061TIP3    H248675   1.363   5.290  13.875 -1.1507 -0.1798 -0.0752
 9062TIP3   OH248676   1.053   4.818  13.075  0.6309 -0.6376 -0.3870
 9062TIP3    H148677   1.121   4.852  13.016  1.8009 -0.6316  0.8953
 9062TIP3    H248678   1.003   4.895  13.101  0.6181 -0.5200 -0.7619
 9063TIP3   OH248679   5.102   3.014  15.241  0.3737  0.3392 -0.1829
 9063TIP3    H148680   5.154   3.051  15.170 -1.9568 -1.0075 -2.8007
 9063TIP3    H248681   5.113   2.919  15.232 -1.2332  0.0928  0.1788
 9064TIP3   OH248682   6.227   2.586   0.204  0.3243 -0.9324  0.1824
 9064TIP3    H148683   6.153   2.586   0.264  0.0464  1.4772 -0.0579
 9064TIP3    H248684   6.212   2.510   0.148 -2.0342 -0.4832  0.0907
 9065TIP3   OH248685   3.761   3.723   1.051 -0.0634  0.2222  0.4021
 9065TIP3    H148686   3.737   3.788   1.117  0.1837  1.5624 -0.7873
 9065TIP3    H248687   3.823   3.666   1.096 -1.2307  0.0276  1.8442
 9066TIP3   OH248688   0.378   0.818   5.608  0.3454 -0.1316 -0.4379
 9066TIP3    H148689   0.328   0.746   5.647  0.3337  0.1648  0.1011
 9066TIP3    H248690   0.329   0.840   5.528  1.5145 -2.1530 -1.8257
 9067TIP3   OH248691   1.068   0.559   2.097  0.0638 -0.3787 -0.4654
 9067TIP3    H148692   1.094   0.473   2.062  1.3156 -0.5509  0.8136
 9067TIP3    H248693   1.150   0.599   2.124 -0.7029  0.3952  0.7957
 9068TIP3   OH248694   4.085   1.249  13.456 -0.6061  0.6826  0.2762
 9068TIP3    H148695   4.171   1.211  13.435 -1.1200 -1.8691  2.3194
 9068TIP3    H248696   4.101   1.301  13.535 -0.8408  0.7193  0.2982
 9069TIP3   OH248697   5.087   2.910  15.917 -0.7703  0.6881 -0.1159
 9069TIP3    H148698   5.163   2.887  15.864 -0.5870 -0.6421  0.6675
 9069TIP3    H248699   5.099   3.003  15.938  0.1931  0.7078 -0.6948
 9070TIP3   OH248700   3.798   4.263  14.611 -0.2637 -0.0282 -0.0516
 9070TIP3    H148701   3.828   4.261  14.702  1.9991 -0.6594 -0.7434
 9070TIP3    H248702   3.767   4.174  14.594  0.0543 -0.1254 -0.1237
 9071TIP3   OH248703   5.708   0.229   5.838  0.4124  0.0891  0.1137
 9071TIP3    H148704   5.786   0.190   5.798  0.2123  0.6873 -0.9017
 9071TIP3    H248705   5.651   0.154   5.856  1.4543 -0.4265  1.4749
 9072TIP3   OH248706   3.045   1.959  14.679 -0.6794  0.0369 -0.1704
 9072TIP3    H148707   2.968   1.915  14.713 -0.2882 -1.7755 -1.4669
 9072TIP3    H248708   3.117   1.899  14.697  0.3253  1.3460  0.3348
 9073TIP3   OH248709   2.581   6.785   2.631  0.2392 -0.4677  0.0811
 9073TIP3    H148710   2.559   6.828   2.714 -1.3014 -0.2770 -0.3971
 9073TIP3    H248711   2.671   6.812   2.613 -0.3136  1.7024  0.3337
 9074TIP3   OH248712   1.326   4.358   3.109 -0.5744 -0.3942  0.0352
 9074TIP3    H148713   1.374   4.276   3.100  0.1917  0.0986 -0.5252
 9074TIP3    H248714   1.379   4.422   3.061 -1.4638  0.3035 -0.0456
 9075TIP3   OH248715   6.433   1.665  15.519  0.3635  0.1307 -0.0461
 9075TIP3    H148716   6.423   1.755  15.489 -0.2900 -0.1713 -0.7775
 9075TIP3    H248717   6.523   1.660  15.550  0.7244  0.7623 -0.9469
 9076TIP3   OH248718   6.244   6.505  13.320  0.5221  0.0969  0.1387
 9076TIP3    H148719   6.190   6.546  13.387 -2.5824  2.5351 -3.4102
 9076TIP3    H248720   6.334   6.523  13.347 -0.5799  2.6108  2.6654
 9077TIP3   OH248721   2.769   1.466   1.887  0.3586 -0.3576  0.5017
 9077TIP3    H148722   2.793   1.485   1.796  1.6281 -1.2283  0.6305
 9077TIP3    H248723   2.750   1.372   1.888 -0.5123 -0.1923  0.9739
 9078TIP3   OH248724   4.625   4.904   1.730 -0.4430 -0.3626 -0.0539
 9078TIP3    H148725   4.636   4.846   1.805  0.7127  0.7257  0.6620
 9078TIP3    H248726   4.592   4.985   1.768 -0.4966 -0.0210 -0.8229
 9079TIP3   OH248727   4.977   3.020   1.150  0.4586 -0.7267 -0.3192
 9079TIP3    H148728   4.897   3.024   1.202  1.5289 -0.2940  1.3653
 9079TIP3    H248729   4.960   2.952   1.085 -0.2960 -2.6313  1.7525
 9080TIP3   OH248730   2.919   2.378  16.514 -0.6133 -0.3353  0.1899
 9080TIP3    H148731   2.989   2.337  16.564  0.0530  0.9822  0.3945
 9080TIP3    H248732   2.847   2.386  16.576 -0.0958  0.4828  0.7077
 9081TIP3   OH248733   1.259   2.228   4.888  0.2896  0.1226 -0.1158
 9081TIP3    H148734   1.183   2.176   4.913  1.7241 -1.2787  1.5303
 9081TIP3    H248735   1.230   2.278   4.811 -2.0763 -0.8067  0.1124
 9082TIP3   OH248736   0.315   3.267   5.208 -0.3773  0.7293 -0.1313
 9082TIP3    H148737   0.350   3.343   5.161  1.0850  0.4245  0.3914
 9082TIP3    H248738   0.340   3.192   5.154 -3.2776  0.6423 -1.5263
 9083TIP3   OH248739   3.092   0.248   5.431 -0.2632  0.1115  0.1193
 9083TIP3    H148740   3.179   0.282   5.451  1.0210 -2.1692 -1.1565
 9083TIP3    H248741   3.081   0.175   5.492 -1.3694  0.4605  0.3539
 9084TIP3   OH248742   1.706   4.489   1.388 -0.4214 -0.2772  0.0815
 9084TIP3    H148743   1.789   4.498   1.434 -0.7454  1.1155  0.4357
 9084TIP3    H248744   1.641   4.524   1.449 -1.0034  0.5580 -0.9875
 9085TIP3   OH248745   5.621   5.708  11.568 -0.7192  0.1755  0.6795
 9085TIP3    H148746   5.605   5.790  11.520  0.1913 -0.6440 -1.1264
 9085TIP3    H248747   5.698   5.727  11.622 -1.0061  0.7547  0.8918
 9086TIP3   OH248748   3.008   0.003   2.041 -0.2851 -0.2818  0.5970
 9086TIP3    H148749   2.956   0.006   1.960  0.1739 -0.5313  0.2858
 9086TIP3    H248750   2.971  -0.071   2.089 -0.2093 -0.4724  0.3674
 9087TIP3   OH248751   0.025   6.574  16.101 -0.1545 -0.3462 -0.6335
 9087TIP3    H148752  -0.054   6.611  16.142  0.0339 -1.0389  0.3971
 9087TIP3    H248753   0.086   6.562  16.174  0.8456  0.0150 -1.3972
 9088TIP3   OH248754   5.181   6.317  15.038  0.4009 -0.4648  0.6288
 9088TIP3    H148755   5.178   6.330  14.943 -1.7191 -0.8693  0.5711
 9088TIP3    H248756   5.239   6.242  15.050  0.7610 -0.3550 -0.3427
 9089TIP3   OH248757   3.193   1.171   3.352  0.0725  0.1716  0.0734
 9089TIP3    H148758   3.155   1.250   3.391  1.0660  0.4545  0.5123
 9089TIP3    H248759   3.277   1.201   3.317  0.3381 -0.6420  0.0136
 9090TIP3   OH248760   4.318   1.578  12.690  0.1666  0.4857 -0.0045
 9090TIP3    H148761   4.349   1.488  12.695 -1.8689 -0.2524  0.3718
 9090TIP3    H248762   4.258   1.578  12.616 -0.4716  1.3237  0.4967
 9091TIP3   OH248763   5.743   2.913   1.124  0.0164 -0.4088 -0.0033
 9091TIP3    H148764   5.767   2.996   1.084  1.3768  0.3287  2.1952
 9091TIP3    H248765   5.735   2.852   1.050 -0.2384  1.4613 -1.5796
 9092TIP3   OH248766   0.500   6.338   2.917 -0.0181 -0.1610  0.1067
 9092TIP3    H148767   0.574   6.309   2.864 -0.8419  3.2679 -3.4279
 9092TIP3    H248768   0.423   6.310   2.867 -1.0758 -0.7880  2.0014
 9093TIP3   OH248769   1.114   5.439   3.716 -0.5858 -0.3083  0.1468
 9093TIP3    H148770   1.200   5.410   3.685  0.1684  0.4307  1.4722
 9093TIP3    H248771   1.115   5.420   3.810 -1.6089  0.3525  0.3009
 9094TIP3   OH248772   2.820   6.126  13.119  0.3069  0.3981  0.2081
 9094TIP3    H148773   2.808   6.214  13.154  0.5185 -0.6268  3.0637
 9094TIP3    H248774   2.905   6.130  13.074 -1.0181  2.3461 -2.4642
 9095TIP3   OH248775   4.164   0.285   5.347  0.2243 -0.6979  0.4691
 9095TIP3    H148776   4.085   0.245   5.311 -0.5610 -0.7122  2.1113
 9095TIP3    H248777   4.144   0.378   5.351  0.6789 -0.5730 -0.0059
 9096TIP3   OH248778   4.928   4.653   0.917  0.3839 -0.2862  0.0699
 9096TIP3    H148779   4.834   4.670   0.926  0.4536  0.5569 -0.5844
 9096TIP3    H248780   4.967   4.687   0.998  0.2111  0.1799 -0.0387
 9097TIP3   OH248781   5.710   6.479   6.156  0.2310 -0.1911  0.4988
 9097TIP3    H148782   5.651   6.458   6.229  1.8264  0.4063  2.0613
 9097TIP3    H248783   5.783   6.417   6.166  0.3316 -0.3123 -0.8150
 9098TIP3   OH248784   1.815   3.605  16.706  0.6503 -0.1755 -0.0303
 9098TIP3    H148785   1.800   3.548  16.782 -0.8038  1.3070  0.8712
 9098TIP3    H248786   1.846   3.687  16.744 -0.4700  0.7089 -0.9803
 9099TIP3   OH248787   4.693   4.162   5.433 -0.1084 -0.3115 -0.0553
 9099TIP3    H148788   4.662   4.207   5.511 -1.0791  0.4664 -0.8615
 9099TIP3    H248789   4.626   4.096   5.415 -0.4204  0.2051 -0.8154
 9100TIP3   OH248790   6.537   2.865  13.636  0.9481  0.1371  0.4262
 9100TIP3    H148791   6.550   2.959  13.625 -0.1350  0.2613  0.0787
 9100TIP3    H248792   6.513   2.854  13.728  1.0142  0.2137  0.4518
 9101TIP3   OH248793   5.144   3.570  12.649 -0.0581 -0.8148 -0.1631
 9101TIP3    H148794   5.210   3.556  12.717 -1.5275 -4.3814  0.7574
 9101TIP3    H248795   5.160   3.501  12.585 -0.7639  0.4676 -1.8026
 9102TIP3   OH248796   6.455   3.737   3.250  0.7305  0.1157 -0.0056
 9102TIP3    H148797   6.468   3.645   3.227  1.6090 -0.2109  1.6591
 9102TIP3    H248798   6.532   3.781   3.214  0.6217  0.1009 -0.2594
 9103TIP3   OH248799   2.760   5.742   4.198 -0.2864 -0.0890  0.2519
 9103TIP3    H148800   2.807   5.668   4.236  0.9510  2.2055  3.6298
 9103TIP3    H248801   2.812   5.767   4.121  1.0297 -0.8478  0.8669
 9104TIP3   OH248802   6.685   3.356   4.367  0.1737  0.1617  0.2699
 9104TIP3    H148803   6.773   3.379   4.337  0.2943 -0.3222  0.2381
 9104TIP3    H248804   6.629   3.370   4.290  1.0589 -5.0567 -1.7376
 9105TIP3   OH248805   2.366   6.318   5.758 -0.1130  0.0148 -0.2021
 9105TIP3    H148806   2.432   6.328   5.827  1.4310  0.9978 -1.7443
 9105TIP3    H248807   2.326   6.405   5.750  0.4518  0.2006 -1.2108
 9106TIP3   OH248808   3.156   0.637   1.087  0.3727  0.4053 -0.5038
 9106TIP3    H148809   3.130   0.556   1.131  1.1865  1.0268  1.2411
 9106TIP3    H248810   3.207   0.609   1.012  0.6892 -0.7134  0.1076
 9107TIP3   OH248811   0.702   3.487  13.739  0.0668 -0.1272 -0.2463
 9107TIP3    H148812   0.631   3.527  13.790 -0.0016  0.0164 -0.4544
 9107TIP3    H248813   0.701   3.534  13.656  1.7869  1.3643  0.4981
 9108TIP3   OH248814   0.795   0.852  16.493 -0.2273  0.5309  0.9431
 9108TIP3    H148815   0.727   0.905  16.452 -0.7683 -0.2902  0.7344
 9108TIP3    H248816   0.762   0.762  16.484  0.3590  0.2214  1.8458
 9109TIP3   OH248817   6.106   4.756  12.222  0.4206 -0.1445 -0.7791
 9109TIP3    H148818   6.062   4.731  12.303  0.6711 -1.8537 -1.1288
 9109TIP3    H248819   6.183   4.806  12.250  0.0455  0.0193 -0.0196
 9110TIP3   OH248820   3.570   1.172   4.578 -0.5159  0.2250 -0.6382
 9110TIP3    H148821   3.490   1.131   4.610 -2.5740  2.5569 -2.3560
 9110TIP3    H248822   3.589   1.126   4.496 -0.1457 -0.2305 -0.3039
 9111TIP3   OH248823   4.373   6.662   2.765  0.0119 -0.4647  0.1543
 9111TIP3    H148824   4.410   6.597   2.825 -2.9271 -0.8833  1.6581
 9111TIP3    H248825   4.344   6.611   2.690 -2.2830 -1.0323  1.3281
 9112TIP3   OH248826   0.770   2.139   6.237 -0.7167  0.4328 -0.3862
 9112TIP3    H148827   0.859   2.128   6.270 -0.2276  0.0016 -1.7985
 9112TIP3    H248828   0.775   2.215   6.179 -0.6522 -1.0896 -2.4728
 9113TIP3   OH248829   4.753   0.656  15.988  0.4570 -0.4613  0.5415
 9113TIP3    H148830   4.767   0.643  15.895 -0.6545  2.1732 -0.0623
 9113TIP3    H248831   4.664   0.623  16.004 -0.4347  1.5402  0.0290
 9114TIP3   OH248832   0.946   4.276  13.570 -0.1300 -0.1036  0.2351
 9114TIP3    H148833   1.030   4.301  13.531 -0.3800 -0.2818 -0.4371
 9114TIP3    H248834   0.968   4.203  13.629  0.6731  1.9022  2.5887
 9115TIP3   OH248835   4.406   6.519  13.276  0.0409 -0.5744 -0.0782
 9115TIP3    H148836   4.402   6.437  13.228 -0.6690 -0.2943 -0.5230
 9115TIP3    H248837   4.495   6.523  13.311  1.6420  0.5411 -3.7851
 9116TIP3   OH248838   4.133   4.399   1.523  0.6520  0.2554  0.4868
 9116TIP3    H148839   4.063   4.405   1.588  0.5768  0.2945  0.4036
 9116TIP3    H248840   4.136   4.306   1.500 -0.3213  0.4530 -0.5318
 9117TIP3   OH248841   5.253   3.227  11.185 -0.6359 -0.0466 -0.5540
 9117TIP3    H148842   5.307   3.151  11.208  0.9554  0.9796 -0.6821
 9117TIP3    H248843   5.221   3.259  11.269 -1.1930 -0.7533 -0.4869
 9118TIP3   OH248844   4.766   3.121  15.170  0.1016 -1.2553 -0.4515
 9118TIP3    H148845   4.679   3.090  15.145  0.1089 -1.4785 -0.2054
 9118TIP3    H248846   4.813   3.132  15.087 -0.1009 -1.3112 -0.5737
 9119TIP3   OH248847   0.525   3.720   0.681  0.6258 -0.2909  0.2033
 9119TIP3    H148848   0.589   3.734   0.751 -0.0273 -0.2676  0.8020
 9119TIP3    H248849   0.450   3.680   0.724  0.2838 -0.4498 -0.5208
 9120TIP3   OH248850   2.143   0.200   0.126  0.2445  0.0527 -0.1542
 9120TIP3    H148851   2.223   0.206   0.179 -0.0781 -1.4039  0.5533
 9120TIP3    H248852   2.165   0.137   0.057 -0.2558 -0.2562 -0.0304
 9121TIP3   OH248853   4.620   6.167  11.233  0.1032  0.1540 -0.1120
 9121TIP3    H148854   4.589   6.107  11.166  1.0573  0.8409 -1.1929
 9121TIP3    H248855   4.551   6.234  11.239  0.5384  0.7158 -1.2373
 9122TIP3   OH248856   2.037   0.662  13.085  0.7904 -0.0628 -0.5621
 9122TIP3    H148857   2.115   0.639  13.135  1.7711 -0.1123 -2.0595
 9122TIP3    H248858   1.979   0.586  13.095  1.2593 -0.3638 -0.1089
 9123TIP3   OH248859   3.059   1.461  11.937 -0.1940  0.0701  0.0986
 9123TIP3    H148860   2.966   1.456  11.958 -0.6719  0.4328 -1.7030
 9123TIP3    H248861   3.066   1.534  11.876  1.3121  0.1669  0.3506
 9124TIP3   OH248862   0.581   0.766   1.454  0.1071 -0.0536  0.6340
 9124TIP3    H148863   0.544   0.831   1.514  0.0586 -0.1130  0.6685
 9124TIP3    H248864   0.588   0.686   1.506 -0.1220 -0.1588  0.5054
 9125TIP3   OH248865   6.733   4.384  16.258 -0.0676 -0.3955 -0.2108
 9125TIP3    H148866   6.788   4.427  16.323  0.9389 -0.1238 -1.2157
 9125TIP3    H248867   6.781   4.305  16.234 -0.4886 -0.5588 -0.5320
 9126TIP3   OH248868   5.628   3.424   3.587  0.1085 -0.2521  0.0163
 9126TIP3    H148869   5.629   3.329   3.601  0.4667 -0.2427  0.0592
 9126TIP3    H248870   5.540   3.451   3.614  0.1568 -0.5055  0.4376
 9127TIP3   OH248871   1.617   3.269   3.719 -0.2538 -0.2096  0.4342
 9127TIP3    H148872   1.697   3.320   3.731 -1.7066  2.1893  0.5827
 9127TIP3    H248873   1.589   3.248   3.808 -0.3904 -0.0124  0.4397
 9128TIP3   OH248874   5.934   4.915  11.786  0.3862 -0.2089 -0.4145
 9128TIP3    H148875   6.004   4.863  11.825 -0.6940 -0.2515  1.6015
 9128TIP3    H248876   5.947   5.003  11.821 -1.0934 -0.4302  0.7862
 9129TIP3   OH248877   6.233   5.594  10.518 -0.2197 -0.2701  0.1011
 9129TIP3    H148878   6.196   5.629  10.437 -1.7477 -0.3786  0.7122
 9129TIP3    H248879   6.318   5.637  10.527 -1.4531  2.2930  0.1417
 9130TIP3   OH248880   6.546   5.566   0.308  0.2862  0.1637 -0.2077
 9130TIP3    H148881   6.575   5.519   0.386  3.0854  1.0115 -0.6153
 9130TIP3    H248882   6.548   5.501   0.238 -1.0537 -0.3028  0.1489
 9131TIP3   OH248883   1.851   1.476   1.251  0.4052  0.0113  0.1737
 9131TIP3    H148884   1.838   1.424   1.331  0.9035  0.5268  0.6076
 9131TIP3    H248885   1.780   1.539   1.252  0.1248 -0.2997 -0.0547
 9132TIP3   OH248886   4.259   5.719   3.048  0.4216  0.4658 -0.0431
 9132TIP3    H148887   4.173   5.725   3.091  0.9670  4.8087  0.8985
 9132TIP3    H248888   4.241   5.737   2.956  0.1463 -0.3481 -0.1506
 9133TIP3   OH248889   1.268   0.651  14.845  0.3825  0.3909 -0.1738
 9133TIP3    H148890   1.178   0.669  14.871  1.1156  1.4407  1.8934
 9133TIP3    H248891   1.284   0.561  14.873 -0.3623 -0.2341 -1.6745
 9134TIP3   OH248892   2.782   3.945   5.853  0.0624 -0.5814 -0.1822
 9134TIP3    H148893   2.707   3.966   5.908 -0.3426 -1.2482 -0.4822
 9134TIP3    H248894   2.826   3.873   5.898  0.9254  0.2462  0.3532
 9135TIP3   OH248895   4.017   4.905  12.032 -0.0937 -0.6069  0.4845
 9135TIP3    H148896   4.077   4.977  12.015 -0.8514 -0.2760 -0.9956
 9135TIP3    H248897   4.032   4.881  12.123 -1.7137  3.2314  1.9741
 9136TIP3   OH248898   2.133   5.655  12.531 -0.3540  0.0608 -0.0999
 9136TIP3    H148899   2.131   5.682  12.439  0.3908  0.9727  0.1494
 9136TIP3    H248900   2.081   5.721  12.577 -0.3176 -0.1271  0.2184
 9137TIP3   OH248901   6.579   6.132  16.666 -0.3098  0.3032  0.1673
 9137TIP3    H148902   6.513   6.081  16.712 -0.0500  1.6855  2.2276
 9137TIP3    H248903   6.530   6.205  16.627 -0.3468 -0.1564 -0.6644
 9138TIP3   OH248904   0.124   2.041   5.368  0.2653  0.0346 -0.2516
 9138TIP3    H148905   0.182   1.979   5.413 -0.7794  0.5702  1.9596
 9138TIP3    H248906   0.088   1.992   5.294  1.5434 -1.1064 -0.1477
 9139TIP3   OH248907   4.599   2.189  12.896  0.6425  0.3200 -0.1090
 9139TIP3    H148908   4.596   2.266  12.838  0.2018  1.0338  0.8391
 9139TIP3    H248909   4.688   2.191  12.933  0.3098  0.9673  0.6825
 9140TIP3   OH248910   6.070   3.564  15.494 -0.1416  0.0623 -0.1805
 9140TIP3    H148911   6.152   3.592  15.534  0.7018  0.6294 -2.1646
 9140TIP3    H248912   6.013   3.641  15.500  0.5014  0.6558 -1.3416
 9141TIP3   OH248913   1.409   4.377   3.386  0.3128 -0.3265 -0.0431
 9141TIP3    H148914   1.357   4.437   3.440  0.8709  0.3495 -0.2407
 9141TIP3    H248915   1.364   4.375   3.302  0.9191  0.7352 -0.4125
 9142TIP3   OH248916   5.910   5.412  10.469  0.1138  0.2794 -0.2319
 9142TIP3    H148917   5.896   5.459  10.551  0.6401  1.7355 -0.9450
 9142TIP3    H248918   5.998   5.375  10.477 -0.5588 -1.2296  0.6089
 9143TIP3   OH248919   0.642   0.395  13.266  0.0779  0.9880  0.1187
 9143TIP3    H148920   0.566   0.406  13.324  0.1514 -1.1999  0.7077
 9143TIP3    H248921   0.609   0.418  13.179 -1.2415  0.1912  0.3862
 9144TIP3   OH248922   5.336   6.404  15.464 -0.4576 -0.0661  0.2918
 9144TIP3    H148923   5.318   6.470  15.398 -0.2970  1.0177  1.2994
 9144TIP3    H248924   5.250   6.380  15.499 -0.4441  0.4237  0.6755
 9145TIP3   OH248925   2.694   5.637  13.346 -0.2383 -0.5793 -0.0313
 9145TIP3    H148926   2.670   5.726  13.323  0.5471 -0.3022  0.1964
 9145TIP3    H248927   2.717   5.596  13.263 -0.6325 -0.5918 -0.1409
 9146TIP3   OH248928   0.460   4.391  11.259  0.0999  0.5203  0.4428
 9146TIP3    H148929   0.537   4.392  11.203 -0.6274  1.2108 -0.5838
 9146TIP3    H248930   0.442   4.483  11.277 -0.2179  0.3435  1.0535
 9147TIP3   OH248931   3.292   6.129  13.253 -0.6855  0.6458  0.0097
 9147TIP3    H148932   3.238   6.156  13.179 -0.8349  2.3934  0.7046
 9147TIP3    H248933   3.373   6.097  13.214 -0.7102  1.6589 -0.9091
 9148TIP3   OH248934   1.665   5.726   0.094  0.3196  0.6123  0.1798
 9148TIP3    H148935   1.581   5.765   0.069  0.4306  0.6390 -0.1516
 9148TIP3    H248936   1.660   5.635   0.066 -1.0685 -0.4867  3.4699
 9149TIP3   OH248937   0.557   2.781  12.373  0.0682  0.1692 -0.0403
 9149TIP3    H148938   0.585   2.783  12.465  0.3857 -1.5967 -0.0679
 9149TIP3    H248939   0.631   2.740  12.327 -0.7573 -0.4622 -0.8272
 9150TIP3   OH248940   1.263   0.618  14.028  0.4174  0.1475 -0.0272
 9150TIP3    H148941   1.307   0.686  14.079  1.1435  0.7155 -1.3364
 9150TIP3    H248942   1.322   0.543  14.033  2.1821  1.2053 -2.5690
 9151TIP3   OH248943   1.120   3.269  14.380 -0.3716  0.0229 -0.5850
 9151TIP3    H148944   1.093   3.339  14.321 -0.3098  0.4311 -0.1325
 9151TIP3    H248945   1.100   3.302  14.467  1.9505  0.5381 -0.1721
 9152TIP3   OH248946   2.985   6.606   1.350 -0.0241 -0.1358  0.3568
 9152TIP3    H148947   3.049   6.671   1.379  0.0979 -0.2489  0.3466
 9152TIP3    H248948   3.026   6.522   1.371 -0.3360 -0.2043  0.7031
 9153TIP3   OH248949   1.981   4.499  14.911  0.1683 -0.1778  0.0125
 9153TIP3    H148950   1.979   4.588  14.948 -0.8882 -0.1898  0.0155
 9153TIP3    H248951   1.894   4.487  14.873  1.0555 -0.3267 -2.1239
 9154TIP3   OH248952   3.659   4.295  11.104 -0.1701 -0.5172  0.2050
 9154TIP3    H148953   3.588   4.359  11.110 -0.5372 -0.9487  0.4954
 9154TIP3    H248954   3.714   4.327  11.032 -0.7085 -0.2368 -0.0866
 9155TIP3   OH248955   6.782   0.524   0.656  0.1961  0.2695 -0.6665
 9155TIP3    H148956   6.860   0.490   0.700  0.9495  3.2434  0.5741
 9155TIP3    H248957   6.726   0.555   0.727 -2.4345 -2.1574 -1.5050
 9156TIP3   OH248958   1.228   2.436  13.160 -0.5680  0.3806 -0.0554
 9156TIP3    H148959   1.222   2.342  13.175 -0.7994  0.4511  0.3117
 9156TIP3    H248960   1.301   2.446  13.099 -0.4966 -0.0305 -0.0408
 9157TIP3   OH248961   5.688   0.551   0.040  0.2375  0.1269 -0.2431
 9157TIP3    H148962   5.761   0.532   0.099 -0.9506 -0.9330  0.9711
 9157TIP3    H248963   5.675   0.646   0.046  0.5716  0.1212  0.6947
 9158TIP3   OH248964   2.578   2.544  10.587  0.4883 -0.3772  0.3104
 9158TIP3    H148965   2.490   2.518  10.561  0.1103 -0.1409  1.2937
 9158TIP3    H248966   2.594   2.626  10.540  0.9788 -1.4055 -1.4035
 9159TIP3   OH248967   4.235   0.274   0.908  0.3559  0.3492  0.0324
 9159TIP3    H148968   4.241   0.182   0.882  0.2643  0.6842 -1.2491
 9159TIP3    H248969   4.183   0.315   0.839  1.5536  1.6366 -0.1645
 9160TIP3   OH248970   6.216   2.320  11.629  0.2397  0.0898  0.5414
 9160TIP3    H148971   6.169   2.259  11.571 -1.5611  0.4296  1.5680
 9160TIP3    H248972   6.291   2.348  11.577 -0.0538 -1.3636 -0.7613
 9161TIP3   OH248973   3.653   2.718   5.268  0.5070  0.6202  0.3032
 9161TIP3    H148974   3.661   2.643   5.210  1.1918  0.4993  0.5492
 9161TIP3    H248975   3.715   2.782   5.234 -0.0527  1.0689  0.1128
 9162TIP3   OH248976   1.600   0.791  11.525 -0.8938 -0.3184  0.0492
 9162TIP3    H148977   1.632   0.781  11.435 -2.7667 -0.8803 -0.6125
 9162TIP3    H248978   1.667   0.749  11.579 -0.7811 -2.0234 -1.3141
 9163TIP3   OH248979   6.213   2.803  15.537 -0.5583 -0.4274 -0.5137
 9163TIP3    H148980   6.212   2.898  15.527 -0.3307 -0.4822 -1.1077
 9163TIP3    H248981   6.288   2.785  15.593 -1.3532 -0.1706  0.6853
 9164TIP3   OH248982   6.484   3.591  13.837 -0.5012  0.2683 -0.9323
 9164TIP3    H148983   6.565   3.543  13.821  0.5904  0.9631  1.9761
 9164TIP3    H248984   6.486   3.664  13.775  0.6005 -0.2825 -1.5639
 9165TIP3   OH248985   5.553   3.409  11.935  0.4590 -0.3429 -0.1044
 9165TIP3    H148986   5.490   3.404  12.007 -1.3333 -1.0600 -1.6418
 9165TIP3    H248987   5.547   3.499  11.903  0.2159 -0.4163 -0.2620
 9166TIP3   OH248988   4.232   3.900  14.969  0.0639 -0.4687 -0.9986
 9166TIP3    H148989   4.151   3.950  14.957 -0.4206 -1.4508 -2.0039
 9166TIP3    H248990   4.298   3.947  14.919 -0.2705 -0.5411 -1.5131
 9167TIP3   OH248991   0.266   0.696  12.037 -0.5709  0.1437  0.9226
 9167TIP3    H148992   0.199   0.672  11.974  0.4182  2.6465 -1.2573
 9167TIP3    H248993   0.330   0.625  12.032 -0.8193 -0.0133 -0.4414
 9168TIP3   OH248994   1.435   5.060  15.880 -0.0554 -0.0243 -0.1406
 9168TIP3    H148995   1.383   5.139  15.864  0.4753  0.1772 -0.9217
 9168TIP3    H248996   1.525   5.091  15.884  0.1837 -0.6317 -0.7344
 9169TIP3   OH248997   5.493   1.000  10.705 -0.2823 -0.6606  0.0465
 9169TIP3    H148998   5.511   1.093  10.694 -0.4241 -0.5490  0.6874
 9169TIP3    H248999   5.437   0.996  10.783 -0.0865 -1.2990  0.1595
 9170TIP3   OH249000   3.107   3.083   1.933  0.3574  0.0791  0.0424
 9170TIP3    H149001   3.078   3.014   1.992 -0.4289 -0.8324 -1.3457
 9170TIP3    H249002   3.202   3.087   1.944  0.3092 -0.6385  0.7573
 9171TIP3   OH249003   4.298   5.317   3.499 -0.8065 -0.1747  0.3717
 9171TIP3    H149004   4.348   5.362   3.566 -2.1620  0.1945  1.1817
 9171TIP3    H249005   4.359   5.307   3.426 -0.0494  1.7047  0.6932
 9172TIP3   OH249006   3.003   5.078  14.811  0.1587 -0.2154 -0.6275
 9172TIP3    H149007   3.029   5.070  14.719 -0.0227 -0.7403 -0.6355
 9172TIP3    H249008   2.978   5.170  14.821  1.6088  0.2189 -0.7210
 9173TIP3   OH249009   3.466   0.471  14.026  0.2594  0.0011  0.5767
 9173TIP3    H149010   3.463   0.548  13.970 -3.3587  1.1974  2.1362
 9173TIP3    H249011   3.538   0.489  14.086  1.2235  0.8337 -0.7578
 9174TIP3   OH249012   1.516   5.975  15.584 -0.0819  0.7481  0.9097
 9174TIP3    H149013   1.565   6.057  15.578 -1.1865  1.3504 -1.0173
 9174TIP3    H249014   1.495   5.953  15.493 -0.5703 -1.2242  1.4382
 9175TIP3   OH249015   1.086   0.428  13.175 -0.5709 -0.0989 -0.3777
 9175TIP3    H149016   1.011   0.482  13.204  1.0825  1.4769  1.2157
 9175TIP3    H249017   1.058   0.392  13.090 -3.1898  0.2646  0.2506
 9176TIP3   OH249018   6.492   6.623   1.054  0.0537 -0.3582  0.1654
 9176TIP3    H149019   6.450   6.656   1.134 -0.4294  0.3962 -0.3803
 9176TIP3    H249020   6.548   6.695   1.026 -0.9829  0.0346 -1.0293
 9177TIP3   OH249021   1.339   4.250   6.281 -0.6085 -0.6432  0.1452
 9177TIP3    H149022   1.354   4.158   6.304  1.3375 -0.2627  0.5377
 9177TIP3    H249023   1.245   4.263   6.295 -0.5931 -2.0613  1.9521
 9178TIP3   OH249024   6.234   1.752  12.955  0.0911  0.5692  0.5695
 9178TIP3    H149025   6.161   1.800  12.916  0.6960  0.2089 -1.0752
 9178TIP3    H249026   6.204   1.662  12.960  0.0225  0.6095  0.9566
 9179TIP3   OH249027   5.539   0.003   5.591  0.8253  0.9943  0.3959
 9179TIP3    H149028   5.630  -0.023   5.578  0.3642 -1.2264  1.0446
 9179TIP3    H249029   5.526  -0.002   5.686  0.0567  1.3462  0.3164
 9180TIP3   OH249030   0.785   5.349   0.666 -0.0218 -0.0376 -0.2121
 9180TIP3    H149031   0.863   5.396   0.636 -0.3867  0.4359 -0.4259
 9180TIP3    H249032   0.815   5.260   0.682  0.2630 -0.2092 -1.6068
 9181TIP3   OH249033   1.073   5.547  13.222 -0.0803 -0.4255 -0.0974
 9181TIP3    H149034   1.162   5.581  13.229 -0.0139 -0.5318 -0.4164
 9181TIP3    H249035   1.083   5.452  13.222  0.1880 -0.5623 -4.0640
 9182TIP3   OH249036   0.261   4.469  12.628  0.1647 -0.1606  0.0562
 9182TIP3    H149037   0.352   4.475  12.600  0.7640 -1.4403  1.6094
 9182TIP3    H249038   0.261   4.405  12.699 -1.7862  0.5635  0.7950
 9183TIP3   OH249039   0.216   1.981   4.410  0.7121  0.7685  0.2533
 9183TIP3    H149040   0.214   1.957   4.503  0.7148 -0.5324 -0.0612
 9183TIP3    H249041   0.230   2.075   4.410  0.0056  0.9050  1.5891
 9184TIP3   OH249042   0.383   1.347   4.011 -0.7269 -0.7789  0.2214
 9184TIP3    H149043   0.316   1.332   3.944 -0.5158 -0.2339 -0.1217
 9184TIP3    H249044   0.465   1.353   3.961 -0.2092 -2.8254  0.7615
 9185TIP3   OH249045   4.400   0.758   6.123 -0.7074  0.3401  0.2039
 9185TIP3    H149046   4.324   0.734   6.176  0.6076 -2.2881  1.0763
 9185TIP3    H249047   4.475   0.726   6.173  1.0607  2.8336 -0.6243
 9186TIP3   OH249048   1.001   6.666  10.172 -0.1898 -0.4653 -0.2994
 9186TIP3    H149049   1.012   6.571  10.165  0.0177 -0.5005  0.3741
 9186TIP3    H249050   1.060   6.691  10.244 -0.4229  0.1381 -0.3171
 9187TIP3   OH249051   0.050   5.586   4.189 -0.0338 -0.0696 -0.1207
 9187TIP3    H149052   0.050   5.680   4.172  0.2002 -0.4200 -2.2515
 9187TIP3    H249053   0.033   5.579   4.283 -0.1737  2.0830  0.0599
 9188TIP3   OH249054   4.008   5.680   4.977  0.0119  0.4199  0.1158
 9188TIP3    H149055   4.085   5.624   4.976 -0.6304 -0.4889 -0.1219
 9188TIP3    H249056   3.940   5.628   4.935 -0.7990  1.1121  0.5286
 9189TIP3   OH249057   2.571   4.860  16.279  0.0772 -0.2536  0.1703
 9189TIP3    H149058   2.570   4.951  16.251  1.5376  0.1714  1.3529
 9189TIP3    H249059   2.515   4.859  16.357 -0.2991 -0.4807 -0.0978
 9190TIP3   OH249060   5.650   4.861   1.538  0.4995  0.2149 -0.4504
 9190TIP3    H149061   5.657   4.800   1.465 -0.8196 -0.8455  0.2647
 9190TIP3    H249062   5.644   4.806   1.616  0.4506  1.2848  0.3340
 9191TIP3   OH249063   0.742   1.121   6.177 -0.4903  0.1422 -0.2080
 9191TIP3    H149064   0.685   1.054   6.212 -1.9405  0.6952 -1.4231
 9191TIP3    H249065   0.815   1.073   6.137  1.0325 -0.5230  3.0033
 9192TIP3   OH249066   5.821   6.696  12.708 -0.0484  0.1745  0.6598
 9192TIP3    H149067   5.813   6.790  12.727  1.5400  0.6715 -0.9337
 9192TIP3    H249068   5.877   6.662  12.778 -1.7417  0.0786  2.0425
 9193TIP3   OH249069   3.213   1.738   6.709 -0.4844 -0.4788 -0.1299
 9193TIP3    H149070   3.206   1.783   6.794 -2.1318 -0.7893 -0.0610
 9193TIP3    H249071   3.271   1.793   6.658 -1.5245  1.1524  0.3451
 9194TIP3   OH249072   2.226   4.858   5.784  0.2823 -0.5424 -0.3120
 9194TIP3    H149073   2.190   4.945   5.766 -3.1429 -1.5680  0.9268
 9194TIP3    H249074   2.321   4.872   5.787 -0.1641  3.3437  0.8607
 9195TIP3   OH249075   0.753   5.709   2.302  0.3778 -0.4916 -0.1843
 9195TIP3    H149076   0.763   5.800   2.274 -0.9553  0.2935  1.6938
 9195TIP3    H249077   0.825   5.695   2.363 -1.2604  0.4808  2.1335
 9196TIP3   OH249078   1.888   5.086   4.634  0.1804  0.8260  0.1840
 9196TIP3    H149079   1.958   5.107   4.697 -0.4576  0.9296  0.8647
 9196TIP3    H249080   1.873   4.992   4.645  0.2838  0.7800 -0.0483
 9197TIP3   OH249081   1.926   4.069  17.091 -0.0828  0.2924 -0.2888
 9197TIP3    H149082   1.862   3.999  17.080 -0.7870  0.9565 -0.5127
 9197TIP3    H249083   1.899   4.114  17.172 -0.5354  1.2070 -0.9253
 9198TIP3   OH249084   5.966   2.376  15.728  0.4484  0.7187 -0.0312
 9198TIP3    H149085   5.885   2.330  15.707  1.1081 -0.5866  0.1940
 9198TIP3    H249086   5.938   2.463  15.757 -0.7961  0.6274 -0.9007
 9199TIP3   OH249087   4.196   3.200  11.033 -0.3921 -0.0390  0.1307
 9199TIP3    H149088   4.193   3.157  11.119  0.1071  0.4107  0.3796
 9199TIP3    H249089   4.108   3.237  11.022 -0.9083 -1.2862 -0.1881
 9200TIP3   OH249090   4.659   4.190  11.219 -0.0498  0.2124  0.3383
 9200TIP3    H149091   4.579   4.228  11.255 -0.5405  1.1919 -1.6471
 9200TIP3    H249092   4.632   4.104  11.187 -0.2570  0.4173 -0.0495
 9201TIP3   OH249093   2.952   6.127   5.418  0.4632 -0.1542  0.4584
 9201TIP3    H149094   2.908   6.055   5.463  0.2730 -0.6714 -0.5214
 9201TIP3    H249095   3.045   6.112   5.435  0.5646 -1.6689 -1.1543
 9202TIP3   OH249096   2.294   3.287   0.672  0.0103  0.4642  0.0995
 9202TIP3    H149097   2.360   3.353   0.690 -0.5650  1.7557 -2.1178
 9202TIP3    H249098   2.216   3.316   0.719 -0.0947  1.1369 -0.4702
 9203TIP3   OH249099   4.381   6.525   5.542  0.5098 -0.8887 -0.8197
 9203TIP3    H149100   4.398   6.479   5.624 -0.7172  0.1311  0.0386
 9203TIP3    H249101   4.436   6.603   5.546 -0.7962  0.0378 -0.1486
 9204TIP3   OH249102   3.660   2.935   1.845 -0.1857  0.3792 -0.1173
 9204TIP3    H149103   3.694   2.999   1.908 -0.3186  1.4235 -1.0628
 9204TIP3    H249104   3.566   2.955   1.839 -0.5486 -0.9540  0.7393
 9205TIP3   OH249105   1.334   4.383  12.483  0.3675 -0.2145 -0.4807
 9205TIP3    H149106   1.327   4.339  12.399  0.3069 -1.2997  0.0811
 9205TIP3    H249107   1.254   4.358  12.530 -0.8956  2.4330 -1.0107
 9206TIP3   OH249108   2.496   4.262  13.983  0.4967  0.2664  0.0265
 9206TIP3    H149109   2.508   4.313  14.063  0.4233  0.1307  0.1242
 9206TIP3    H249110   2.402   4.244  13.979  0.6474 -0.6589  0.4846
 9207TIP3   OH249111   3.901   0.467   4.717 -0.3147  0.2826 -0.1578
 9207TIP3    H149112   3.903   0.552   4.759 -0.8897  0.1217  0.2045
 9207TIP3    H249113   3.834   0.417   4.765 -1.9107  0.4993 -1.9951
 9208TIP3   OH249114   0.321   6.175  11.325 -0.0835  0.3616 -0.2577
 9208TIP3    H149115   0.285   6.211  11.244 -0.2013 -0.5189 -0.6066
 9208TIP3    H249116   0.264   6.101  11.346 -0.7169  1.2388  1.2377
 9209TIP3   OH249117   0.563   2.927  11.187 -0.5912 -0.2335 -0.0895
 9209TIP3    H149118   0.559   2.840  11.147 -1.7149 -0.2115 -0.0473
 9209TIP3    H249119   0.537   2.987  11.117  0.9268  0.1671 -0.3456
 9210TIP3   OH249120   1.644   0.843  16.863 -0.3686 -0.3570 -0.1388
 9210TIP3    H149121   1.676   0.785  16.932  0.3733  0.8918  0.6160
 9210TIP3    H249122   1.695   0.818  16.786  1.4718  0.5974  0.6862
 9211TIP3   OH249123   3.750   3.228   1.595  0.2773 -0.2837  0.0311
 9211TIP3    H149124   3.667   3.211   1.638  0.9183 -0.2365  1.3333
 9211TIP3    H249125   3.727   3.243   1.503 -1.1781  0.0626  0.4295
 9212TIP3   OH249126   0.386   5.936  15.781  0.0331  0.1712 -0.3841
 9212TIP3    H149127   0.314   5.981  15.826 -0.0580 -0.0899 -0.2662
 9212TIP3    H249128   0.436   5.895  15.851  0.1129  0.0843 -0.4915
 9213TIP3   OH249129   6.566   6.192  16.966  0.4568  0.4070 -0.2231
 9213TIP3    H149130   6.611   6.259  16.915  0.6323  0.5415  0.1027
 9213TIP3    H249131   6.521   6.138  16.901  1.6359 -0.1528 -0.6035
 9214TIP3   OH249132   5.022   4.459  15.313 -0.8688  0.2170 -0.0911
 9214TIP3    H149133   4.988   4.371  15.299 -0.7285  0.1403  0.0582
 9214TIP3    H249134   4.945   4.511  15.335 -0.8249 -0.0542  0.7155
 9215TIP3   OH249135   5.564   2.360  15.892  0.6002 -0.1149  0.0077
 9215TIP3    H149136   5.613   2.329  15.816 -0.6929 -0.9570 -0.5310
 9215TIP3    H249137   5.472   2.347  15.868 -0.0249  2.8469  0.3336
 9216TIP3   OH249138   3.189   3.150  12.168  0.1245  0.1428 -0.3604
 9216TIP3    H149139   3.180   3.137  12.074  1.5436  0.6035 -0.5728
 9216TIP3    H249140   3.201   3.063  12.204  0.2405  0.0276 -0.6793
 9217TIP3   OH249141   1.446   3.879  14.251  0.3345 -0.3711  0.8647
 9217TIP3    H149142   1.475   3.841  14.168 -0.9490 -0.6483  0.5238
 9217TIP3    H249143   1.396   3.956  14.226  1.5726  0.6715  1.4862
 9218TIP3   OH249144   2.358   4.079   1.402 -0.5826  0.0727  0.1964
 9218TIP3    H149145   2.372   4.131   1.323 -0.6165  3.8454  2.4341
 9218TIP3    H249146   2.444   4.044   1.424 -0.5012 -0.6793 -1.1936
 9219TIP3   OH249147   3.830   3.832  13.277 -0.0121  0.2957  0.2454
 9219TIP3    H149148   3.846   3.773  13.203  0.1429  1.8903 -1.0598
 9219TIP3    H249149   3.754   3.884  13.250 -1.0948 -0.2771  2.0109
 9220TIP3   OH249150   1.680   5.349   0.688 -0.3969 -0.0769  0.3877
 9220TIP3    H149151   1.703   5.434   0.652 -1.0808  0.0543  0.2387
 9220TIP3    H249152   1.700   5.287   0.619 -0.1944 -0.0030  0.3794
 9221TIP3   OH249153   5.395   1.878   5.124  0.1456 -0.6395  0.4343
 9221TIP3    H149154   5.468   1.829   5.086  1.9265  1.6338  0.7107
 9221TIP3    H249155   5.363   1.823   5.195  0.8410 -2.1809 -0.3979
 9222TIP3   OH249156   3.786   3.715   5.248  0.1651 -0.1418  0.7359
 9222TIP3    H149157   3.843   3.672   5.184 -1.1477  0.4223 -0.8786
 9222TIP3    H249158   3.706   3.664   5.247  0.7555 -1.2934  3.4372
 9223TIP3   OH249159   2.312   1.613   0.540  0.5554  0.7623 -0.0879
 9223TIP3    H149160   2.253   1.561   0.594  1.6575 -1.1421 -0.6412
 9223TIP3    H249161   2.272   1.700   0.538 -1.1413  0.0625  1.1904
 9224TIP3   OH249162   6.689   0.252   1.395  0.1761 -0.8069 -0.0976
 9224TIP3    H149163   6.618   0.218   1.341 -0.0794 -0.1906 -0.1617
 9224TIP3    H249164   6.765   0.254   1.337 -0.5666  1.8726 -1.1738
 9225TIP3   OH249165   0.158   3.833  13.201  0.3245 -0.6861 -0.1457
 9225TIP3    H149166   0.071   3.810  13.235  0.2904 -0.2909  0.0427
 9225TIP3    H249167   0.219   3.781  13.254  0.3106  0.3313  0.9232
 9226TIP3   OH249168   2.689   3.289   0.630  0.1657 -0.4777  0.8252
 9226TIP3    H149169   2.643   3.214   0.593  0.2652  0.1668 -0.6988
 9226TIP3    H249170   2.727   3.257   0.711 -1.2303 -1.5886  1.0709
 9227TIP3   OH249171   2.639   6.440   4.432  0.4664  0.0367 -0.4071
 9227TIP3    H149172   2.670   6.360   4.474  2.8391  0.5900 -0.9558
 9227TIP3    H249173   2.644   6.507   4.500 -0.2827  0.0100 -0.3101
 9228TIP3   OH249174   6.502   0.565  11.818 -0.0493 -0.5169 -0.0983
 9228TIP3    H149175   6.507   0.474  11.846 -1.5540 -0.6765 -0.2507
 9228TIP3    H249176   6.411   0.577  11.791  0.1035  1.0545 -0.0277
 9229TIP3   OH249177   1.875   3.721   0.240  0.7156 -0.0462  0.1764
 9229TIP3    H149178   1.929   3.774   0.299  1.3649 -1.7528  1.1747
 9229TIP3    H249179   1.794   3.706   0.290  1.4084 -1.7940  0.8495
 9230TIP3   OH249180   2.776   4.662   1.826 -0.2106 -0.1634 -0.1627
 9230TIP3    H149181   2.717   4.736   1.832  1.1958  1.0143 -0.2324
 9230TIP3    H249182   2.778   4.625   1.914 -0.5138  0.2025 -0.0033
 9231TIP3   OH249183   0.160   1.675   3.705 -0.5430 -0.4450 -0.4412
 9231TIP3    H149184   0.129   1.722   3.782  0.8178 -0.7168  0.3029
 9231TIP3    H249185   0.243   1.636   3.733  0.5582  0.3978 -2.3942
 9232TIP3   OH249186   1.420   5.539  16.156  0.1435 -0.1549 -0.4021
 9232TIP3    H149187   1.325   5.538  16.156  0.0592 -3.0964 -2.3905
 9232TIP3    H249188   1.444   5.515  16.246 -0.9070  1.1321  0.2631
 9233TIP3   OH249189   1.846   1.574  17.168 -0.7261  0.3663 -0.3938
 9233TIP3    H149190   1.817   1.608  17.084  0.1306 -0.1796 -0.9242
 9233TIP3    H249191   1.842   1.650  17.227 -1.0400  0.8251 -0.9936
 9234TIP3   OH249192   6.043   2.918   3.303 -0.3149 -0.3370  0.1332
 9234TIP3    H149193   6.058   2.907   3.209 -1.2418 -0.1544 -0.0405
 9234TIP3    H249194   6.073   3.007   3.321  1.1179 -0.8223  0.2862
 9235TIP3   OH249195   6.406   0.404  13.775 -0.5317  0.3582 -0.0834
 9235TIP3    H149196   6.483   0.379  13.825  0.3057  1.1231 -0.9511
 9235TIP3    H249197   6.388   0.329  13.718  0.5271  0.7721 -0.9879
 9236TIP3   OH249198   0.964   4.398  14.134  0.2223 -0.2981 -0.0030
 9236TIP3    H149199   0.937   4.344  14.209  2.0098  0.5686  1.3466
 9236TIP3    H249200   0.929   4.353  14.058 -0.4893 -1.9745  1.2591
 9237TIP3   OH249201   2.855   2.853  15.480 -0.1068  0.2622 -0.4302
 9237TIP3    H149202   2.836   2.759  15.481 -0.7193  0.3694 -1.3493
 9237TIP3    H249203   2.941   2.859  15.438 -0.3663  0.1546 -0.9885
 9238TIP3   OH249204   4.187   0.824  14.973 -0.1315 -0.3700 -0.2322
 9238TIP3    H149205   4.235   0.843  14.892  0.5901 -1.0377  0.0316
 9238TIP3    H249206   4.235   0.752  15.013  0.1876  0.6930  1.3753
 9239TIP3   OH249207   6.069   3.944  12.469 -0.2622 -0.0759 -0.5958
 9239TIP3    H149208   5.990   3.983  12.505 -1.1912 -0.1137 -2.4864
 9239TIP3    H249209   6.094   3.877  12.532 -2.4664 -0.9153 -0.5397
 9240TIP3   OH249210   6.412   5.688  15.266  0.0815 -0.6744  0.2234
 9240TIP3    H149211   6.359   5.755  15.222  1.4115 -0.2821 -0.8348
 9240TIP3    H249212   6.352   5.614  15.277 -0.7387 -0.1964 -0.8239
 9241TIP3   OH249213   5.961   4.314  14.066  0.0455 -0.3125 -0.6936
 9241TIP3    H149214   5.895   4.292  14.000  0.4309 -0.0562 -1.1746
 9241TIP3    H249215   5.910   4.336  14.144 -0.3777 -3.2731 -0.0188
 9242TIP3   OH249216   0.349   4.045  14.618  0.2877 -0.1481 -0.3200
 9242TIP3    H149217   0.379   3.981  14.553  0.0560 -1.1301  0.5181
 9242TIP3    H249218   0.424   4.059  14.675 -0.4136 -1.6847  1.0514
 9243TIP3   OH249219   5.352   3.222   3.137 -0.3545  0.1588 -0.1266
 9243TIP3    H149220   5.350   3.136   3.096 -0.4780 -1.7092  3.3993
 9243TIP3    H249221   5.446   3.243   3.144 -0.1946 -0.7758  0.8813
 9244TIP3   OH249222   1.932   0.581   3.439  0.2696  0.1785 -0.1102
 9244TIP3    H149223   1.843   0.577   3.475 -0.0551  0.8228 -0.8038
 9244TIP3    H249224   1.967   0.663   3.473  0.3545  0.2561 -0.3887
 9245TIP3   OH249225   3.646   6.706  12.338  0.6368 -0.6091 -0.2392
 9245TIP3    H149226   3.626   6.715  12.244 -0.9857 -0.7672  0.0588
 9245TIP3    H249227   3.738   6.681  12.340  1.4152  1.8370 -1.6614
 9246TIP3   OH249228   5.923   5.938   5.624  0.4043  0.1206 -0.2438
 9246TIP3    H149229   6.008   5.981   5.637  0.3701 -0.0353  0.5556
 9246TIP3    H249230   5.859   6.007   5.635  0.4299  0.3820 -1.5112
 9247TIP3   OH249231   0.033   2.493   3.638 -0.1782  0.3994  0.1020
 9247TIP3    H149232   0.117   2.521   3.675  0.5421 -1.4450 -0.0378
 9247TIP3    H249233  -0.014   2.455   3.713 -0.6222  0.7745  0.0246
 9248TIP3   OH249234   0.210   3.655  13.409 -0.3234 -0.5236 -0.6660
 9248TIP3    H149235   0.144   3.592  13.380 -1.0998 -0.1792  0.3219
 9248TIP3    H249236   0.294   3.611  13.391 -0.8470 -1.8043 -0.1090
 9249TIP3   OH249237   3.654   3.549  15.325 -0.0754  0.3220 -0.2888
 9249TIP3    H149238   3.681   3.626  15.375 -1.2700 -0.1075  1.1012
 9249TIP3    H249239   3.703   3.554  15.243  0.6751  1.9687  0.2324
 9250TIP3   OH249240   2.563   3.707   4.103  0.0760 -0.2219  0.2215
 9250TIP3    H149241   2.657   3.725   4.111 -0.1808  1.1880  0.3209
 9250TIP3    H249242   2.555   3.662   4.019  0.7339  0.5252 -0.2562
 9251TIP3   OH249243   6.604   4.075   2.309 -0.4663  0.1196 -0.1926
 9251TIP3    H149244   6.645   4.016   2.372  0.6487  2.2306  1.2216
 9251TIP3    H249245   6.510   4.063   2.322 -0.2790 -1.5886 -0.2579
 9252TIP3   OH249246   5.473   3.947  11.969 -0.5529 -0.5970 -0.0707
 9252TIP3    H149247   5.442   3.937  11.879 -1.1980  0.0898  0.0583
 9252TIP3    H249248   5.521   4.030  11.968 -1.9549  0.2661  0.5515
 9253TIP3   OH249249   0.640   4.967  14.245  0.0557 -0.3935 -1.0126
 9253TIP3    H149250   0.564   4.972  14.187  0.1306 -0.3261 -1.1063
 9253TIP3    H249251   0.644   4.875  14.271 -0.6535 -0.2058 -0.1978
 9254TIP3   OH249252   0.664   0.879   5.096  0.2445 -0.1241 -0.6790
 9254TIP3    H149253   0.619   0.956   5.131 -0.5121 -0.1667 -1.5284
 9254TIP3    H249254   0.739   0.867   5.154 -2.2264 -1.6655  2.5136
 9255TIP3   OH249255   4.419   0.327  15.197  0.2899  0.3593 -0.0618
 9255TIP3    H149256   4.489   0.305  15.258  1.3181  1.5476 -0.7482
 9255TIP3    H249257   4.400   0.245  15.151  2.1678  0.2854 -0.7719
 9256TIP3   OH249258   3.282   5.292   5.839 -0.6471 -0.1840 -0.4603
 9256TIP3    H149259   3.211   5.283   5.903 -2.0404 -0.1577 -1.9519
 9256TIP3    H249260   3.241   5.274   5.755  0.9431  0.6936 -1.4654
 9257TIP3   OH249261   5.352   1.518   1.604  0.4734 -0.3095  0.2990
 9257TIP3    H149262   5.258   1.532   1.618  0.6287  0.6117  0.4618
 9257TIP3    H249263   5.388   1.606   1.591  1.5074 -0.5324  1.4959
 9258TIP3   OH249264   1.907   1.248  14.420 -0.6585 -0.4095  0.4884
 9258TIP3    H149265   1.975   1.264  14.486 -1.0778 -0.0709  0.8435
 9258TIP3    H249266   1.843   1.318  14.433 -2.1046 -1.8499  1.4904
 9259TIP3   OH249267   3.872   1.093   4.026  0.2530 -0.2680 -0.5007
 9259TIP3    H149268   3.918   1.170   4.059  0.9357  0.3927 -2.7947
 9259TIP3    H249269   3.803   1.077   4.090  2.1663  0.1427  1.8281
 9260TIP3   OH249270   3.280   0.539  16.137  0.1931  0.4454 -0.6018
 9260TIP3    H149271   3.303   0.446  16.145  0.5111  0.6876  2.2124
 9260TIP3    H249272   3.292   0.559  16.044  0.7061 -2.1603 -1.1649
 9261TIP3   OH249273   0.275   1.348  12.415  0.0496  0.2393 -0.1500
 9261TIP3    H149274   0.265   1.276  12.353  0.8411 -0.5455  0.5956
 9261TIP3    H249275   0.346   1.320  12.473  1.0895  2.0823 -0.4694
 9262TIP3   OH249276   3.597   5.889   4.706 -0.4519 -0.2168 -0.6354
 9262TIP3    H149277   3.533   5.916   4.772 -0.3030 -0.7000 -0.2921
 9262TIP3    H249278   3.631   5.972   4.670  0.8504  0.1189  1.2261
 9263TIP3   OH249279   3.326   4.175  11.924 -0.5839  0.2710  0.3086
 9263TIP3    H149280   3.293   4.263  11.908  0.3010  0.3640 -1.1976
 9263TIP3    H249281   3.420   4.181  11.909 -0.6157 -1.0955 -0.6705
 9264TIP3   OH249282   1.828   5.985   1.630 -0.0684  0.0258 -0.1251
 9264TIP3    H149283   1.877   5.950   1.704 -0.5263 -2.7154 -1.0072
 9264TIP3    H249284   1.887   5.979   1.555 -1.0346 -1.4914 -0.8174
 9265TIP3   OH249285   3.678   5.882  14.441  0.1034 -0.4828  0.2434
 9265TIP3    H149286   3.688   5.796  14.482 -0.1175 -0.4312  0.4075
 9265TIP3    H249287   3.726   5.875  14.358 -0.3503 -0.9360  0.0136
 9266TIP3   OH249288   3.195   4.920  11.211 -0.0630 -0.2496  0.2951
 9266TIP3    H149289   3.116   4.947  11.165 -0.1952 -2.0408 -0.5887
 9266TIP3    H249290   3.251   4.998  11.208 -0.4257  0.0096 -2.1162
 9267TIP3   OH249291   0.278   0.449   0.539 -0.1876  0.6223  0.4507
 9267TIP3    H149292   0.322   0.375   0.581  1.8762  1.1138 -0.6901
 9267TIP3    H249293   0.205   0.410   0.491  1.7726 -0.9920 -1.4278
 9268TIP3   OH249294   3.536   6.606  13.404  0.5660 -0.6816  0.1555
 9268TIP3    H149295   3.576   6.546  13.467  1.3524 -0.2802  0.0477
 9268TIP3    H249296   3.487   6.549  13.344 -1.2516 -1.0031  1.8288
 9269TIP3   OH249297   3.586   5.450  13.091 -0.6602 -0.2175 -0.3817
 9269TIP3    H149298   3.520   5.518  13.098 -0.5038 -0.1511  0.8047
 9269TIP3    H249299   3.647   5.482  13.025 -0.6666  0.7455  0.0522
 9270TIP3   OH249300   2.104   6.730  15.871  0.3375 -0.3021 -0.3554
 9270TIP3    H149301   2.159   6.711  15.947  0.0119  1.3363  0.3299
 9270TIP3    H249302   2.026   6.677  15.884 -1.0965  2.1402  2.1466
 9271TIP3   OH249303   6.476   5.484   3.673 -0.2654  0.7516  0.0540
 9271TIP3    H149304   6.470   5.459   3.765  1.7835  1.3845  0.4219
 9271TIP3    H249305   6.510   5.406   3.629  1.4735  1.2945  0.3636
 9272TIP3   OH249306   3.708   6.742   3.392  0.1044 -0.3718 -0.6555
 9272TIP3    H149307   3.661   6.754   3.474 -0.1087  1.2114 -0.9821
 9272TIP3    H249308   3.644   6.701   3.334  0.4538 -2.1131  0.1196
 9273TIP3   OH249309   5.414   6.400   2.586 -0.4011  0.1546  0.1630
 9273TIP3    H149310   5.372   6.397   2.672  1.0878  1.3953  0.9815
 9273TIP3    H249311   5.343   6.420   2.525 -1.3144  0.2293  1.2206
 9274TIP3   OH249312   0.460   3.564  13.850  0.7903  0.0435  0.9731
 9274TIP3    H149313   0.443   3.611  13.932 -1.1086 -1.2684  1.4151
 9274TIP3    H249314   0.376   3.568  13.803  0.3493 -3.2822  1.2868
 9275TIP3   OH249315   2.768   1.348   2.554 -0.5761  0.4647 -0.1877
 9275TIP3    H149316   2.701   1.367   2.620 -0.8241  0.0799 -0.3277
 9275TIP3    H249317   2.851   1.350   2.603 -0.2559  4.2572 -0.5635
 9276TIP3   OH249318   6.068   3.362   0.287 -0.3290  0.7249 -0.4054
 9276TIP3    H149319   6.059   3.267   0.279 -0.1621  0.6716  0.0307
 9276TIP3    H249320   6.089   3.377   0.379  2.0969  0.9980 -0.9411
 9277TIP3   OH249321   2.913   0.036   5.948  0.3913  0.0046  0.4729
 9277TIP3    H149322   2.953   0.109   5.995 -0.9596  1.2613 -0.2508
 9277TIP3    H249323   2.819   0.045   5.964  0.1625 -1.4089  0.1027
 9278TIP3   OH249324   4.353   2.846   4.697  0.2126 -0.3619 -0.0565
 9278TIP3    H149325   4.428   2.792   4.719 -0.8863 -1.2859  1.6439
 9278TIP3    H249326   4.372   2.932   4.735  0.7139 -0.3814 -0.2647
 9279TIP3   OH249327   1.996   0.007   3.791 -0.3839 -0.4302 -0.8640
 9279TIP3    H149328   2.022   0.046   3.708 -0.1161 -0.6386 -0.8765
 9279TIP3    H249329   2.071   0.022   3.849 -0.5708 -0.2820 -0.6580
 9280TIP3   OH249330   6.083   1.886   1.691  0.8421  0.8924  0.1443
 9280TIP3    H149331   6.101   1.808   1.638  1.1927  2.0524 -1.5414
 9280TIP3    H249332   6.015   1.933   1.643  0.1306  1.2896  1.4986
 9281TIP3   OH249333   0.613   2.679  14.748  0.8218 -0.1800 -0.0615
 9281TIP3    H149334   0.564   2.640  14.821  2.0486 -1.2040  0.2347
 9281TIP3    H249335   0.570   2.645  14.670  1.2177 -1.2824  0.1937
 9282TIP3   OH249336   3.111   2.743  11.780 -0.0630  0.0247 -0.5996
 9282TIP3    H149337   3.157   2.827  11.782 -0.2467  0.1414 -1.0996
 9282TIP3    H249338   3.115   2.715  11.689 -0.6995 -0.1197 -0.5926
 9283TIP3   OH249339   0.663   2.265   1.621 -0.2751  0.1670  0.5529
 9283TIP3    H149340   0.634   2.320   1.693 -0.3249  0.0608  0.6151
 9283TIP3    H249341   0.624   2.179   1.639 -0.2870  0.1394  0.4011
 9284TIP3   OH249342   5.658   1.075   3.751  0.1026 -0.2939  0.4159
 9284TIP3    H149343   5.652   1.169   3.770  0.3547 -0.3228  0.6423
 9284TIP3    H249344   5.575   1.054   3.708  0.9624  0.5341 -1.7779
 9285TIP3   OH249345   2.115   3.570  16.054 -0.2751 -0.3437  0.5907
 9285TIP3    H149346   2.109   3.499  16.118 -2.2918 -0.2851  0.5367
 9285TIP3    H249347   2.177   3.632  16.093 -0.1427 -1.1187  1.6624
 9286TIP3   OH249348   2.361   3.266  15.853  0.4692  0.0551  0.2641
 9286TIP3    H149349   2.408   3.215  15.918  0.9956 -0.2916 -0.3732
 9286TIP3    H249350   2.421   3.272  15.779  0.0474  0.8029 -0.0288
 9287TIP3   OH249351   4.617   3.752   5.172  0.0129  0.5924  0.5020
 9287TIP3    H149352   4.706   3.768   5.203  0.0226  0.1694  0.6946
 9287TIP3    H249353   4.566   3.733   5.251 -0.4668  1.7846  0.5035
 9288TIP3   OH249354   4.707   5.773   3.954  0.4909  0.4516  0.0393
 9288TIP3    H149355   4.660   5.790   4.036 -2.1558 -0.1572 -1.2622
 9288TIP3    H249356   4.686   5.848   3.898  2.0103  0.7024 -0.2450
 9289TIP3   OH249357   0.486   2.729   6.073 -0.5843 -0.4094 -0.4023
 9289TIP3    H149358   0.501   2.770   6.158  2.2385  1.1074 -1.4847
 9289TIP3    H249359   0.512   2.638   6.084 -1.5250 -0.5682  0.6427
 9290TIP3   OH249360   4.325   5.704   4.228 -0.4233 -0.0828 -0.4340
 9290TIP3    H149361   4.334   5.772   4.161 -3.6391  0.0280 -0.9245
 9290TIP3    H249362   4.404   5.651   4.220  1.1156  2.2463 -1.5891
 9291TIP3   OH249363   5.940   4.731  15.155 -0.1804  0.0924 -0.1888
 9291TIP3    H149364   5.995   4.663  15.192  1.4621  1.2240 -0.4504
 9291TIP3    H249365   5.895   4.771  15.230  0.2251 -0.1009  0.1518
 9292TIP3   OH249366   6.563   5.108   1.799 -0.3738 -0.0871  0.1008
 9292TIP3    H149367   6.584   5.131   1.889 -0.1968  0.6884 -0.1360
 9292TIP3    H249368   6.641   5.062   1.767  0.6629  1.9691 -0.4805
 9293TIP3   OH249369   3.434   1.207  15.313 -0.3237  0.3920 -0.0098
 9293TIP3    H149370   3.479   1.123  15.308 -1.4280 -0.2309  0.0805
 9293TIP3    H249371   3.494   1.270  15.273  0.9282 -0.2558  0.7772
 9294TIP3   OH249372   0.113   0.962   2.829 -0.4279  0.6256  0.1344
 9294TIP3    H149373   0.042   1.026   2.835 -2.1896 -1.3095  0.7430
 9294TIP3    H249374   0.148   0.957   2.918 -1.7466 -0.7926  0.6093
 9295TIP3   OH249375   0.094   4.208  14.436  0.2286 -0.2765  0.5139
 9295TIP3    H149376   0.139   4.124  14.447 -0.1402 -0.4356  0.8337
 9295TIP3    H249377   0.024   4.188  14.373 -2.5521 -1.2939  3.6553
 9296TIP3   OH249378   5.846   1.402  15.507  0.2802  0.2231 -0.1735
 9296TIP3    H149379   5.847   1.493  15.538  0.5059  0.4763 -0.9062
 9296TIP3    H249380   5.785   1.358  15.566  1.6538  0.3789  1.4375
 9297TIP3   OH249381   1.426   6.532   4.465  0.1564  0.3017 -0.2635
 9297TIP3    H149382   1.410   6.542   4.558  2.0390 -0.1358  0.1316
 9297TIP3    H249383   1.400   6.442   4.446 -0.9111  0.6095 -0.3423
 9298TIP3   OH249384   5.787   4.430   6.642 -0.6605  0.4294 -0.1150
 9298TIP3    H149385   5.795   4.369   6.569 -2.5752 -0.0141 -0.0032
 9298TIP3    H249386   5.867   4.483   6.638 -0.7276  0.4467 -2.5157
 9299TIP3   OH249387   0.848   0.730  12.573  0.7701  0.0792 -0.1744
 9299TIP3    H149388   0.833   0.713  12.480 -1.7870  0.0015  0.1927
 9299TIP3    H249389   0.931   0.687  12.592  0.4243 -1.5231 -2.0074
 9300TIP3   OH249390   5.392   5.504  12.110 -0.0741 -0.2355 -0.2409
 9300TIP3    H149391   5.301   5.529  12.090 -0.6161 -2.8489 -1.3963
 9300TIP3    H249392   5.434   5.498  12.025  0.7562 -0.5378  0.1850
 9301TIP3   OH249393   3.523   0.715   6.686 -0.0002  0.1232 -0.2291
 9301TIP3    H149394   3.469   0.684   6.760  0.4532  2.8264  1.3813
 9301TIP3    H249395   3.595   0.762   6.728  1.5767 -0.2199 -2.4233
 9302TIP3   OH249396   1.198   1.647   4.060  0.1392 -0.1650  0.0233
 9302TIP3    H149397   1.141   1.654   4.136 -0.1415 -0.4680 -0.1583
 9302TIP3    H249398   1.247   1.729   4.059  0.8705 -0.5721  1.1139
 9303TIP3   OH249399   1.104   1.674   5.516  0.5141  0.3812  0.1814
 9303TIP3    H149400   1.143   1.607   5.573  0.9506 -0.5513 -1.1817
 9303TIP3    H249401   1.022   1.634   5.485  1.0688  0.2037 -1.1155
 9304TIP3   OH249402   0.950   3.409  11.406 -0.0853 -0.1781  0.6652
 9304TIP3    H149403   1.041   3.387  11.426 -0.0095  0.9627  1.6646
 9304TIP3    H249404   0.920   3.458  11.482 -1.5568 -0.5671  0.3649
 9305TIP3   OH249405   5.226   1.881   3.601 -0.6331  0.4419 -0.2156
 9305TIP3    H149406   5.165   1.926   3.660 -1.5827 -0.6530 -0.3054
 9305TIP3    H249407   5.216   1.926   3.518 -2.3404 -0.5030 -0.5785
 9306TIP3   OH249408   6.781   1.155  16.631  0.5530 -0.8606  0.4534
 9306TIP3    H149409   6.789   1.249  16.650  0.3608 -0.9856  1.2127
 9306TIP3    H249410   6.863   1.117  16.664 -0.0048 -1.1545  1.5633
 9307TIP3   OH249411   6.014   1.615   0.019  0.2951  1.1083  0.3561
 9307TIP3    H149412   5.963   1.659  -0.049 -0.5707 -0.3987 -0.0177
 9307TIP3    H249413   6.075   1.559  -0.028 -1.2800 -1.0605  0.7109
 9308TIP3   OH249414   0.856   5.733  15.175 -0.3362 -0.8425  0.0375
 9308TIP3    H149415   0.770   5.732  15.134 -0.0117 -2.0360 -0.6480
 9308TIP3    H249416   0.902   5.807  15.135 -0.4981 -1.1646 -0.7410
 9309TIP3   OH249417   4.167   1.113  16.664 -0.3318  0.5410 -0.2298
 9309TIP3    H149418   4.141   1.154  16.746  0.9568  1.2999 -0.1638
 9309TIP3    H249419   4.256   1.081  16.680 -0.3360  0.0512 -1.1029
 9310TIP3   OH249420   0.368   5.570   1.369 -0.0259 -0.3310  0.0181
 9310TIP3    H149421   0.380   5.634   1.440 -0.4871 -2.0965  1.7959
 9310TIP3    H249422   0.420   5.495   1.397 -0.3816 -1.1468 -1.4494
 9311TIP3   OH249423   1.329   4.206  15.721 -0.6298 -0.0819 -0.0164
 9311TIP3    H149424   1.383   4.266  15.670 -2.0981 -0.2408 -1.8590
 9311TIP3    H249425   1.264   4.262  15.763 -1.6555 -0.2507 -1.2932
 9312TIP3   OH249426   3.123   4.186  15.526 -0.0742  0.1197  0.6866
 9312TIP3    H149427   3.161   4.249  15.465  1.0092 -1.1202  0.0246
 9312TIP3    H249428   3.028   4.194  15.513  0.1061  0.4144 -0.6336
 9313TIP3   OH249429   1.379   3.049  14.584  0.2249 -0.1969 -0.4478
 9313TIP3    H149430   1.360   2.990  14.657  2.5073  0.5283  0.8326
 9313TIP3    H249431   1.295   3.060  14.539 -1.0996 -1.2344  1.6411
 9314TIP3   OH249432   2.045   6.665  14.010 -0.0161  0.8792  0.6170
 9314TIP3    H149433   2.033   6.641  14.102 -1.4584 -0.8612  0.0240
 9314TIP3    H249434   1.961   6.645  13.969 -0.1022  3.5963 -0.7279
 9315TIP3   OH249435   4.354   2.554  15.496  0.6144  0.0360 -0.3000
 9315TIP3    H149436   4.381   2.510  15.577  1.3545  0.8669 -0.0747
 9315TIP3    H249437   4.268   2.517  15.476  0.1256  0.2633  1.2272
 9316TIP3   OH249438   6.231   0.296  16.111 -0.3161 -0.8190  0.3020
 9316TIP3    H149439   6.315   0.322  16.074 -0.0699 -1.5631  0.3147
 9316TIP3    H249440   6.253   0.240  16.185 -0.8206 -0.9854  0.3318
 9317TIP3   OH249441   4.746   3.460   5.288 -0.2755  0.0193 -0.2843
 9317TIP3    H149442   4.821   3.510   5.319  0.8668 -1.4726 -0.5213
 9317TIP3    H249443   4.732   3.393   5.354 -1.1567  0.0266 -0.4469
 9318TIP3   OH249444   1.213   5.866  11.769  0.1027 -0.1654  0.5896
 9318TIP3    H149445   1.261   5.879  11.687 -0.2159  0.0995  0.4415
 9318TIP3    H249446   1.281   5.854  11.835  0.3539 -0.9293  0.2011
 9319TIP3   OH249447   6.176   5.422  16.988  0.7231 -0.0632  0.4579
 9319TIP3    H149448   6.223   5.432  16.905  0.0406  1.6369  0.2463
 9319TIP3    H249449   6.088   5.394  16.961  0.8677 -0.7804  0.7055
 9320TIP3   OH249450   3.966   4.538  16.992  0.4380 -0.1582 -0.5083
 9320TIP3    H149451   4.044   4.585  16.960 -0.9815  1.2018 -2.1457
 9320TIP3    H249452   3.948   4.473  16.924  1.0093 -1.5791  0.6352
 9321TIP3   OH249453   4.195   3.190   1.721 -0.2534  0.4287 -0.2388
 9321TIP3    H149454   4.252   3.139   1.780 -0.0364 -1.5078 -1.9954
 9321TIP3    H249455   4.218   3.281   1.737 -0.1670  0.0036  2.5923
 9322TIP3   OH249456   0.751   5.829   4.964 -0.2371  0.2471  0.0714
 9322TIP3    H149457   0.747   5.753   5.022  1.6505  0.7488  0.9126
 9322TIP3    H249458   0.790   5.898   5.016  0.0353  1.1948 -1.3210
 9323TIP3   OH249459   0.476   6.308   1.509  0.7897  0.0972 -0.6671
 9323TIP3    H149460   0.423   6.379   1.474 -0.9602 -1.5181 -1.4714
 9323TIP3    H249461   0.566   6.341   1.506  0.0064  2.4292 -0.5172
 9324TIP3   OH249462   5.125   2.996  13.575 -0.9023 -0.4050 -0.4769
 9324TIP3    H149463   5.107   2.981  13.482 -0.4859 -0.0311 -0.6222
 9324TIP3    H249464   5.209   3.041  13.576 -1.2466  0.2393  0.0454
 9325TIP3   OH249465   3.076   2.605  12.756 -0.3282  0.5487 -0.3074
 9325TIP3    H149466   3.038   2.578  12.672  0.8774 -1.9665 -0.1309
 9325TIP3    H249467   3.037   2.545  12.820 -0.3404  1.6714  0.7787
 9326TIP3   OH249468   4.446   0.253  13.212  0.0815  0.2369  0.0285
 9326TIP3    H149469   4.429   0.160  13.195  0.1865  0.5288 -1.8929
 9326TIP3    H249470   4.473   0.256  13.304  2.1582 -1.9289 -0.4114
 9327TIP3   OH249471   6.396   5.346   0.809 -0.1163  0.5799  1.1074
 9327TIP3    H149472   6.351   5.422   0.771  0.7297  0.4890 -0.1085
 9327TIP3    H249473   6.345   5.271   0.780  1.7813  0.3035 -1.9281
 9328TIP3   OH249474   5.303   1.828  16.712  0.2147 -0.0217  0.3392
 9328TIP3    H149475   5.233   1.880  16.674  0.5158 -0.0390 -0.2460
 9328TIP3    H249476   5.331   1.878  16.789 -1.8276 -1.0271  1.8349
 9329TIP3   OH249477   4.701   3.842   3.139 -0.1316 -0.0199  0.9431
 9329TIP3    H149478   4.777   3.836   3.082 -0.2029  1.8061  0.5893
 9329TIP3    H249479   4.632   3.795   3.091  0.0975  0.5521  0.0290
 9330TIP3   OH249480   1.096   0.292   2.344  0.2203  0.0729 -0.4635
 9330TIP3    H149481   1.070   0.283   2.252  0.5340  0.3854 -0.5858
 9330TIP3    H249482   1.053   0.371   2.375  0.7165  0.3866 -0.5614
 9331TIP3   OH249483   5.123   5.313  11.180  0.6100  0.3830  0.3670
 9331TIP3    H149484   5.039   5.337  11.140  0.3237 -0.4772  0.4412
 9331TIP3    H249485   5.184   5.308  11.107 -0.0356 -1.7576 -0.1020
 9332TIP3   OH249486   6.596   5.424  12.638  0.1066  0.0342 -0.4588
 9332TIP3    H149487   6.627   5.351  12.584  0.6907  0.3179 -0.5246
 9332TIP3    H249488   6.677   5.469  12.665 -0.1771 -0.1009  0.6492
 9333TIP3   OH249489   1.869   4.607   2.575 -0.5096  0.1523  0.4752
 9333TIP3    H149490   1.887   4.574   2.487 -0.9897 -1.9505  1.1096
 9333TIP3    H249491   1.901   4.697   2.574 -2.7358  1.0781 -2.6129
 9334TIP3   OH249492   4.835   3.818  15.696 -0.5539 -0.0023 -0.3514
 9334TIP3    H149493   4.877   3.903  15.679  0.7282 -0.8540 -1.7292
 9334TIP3    H249494   4.775   3.806  15.623 -1.0798 -0.0760  0.0923
 9335TIP3   OH249495   2.429   1.925   0.418  0.1563 -0.3326 -0.4266
 9335TIP3    H149496   2.502   1.863   0.429  0.9658  0.6356 -0.1464
 9335TIP3    H249497   2.432   1.948   0.326 -0.9261 -1.6211 -0.8059
 9336TIP3   OH249498   5.179   1.845  11.681  0.0929 -0.1987 -0.0499
 9336TIP3    H149499   5.092   1.842  11.722  0.7307 -2.4634  1.3376
 9336TIP3    H249500   5.178   1.773  11.617  0.1063  1.4548 -2.0128
 9337TIP3   OH249501   1.089   4.923  14.529 -0.7556 -0.4865 -0.0748
 9337TIP3    H149502   1.109   4.994  14.590 -1.0875 -0.9476  0.5823
 9337TIP3    H249503   1.075   4.967  14.445  1.5535 -0.0009 -0.2866
 9338TIP3   OH249504   3.851   0.845   5.661 -1.0318  0.4638  0.5495
 9338TIP3    H149505   3.828   0.932   5.691 -0.4562  0.5590  0.7230
 9338TIP3    H249506   3.919   0.859   5.595 -0.0186  0.0904  1.4857
 9339TIP3   OH249507   3.096   6.502   4.624  0.0281  0.0633 -0.9024
 9339TIP3    H149508   3.084   6.421   4.675  0.1495 -0.2009 -1.2893
 9339TIP3    H249509   3.146   6.559   4.681 -0.8608  0.2162 -0.2562
 9340TIP3   OH249510   3.356   6.174  12.376 -0.4747 -0.3523 -0.0090
 9340TIP3    H149511   3.301   6.252  12.386  1.2567  1.0245 -0.4945
 9340TIP3    H249512   3.302   6.101  12.405 -1.7084  1.2039  1.8220
 9341TIP3   OH249513   1.753   4.941  15.841  0.0719 -0.8168 -0.0418
 9341TIP3    H149514   1.756   5.035  15.861 -2.9540 -0.2439 -1.7411
 9341TIP3    H249515   1.768   4.937  15.746 -0.2416 -2.0225 -0.0491
 9342TIP3   OH249516   4.998   6.722   4.179 -0.1818 -0.0098  0.8335
 9342TIP3    H149517   4.989   6.755   4.268 -1.3736 -1.4622  1.2954
 9342TIP3    H249518   5.050   6.642   4.187  1.0906  0.6916 -0.0200
 9343TIP3   OH249519   2.281   3.727  14.367  0.3438  0.0469 -0.0303
 9343TIP3    H149520   2.257   3.813  14.402 -0.0052 -0.1199  0.1555
 9343TIP3    H249521   2.205   3.672  14.387  0.5072 -0.2695 -0.2714
 9344TIP3   OH249522   4.154   1.403   0.062 -0.0381  0.4699  0.1998
 9344TIP3    H149523   4.219   1.400   0.132  2.1849 -0.4007 -1.8090
 9344TIP3    H249524   4.123   1.313   0.054 -0.2637  0.5603  0.0335
 9345TIP3   OH249525   4.425   0.812  15.473  0.1244 -0.2896 -0.1075
 9345TIP3    H149526   4.494   0.879  15.479  0.3970 -0.6395  0.8954
 9345TIP3    H249527   4.468   0.738  15.431 -0.0347 -0.0099 -0.7614
 9346TIP3   OH249528   0.675   5.254   3.392 -0.3200  0.5702  0.6127
 9346TIP3    H149529   0.684   5.239   3.298 -0.5039 -1.2698  0.8542
 9346TIP3    H249530   0.764   5.244   3.427 -0.3374  0.7035  0.6953
 9347TIP3   OH249531   3.494   0.760   2.066  0.0476 -0.0865 -0.4847
 9347TIP3    H149532   3.466   0.848   2.093 -0.1145 -0.6954  1.4465
 9347TIP3    H249533   3.581   0.774   2.027 -1.1780  1.2938 -3.0304
 9348TIP3   OH249534   0.887   1.497   5.797 -0.3808 -0.4166 -0.0672
 9348TIP3    H149535   0.863   1.497   5.890 -2.7988 -1.8399 -0.5978
 9348TIP3    H249536   0.947   1.424   5.788 -1.2218 -1.1643  0.1871
 9349TIP3   OH249537   0.418   1.938  15.409 -0.6224 -0.1714 -0.2122
 9349TIP3    H149538   0.415   1.846  15.384  0.4350  0.1197 -1.5487
 9349TIP3    H249539   0.496   1.972  15.366  0.2789  0.8598  2.0300
 9350TIP3   OH249540   5.508   1.563  14.530 -0.4059  0.0982 -0.3988
 9350TIP3    H149541   5.523   1.469  14.540 -2.1445 -0.1437  0.3482
 9350TIP3    H249542   5.595   1.603  14.541  0.1023 -1.3106  1.0566
 9351TIP3   OH249543   1.157   3.193   2.147 -0.7381  0.3049  0.1251
 9351TIP3    H149544   1.062   3.183   2.142 -0.6504 -1.3019  1.1761
 9351TIP3    H249545   1.186   3.122   2.204  1.1956  0.2602 -0.8427
 9352TIP3   OH249546   1.166   3.141  17.291  0.3862  0.4202  0.5392
 9352TIP3    H149547   1.093   3.168  17.235 -0.2912  0.0992  1.2385
 9352TIP3    H249548   1.219   3.084  17.236 -0.7614 -0.6334  0.4790
 9353TIP3   OH249549   0.606   4.786   0.295  0.3948 -0.0845  0.2236
 9353TIP3    H149550   0.586   4.771   0.387 -2.6295 -0.3853 -0.3954
 9353TIP3    H249551   0.553   4.862   0.271  1.2087  0.0596 -1.2734
 9354TIP3   OH249552   6.323   4.272   3.021  0.1539 -0.4068 -0.7062
 9354TIP3    H149553   6.276   4.223   3.089 -1.5357  2.7342  0.6186
 9354TIP3    H249554   6.256   4.295   2.957  0.6858  0.8269 -0.8510
 9355TIP3   OH249555   1.557   2.105  17.175 -0.1849 -0.2896 -0.3140
 9355TIP3    H149556   1.487   2.113  17.111 -1.2079 -1.1761  0.6618
 9355TIP3    H249557   1.572   2.011  17.184  2.9060 -0.1315 -2.3227
 9356TIP3   OH249558   1.778   3.638   3.867  0.1225  0.4855  0.5957
 9356TIP3    H149559   1.743   3.653   3.955 -0.2219 -2.0434  0.9644
 9356TIP3    H249560   1.700   3.641   3.811  0.1381  0.6647  0.5832
 9357TIP3   OH249561   2.396   1.886  11.116  0.2577 -0.6307  0.1562
 9357TIP3    H149562   2.327   1.846  11.063  0.0221  0.5014 -0.4163
 9357TIP3    H249563   2.459   1.919  11.052 -0.7698  2.1116  0.4648
 9358TIP3   OH249564   0.449   5.006   0.242 -0.3183 -0.0094  0.3688
 9358TIP3    H149565   0.510   5.073   0.273 -0.8319 -0.3026  2.1573
 9358TIP3    H249566   0.364   5.050   0.241 -0.7517 -0.7060  2.0640
 9359TIP3   OH249567   6.336   5.218  16.328 -0.4040  0.7013  0.0235
 9359TIP3    H149568   6.349   5.179  16.242  2.1376 -1.3749  1.2264
 9359TIP3    H249569   6.247   5.192  16.354  0.2114 -2.0895 -0.3878
 9360TIP3   OH249570   2.031   4.239  15.630  0.3685 -0.4224  0.0045
 9360TIP3    H149571   1.938   4.237  15.655  0.8697  1.1743  2.3269
 9360TIP3    H249572   2.031   4.274  15.541 -1.2706 -0.3046  0.0207
 9361TIP3   OH249573   1.089   6.318   3.277 -0.2869 -0.1350  0.1158
 9361TIP3    H149574   1.021   6.295   3.340 -1.1172 -0.6656 -0.9375
 9361TIP3    H249575   1.051   6.295   3.192  0.8582  0.4261 -0.5656
 9362TIP3   OH249576   1.839   4.170  13.634 -0.2465 -0.5726  0.1456
 9362TIP3    H149577   1.805   4.240  13.579 -0.4148 -0.6115  0.1976
 9362TIP3    H249578   1.854   4.097  13.574  0.4519 -0.3153  0.0016
 9363TIP3   OH249579   5.115   1.989  13.235 -0.1625  0.0610 -0.2631
 9363TIP3    H149580   5.105   2.069  13.287  0.9684 -0.1401  0.2967
 9363TIP3    H249581   5.099   1.918  13.298  0.2567 -0.1704 -0.4182
 9364TIP3   OH249582   0.801   1.087  12.747 -0.3328  0.5636  0.1394
 9364TIP3    H149583   0.797   1.173  12.789  1.3886  1.1821 -0.8605
 9364TIP3    H249584   0.749   1.098  12.667  0.6491  0.9993 -0.4619
 9365TIP3   OH249585   2.347   0.138   1.270 -0.3292  0.5989 -0.0963
 9365TIP3    H149586   2.296   0.191   1.331  0.2454  0.0582  0.8740
 9365TIP3    H249587   2.421   0.194   1.245  0.8876 -0.0967  1.7928
 9366TIP3   OH249588   0.260   4.391  14.595 -0.2496 -0.3325 -0.3241
 9366TIP3    H149589   0.245   4.319  14.534 -0.0233 -1.1630  0.5577
 9366TIP3    H249590   0.269   4.348  14.680 -0.7137  0.8015  0.3185
 9367TIP3   OH249591   6.705   3.045   5.591  0.1554 -0.0974 -0.2290
 9367TIP3    H149592   6.685   3.138   5.598  1.2932  0.1167  0.5619
 9367TIP3    H249593   6.653   3.014   5.517  0.8578  1.4964 -1.4652
 9368TIP3   OH249594   4.639   0.274  12.989  0.0810  0.2490 -0.0614
 9368TIP3    H149595   4.730   0.266  13.019 -0.0508  1.5206  0.7356
 9368TIP3    H249596   4.590   0.297  13.067 -0.4178  2.8025 -1.0528
 9369TIP3   OH249597   0.783   0.733   6.384 -0.0672  0.4193 -0.2246
 9369TIP3    H149598   0.854   0.797   6.379  0.4163  0.1695  2.3140
 9369TIP3    H249599   0.821   0.657   6.426 -1.4707 -0.3105 -0.2032
 9370TIP3   OH249600   3.801   6.185   6.328 -0.2453 -0.1580  0.2113
 9370TIP3    H149601   3.721   6.236   6.321  0.2621  0.4124 -2.6226
 9370TIP3    H249602   3.871   6.251   6.330  0.3517 -0.6484 -2.1913
 9371TIP3   OH249603   4.192   5.233   5.459 -0.0009  0.1909  0.0740
 9371TIP3    H149604   4.115   5.265   5.507 -0.2759 -0.1366 -0.1392
 9371TIP3    H249605   4.208   5.146   5.496 -0.2267 -0.0710 -0.4434
 9372TIP3   OH249606   2.420   5.691   0.400  0.7257  0.6925  0.0728
 9372TIP3    H149607   2.436   5.745   0.477 -1.8376  2.8513 -0.7297
 9372TIP3    H249608   2.387   5.608   0.435  2.1836  0.5915  1.2958
 9373TIP3   OH249609   3.263   1.197  11.436  0.3468  0.1647  0.2005
 9373TIP3    H149610   3.195   1.261  11.416  0.5425 -0.0445 -1.2322
 9373TIP3    H249611   3.330   1.247  11.482 -0.1402  0.6711  0.3713
 9374TIP3   OH249612   0.326   6.613   3.932 -0.1414 -0.4383  0.0217
 9374TIP3    H149613   0.297   6.650   3.849 -0.5374 -1.5177 -0.3310
 9374TIP3    H249614   0.250   6.620   3.990  0.2707  0.7230  0.4483
 9375TIP3   OH249615   3.879   4.354   1.139 -0.4636 -0.8725 -0.1485
 9375TIP3    H149616   3.889   4.258   1.141 -0.1367 -0.8278  1.0263
 9375TIP3    H249617   3.823   4.374   1.214  0.8479 -0.0063  0.6309
 9376TIP3   OH249618   6.063   2.742  13.738  0.3740  0.0210 -0.0767
 9376TIP3    H149619   5.981   2.697  13.715  0.7379 -0.6626 -0.0351
 9376TIP3    H249620   6.039   2.798  13.813  0.0464 -0.5062  0.2178
 9377TIP3   OH249621   1.775   3.544   4.988  0.0965 -0.3650 -1.1231
 9377TIP3    H149622   1.712   3.473   4.977  0.7965 -0.8839 -1.9249
 9377TIP3    H249623   1.721   3.623   4.998 -0.6850 -0.9623 -0.4988
 9378TIP3   OH249624   2.499   1.854  15.715 -0.6352  0.0538 -0.1362
 9378TIP3    H149625   2.588   1.852  15.750 -0.8513  2.3077  0.7409
 9378TIP3    H249626   2.509   1.838  15.621  0.7677  0.8516 -0.1383
 9379TIP3   OH249627   2.650   6.004   1.849  0.2305 -0.7439  0.2748
 9379TIP3    H149628   2.679   5.918   1.818  0.0818  0.0282 -2.2374
 9379TIP3    H249629   2.558   5.992   1.870  0.4801 -1.4443  1.0169
 9380TIP3   OH249630   4.938   0.385   2.884  0.5226  0.3115  0.2291
 9380TIP3    H149631   4.859   0.369   2.831  1.9473  1.9877 -2.6038
 9380TIP3    H249632   4.907   0.439   2.956 -1.1121 -0.0733 -0.1203
 9381TIP3   OH249633   5.333   6.202  12.683 -0.2047 -0.2840 -0.3923
 9381TIP3    H149634   5.353   6.196  12.589 -1.2502 -1.2013 -0.5831
 9381TIP3    H249635   5.281   6.283  12.690 -0.8052 -0.6251 -0.7575
 9382TIP3   OH249636   0.021   1.976  13.833  0.1737  0.1256  0.4763
 9382TIP3    H149637   0.091   1.919  13.863 -2.6874 -2.5028  2.6946
 9382TIP3    H249638   0.031   1.978  13.737  0.7710 -3.7493  0.3056
 9383TIP3   OH249639   5.066   5.757  15.373 -0.3036  0.5959 -0.0945
 9383TIP3    H149640   5.000   5.812  15.417  0.4055  1.4766 -0.0908
 9383TIP3    H249641   5.027   5.736  15.289 -0.5521  1.2133 -0.1423
 9384TIP3   OH249642   5.008   4.483   3.901 -0.0618 -0.3109 -0.4158
 9384TIP3    H149643   4.929   4.434   3.879  0.3949 -1.6770  0.8175
 9384TIP3    H249644   4.980   4.542   3.972 -0.0645 -0.4869 -0.2710
 9385TIP3   OH249645   0.112   4.185  16.160 -0.7971  0.3183  0.5231
 9385TIP3    H149646   0.189   4.186  16.217 -1.1911 -0.2471  1.0783
 9385TIP3    H249647   0.148   4.192  16.071  0.1131 -2.5097  0.5739
 9386TIP3   OH249648   4.037   1.260   0.885 -0.1130  0.0079 -0.2847
 9386TIP3    H149649   3.942   1.268   0.885 -0.1791 -0.6695  0.5577
 9386TIP3    H249650   4.067   1.331   0.942 -0.1919 -0.4348  0.3248
 9387TIP3   OH249651   2.052   1.216  16.674  0.1094 -0.2782 -0.0745
 9387TIP3    H149652   2.124   1.154  16.684 -0.2487 -1.1387 -2.3076
 9387TIP3    H249653   2.013   1.221  16.761  1.4551 -1.5214  0.6570
 9388TIP3   OH249654   0.685   2.235   5.913 -0.2900 -0.3856  0.5097
 9388TIP3    H149655   0.760   2.187   5.880  0.7099 -0.0794  2.2307
 9388TIP3    H249656   0.720   2.291   5.982 -1.4731  2.4198 -0.9486
 9389TIP3   OH249657   0.556   5.866  14.294 -0.5188  0.0837 -0.4592
 9389TIP3    H149658   0.550   5.834  14.384 -0.0571  0.1177 -0.4149
 9389TIP3    H249659   0.561   5.787  14.240 -0.5792  0.0667 -0.4393
 9390TIP3   OH249660   5.384   6.142  13.430  0.0141  0.6393  0.2336
 9390TIP3    H149661   5.471   6.105  13.445 -1.0326 -1.7572  1.0256
 9390TIP3    H249662   5.384   6.169  13.339  1.2228 -0.5158 -0.1353
 9391TIP3   OH249663   0.931   2.619  13.572 -0.4700  0.0690  0.6646
 9391TIP3    H149664   0.927   2.715  13.578 -0.3053  0.0257  1.8354
 9391TIP3    H249665   0.956   2.592  13.660  0.0289 -1.0300  0.1905
 9392TIP3   OH249666   4.631   2.581  16.936 -0.0316 -0.0476  0.2219
 9392TIP3    H149667   4.547   2.547  16.905 -0.0909  0.1009  0.2172
 9392TIP3    H249668   4.695   2.514  16.913 -0.4618 -1.2715  2.3268
 9393TIP3   OH249669   6.400   3.523  14.325 -0.2123  0.3049  0.5418
 9393TIP3    H149670   6.387   3.550  14.234  1.7323  0.7774  0.3687
 9393TIP3    H249671   6.495   3.527  14.338 -0.3330 -1.0984  2.1809
 9394TIP3   OH249672   3.502   0.850   0.524 -1.0816 -0.3860  0.1395
 9394TIP3    H149673   3.414   0.830   0.553 -1.2713  2.0840  1.5326
 9394TIP3    H249674   3.490   0.918   0.458 -0.2121  1.3457  1.6790
 9395TIP3   OH249675   6.163   0.064   5.186 -0.1009 -0.7131 -0.0270
 9395TIP3    H149676   6.183   0.030   5.273  0.0451  1.3289  0.7763
 9395TIP3    H249677   6.145   0.157   5.199 -1.4291 -0.6225 -1.9875
 9396TIP3   OH249678   6.078   5.077   2.250 -0.0302  0.0567  0.1950
 9396TIP3    H149679   6.079   5.170   2.228  0.5550 -0.0016 -0.0444
 9396TIP3    H249680   6.105   5.033   2.169  0.6888 -0.2532  0.5950
 9397TIP3   OH249681   4.836   5.408   2.628 -0.1631  0.3065 -0.0463
 9397TIP3    H149682   4.805   5.367   2.708  1.7189 -2.2642 -0.4752
 9397TIP3    H249683   4.925   5.438   2.649 -0.7447  2.4009 -0.3605
 9398TIP3   OH249684   2.750   1.601   3.946  0.1911 -0.5626 -0.3738
 9398TIP3    H149685   2.725   1.520   3.990  1.3915 -1.1171 -0.6776
 9398TIP3    H249686   2.679   1.662   3.967 -1.8746 -2.2880 -1.9255
 9399TIP3   OH249687   4.933   1.758  12.352 -0.0611  0.2210  0.6816
 9399TIP3    H149688   4.976   1.794  12.274  0.5556 -1.1253  0.3674
 9399TIP3    H249689   4.843   1.789  12.346  0.4317  1.6713  0.4262
 9400TIP3   OH249690   4.074   1.253  14.097 -0.1671  0.4030 -0.1672
 9400TIP3    H149691   4.162   1.272  14.066  0.5648 -0.2123  1.4711
 9400TIP3    H249692   4.043   1.337  14.132 -0.3973  0.7076 -1.0632
 9401TIP3   OH249693   4.908   6.573  15.350 -0.5127  0.4190  0.0750
 9401TIP3    H149694   4.986   6.550  15.401 -0.9111 -2.4654 -0.4112
 9401TIP3    H249695   4.866   6.488  15.332 -1.6822  1.5218 -2.9902
 9402TIP3   OH249696   3.174   0.799   1.859 -0.2600  0.2741  0.5668
 9402TIP3    H149697   3.121   0.742   1.802 -0.6680  0.0914  1.1219
 9402TIP3    H249698   3.265   0.776   1.837 -0.4033  0.3704 -0.1704
 9403TIP3   OH249699   4.615   6.553  10.367 -0.1541 -0.4321 -0.0312
 9403TIP3    H149700   4.577   6.501  10.438 -0.1731 -2.5432 -1.4907
 9403TIP3    H249701   4.589   6.507  10.287 -1.5311  2.7314 -1.5773
 9404TIP3   OH249702   3.406   5.644  13.105 -0.0159 -0.1591 -1.0221
 9404TIP3    H149703   3.326   5.686  13.138 -0.4522 -1.4423 -0.3915
 9404TIP3    H249704   3.470   5.714  13.101 -0.0143  0.1573  2.2933
 9405TIP3   OH249705   2.476   3.993   2.571  0.0423 -0.3673 -0.0378
 9405TIP3    H149706   2.400   4.022   2.521 -0.4541 -1.0057  0.3404
 9405TIP3    H249707   2.551   4.033   2.526 -0.6247  1.9611  0.7451
 9406TIP3   OH249708   2.191   1.506  15.885  0.0565  0.2058  0.4500
 9406TIP3    H149709   2.251   1.489  15.812  0.0501 -1.1796  0.7301
 9406TIP3    H249710   2.227   1.583  15.929  1.1731 -0.1156  0.1288
 9407TIP3   OH249711   0.896   6.514  12.814 -0.2073 -0.0396  0.1239
 9407TIP3    H149712   0.955   6.454  12.769  0.9264  2.0360 -1.3215
 9407TIP3    H249713   0.926   6.514  12.905  0.4413 -0.8354 -0.0837
 9408TIP3   OH249714   3.866   0.132  12.377  0.0883 -0.0215 -0.6612
 9408TIP3    H149715   3.816   0.165  12.452  0.4471  0.3660 -0.5863
 9408TIP3    H249716   3.860   0.037  12.384  1.8915 -0.0803  1.1017
 9409TIP3   OH249717   2.866   4.859   3.595 -0.5058  0.3126 -0.5653
 9409TIP3    H149718   2.824   4.916   3.660 -2.6823  0.2472 -1.8160
 9409TIP3    H249719   2.810   4.866   3.518  0.8066 -1.2989 -1.7247
 9410TIP3   OH249720   5.919   1.252  12.876 -0.5736 -0.0506  0.2214
 9410TIP3    H149721   5.896   1.224  12.787 -1.9834 -0.3263  0.6408
 9410TIP3    H249722   5.834   1.265  12.919  0.0810  0.8515  1.2918
 9411TIP3   OH249723   0.453   0.745  16.364  0.1637 -0.2810 -0.2864
 9411TIP3    H149724   0.539   0.737  16.322  0.2978  0.3891 -0.1534
 9411TIP3    H249725   0.415   0.824  16.327  1.2102  1.6407  2.3668
 9412TIP3   OH249726   3.870   1.695   5.866 -0.0515 -0.3606  0.4115
 9412TIP3    H149727   3.951   1.737   5.838 -0.0188 -0.4142  0.4276
 9412TIP3    H249728   3.889   1.659   5.952 -1.4603  3.8426  2.7567
 9413TIP3   OH249729   4.725   4.209  14.657 -0.5945  0.3673 -0.1202
 9413TIP3    H149730   4.693   4.124  14.686 -0.7469 -0.2667 -2.0096
 9413TIP3    H249731   4.816   4.194  14.633  0.3290  1.4811  2.3588
 9414TIP3   OH249732   6.807   6.326   1.759  0.4854  0.0998  0.0416
 9414TIP3    H149733   6.878   6.277   1.717 -0.5835 -0.6640 -0.9507
 9414TIP3    H249734   6.828   6.418   1.742  0.2858 -0.1606 -1.9641
 9415TIP3   OH249735   1.799   0.229  12.207 -0.0889 -0.4149  0.8473
 9415TIP3    H149736   1.849   0.302  12.244  0.6454 -0.5180  0.0951
 9415TIP3    H249737   1.828   0.224  12.116  0.5404 -2.1956  1.1076
 9416TIP3   OH249738   0.589   3.838   5.201 -0.1571  0.1390  0.5597
 9416TIP3    H149739   0.546   3.915   5.163 -0.5384 -0.3214  0.0402
 9416TIP3    H249740   0.530   3.808   5.269  0.6207  1.0816  1.6766
 9417TIP3   OH249741   6.309   2.224   0.689  0.1009 -0.6119  0.0099
 9417TIP3    H149742   6.297   2.211   0.783  1.1697 -0.2552  0.2125
 9417TIP3    H249743   6.221   2.217   0.652 -0.8878  2.5056  1.4273
 9418TIP3   OH249744   5.538   0.873  10.446 -0.3329  0.6806  0.2628
 9418TIP3    H149745   5.492   0.925  10.512 -0.3772 -0.1149  0.8704
 9418TIP3    H249746   5.620   0.921  10.431  1.2883 -0.8000  3.4230
 9419TIP3   OH249747   5.433   5.709  16.381 -0.0236  0.3432 -0.4297
 9419TIP3    H149748   5.362   5.771  16.396 -0.6020 -0.2857 -0.5215
 9419TIP3    H249749   5.498   5.758  16.331 -0.9376  0.5707 -1.4216
 9420TIP3   OH249750   5.806   2.633  17.109 -0.2535 -0.2771  0.2140
 9420TIP3    H149751   5.816   2.727  17.128 -2.2635 -0.0740  0.4492
 9420TIP3    H249752   5.856   2.620  17.028 -0.0314  1.0211  0.1099
 9421TIP3   OH249753   4.829   6.568   3.932  0.0213 -0.0966  0.6774
 9421TIP3    H149754   4.853   6.649   3.887  0.8460 -0.9670 -0.5219
 9421TIP3    H249755   4.756   6.593   3.989 -2.5459  0.7011 -2.6202
 9422TIP3   OH249756   2.872   5.039   0.647  0.3213  0.4318  0.4512
 9422TIP3    H149757   2.832   5.111   0.697 -1.0597 -0.4109  0.5933
 9422TIP3    H249758   2.883   5.075   0.559 -2.0105  0.2952  0.0438
 9423TIP3   OH249759   2.348   2.057  11.897  0.0240 -0.4036  0.1808
 9423TIP3    H149760   2.340   2.104  11.814  1.8740 -1.6790 -0.7900
 9423TIP3    H249761   2.348   2.126  11.964 -1.1307  0.6708 -0.8669
 9424TIP3   OH249762   3.908   3.735   5.498 -0.3447 -0.0779 -0.1722
 9424TIP3    H149763   3.830   3.731   5.554  0.5277  0.2248  1.1332
 9424TIP3    H249764   3.876   3.714   5.411 -1.7793 -0.5833  0.4308
 9425TIP3   OH249765   6.786   1.740  17.176  0.3467 -0.2341  0.7563
 9425TIP3    H149766   6.850   1.795  17.131 -0.5624  1.4434  1.4247
 9425TIP3    H249767   6.827   1.721  17.261  0.5744 -0.4382  0.6039
 9426TIP3   OH249768   5.757   2.105  15.778  0.0602 -0.8610  0.1903
 9426TIP3    H149769   5.700   2.028  15.774  0.1295 -0.9769  1.2218
 9426TIP3    H249770   5.828   2.086  15.716 -0.4140 -1.2139 -0.2473
 9427TIP3   OH249771   4.892   0.533  15.404 -0.3279 -0.1034 -0.0645
 9427TIP3    H149772   4.870   0.508  15.314  0.2526  0.9679 -0.5166
 9427TIP3    H249773   4.823   0.595  15.430  0.5077  1.0185 -0.4499
 9428TIP3   OH249774   5.378   2.765  17.178  0.1732 -0.3946 -0.5617
 9428TIP3    H149775   5.416   2.757  17.090  0.8964 -1.3071 -0.1784
 9428TIP3    H249776   5.444   2.814  17.227  0.2651 -0.8418 -0.2400
 9429TIP3   OH249777   1.567   1.131  15.143 -0.0665 -0.0504  0.3119
 9429TIP3    H149778   1.653   1.100  15.170 -0.6600 -2.1100 -0.0234
 9429TIP3    H249779   1.577   1.226  15.137  1.8767 -0.1421  1.2938
 9430TIP3   OH249780   5.001   3.707  14.454  0.2571 -0.1130 -0.0979
 9430TIP3    H149781   5.011   3.632  14.513  1.8172 -1.0632 -1.4995
 9430TIP3    H249782   5.069   3.695  14.388 -0.7584  1.4735 -1.5127
 9431TIP3   OH249783   3.116   6.692   5.879  0.4360 -0.5857 -0.4076
 9431TIP3    H149784   3.032   6.733   5.900  0.6894  0.0640 -0.6576
 9431TIP3    H249785   3.093   6.626   5.813  0.2614  0.3262 -1.2844
 9432TIP3   OH249786   5.642   2.935   3.006  0.3245  0.3910 -0.2656
 9432TIP3    H149787   5.692   2.902   3.081  0.7150 -2.2957 -1.5949
 9432TIP3    H249788   5.552   2.944   3.040 -0.2286 -3.7858 -0.0711
 9433TIP3   OH249789   3.022   0.185   4.791 -0.4721 -0.0023  0.4953
 9433TIP3    H149790   3.048   0.095   4.812 -0.5059 -0.1057  0.1078
 9433TIP3    H249791   2.927   0.186   4.804 -0.3895  0.1436  1.0889
 9434TIP3   OH249792   6.117   5.165   3.164 -0.7010  0.7943  0.1314
 9434TIP3    H149793   6.089   5.166   3.255 -1.7730 -1.3840 -0.1056
 9434TIP3    H249794   6.036   5.160   3.114 -0.1716 -3.0895 -0.6767
 9435TIP3   OH249795   1.069   5.350   3.243 -0.0278 -0.0654 -0.5710
 9435TIP3    H149796   1.115   5.434   3.241  1.5928 -0.9177 -0.6454
 9435TIP3    H249797   0.987   5.367   3.195  0.3946  1.3855 -0.8445
 9436TIP3   OH249798   4.602   3.913  13.691  0.1264 -0.0324  0.5133
 9436TIP3    H149799   4.595   3.881  13.781  1.3402  0.4827  0.8086
 9436TIP3    H249800   4.674   3.864  13.653 -0.7254 -0.6459 -0.3828
 9437TIP3   OH249801   5.816   4.501   6.281  0.2244 -0.1155  0.5963
 9437TIP3    H149802   5.859   4.574   6.325  2.3981 -0.7211 -0.3821
 9437TIP3    H249803   5.847   4.423   6.328 -0.5206 -0.5314  0.4177
 9438TIP3   OH249804   4.783   5.438  15.076  0.2865 -0.1891  0.0865
 9438TIP3    H149805   4.770   5.476  14.989  1.4202 -2.4250 -1.1397
 9438TIP3    H249806   4.741   5.352  15.071  1.1189 -0.7063  1.4756
 9439TIP3   OH249807   2.634   0.319  17.101  0.1479 -0.3739 -0.2610
 9439TIP3    H149808   2.587   0.295  17.022  0.5128 -0.3457 -0.4882
 9439TIP3    H249809   2.634   0.240  17.154 -1.3943  0.0111  0.3704
 9440TIP3   OH249810   4.764   2.649  16.345 -0.3565  0.1305  0.6644
 9440TIP3    H149811   4.733   2.678  16.431 -1.2078  0.5026  0.2454
 9440TIP3    H249812   4.701   2.687  16.283  0.8039  0.6976 -0.2022
 9441TIP3   OH249813   6.496   4.731   0.433  0.0699  0.4033  0.2517
 9441TIP3    H149814   6.446   4.804   0.395 -1.5900 -0.3328  0.9014
 9441TIP3    H249815   6.505   4.753   0.525 -0.4675 -0.1933  0.4592
 9442TIP3   OH249816   3.495   5.751  14.158  0.9556  0.7125 -0.0389
 9442TIP3    H149817   3.417   5.702  14.133  1.2877  0.4258 -0.5264
 9442TIP3    H249818   3.475   5.786  14.245  0.7888 -0.4600  0.4159
 9443TIP3   OH249819   5.466   4.817   3.605 -0.4877 -0.7330 -0.1016
 9443TIP3    H149820   5.389   4.859   3.644  0.2161 -0.7846  1.4202
 9443TIP3    H249821   5.471   4.731   3.648  0.3894 -0.7448 -0.2034
 9444TIP3   OH249822   0.748   0.563   3.014  0.4258  0.1402  0.4245
 9444TIP3    H149823   0.656   0.558   3.039  1.0995  0.2241  3.2085
 9444TIP3    H249824   0.785   0.480   3.044  1.2895  0.0826 -0.7166
 9445TIP3   OH249825   1.770   1.391   6.660  0.2517  0.3132 -0.4599
 9445TIP3    H149826   1.732   1.477   6.646  1.2418  0.6274 -1.2750
 9445TIP3    H249827   1.749   1.342   6.580 -0.2400 -0.1913 -0.0345
 9446TIP3   OH249828   1.506   3.269   1.998  0.1428 -0.5805 -0.4725
 9446TIP3    H149829   1.420   3.294   2.033  0.1229 -0.9287 -0.2723
 9446TIP3    H249830   1.526   3.337   1.933 -0.8320 -1.1732 -1.4157
 9447TIP3   OH249831   6.463   1.738  11.632 -0.4908 -0.6579 -0.1674
 9447TIP3    H149832   6.379   1.755  11.674  0.0089 -0.5105  0.7970
 9447TIP3    H249833   6.524   1.721  11.704  0.8600  1.6096 -0.6599
 9448TIP3   OH249834   4.059   1.083  12.582  0.5375 -0.1202 -0.3683
 9448TIP3    H149835   4.002   1.148  12.622  0.7807  0.1740 -0.4954
 9448TIP3    H249836   4.001   1.032  12.526  0.3700  0.0743 -0.3746
 9449TIP3   OH249837   1.304   5.692   3.008 -0.1950  0.3615  0.1069
 9449TIP3    H149838   1.354   5.645   2.940 -1.4044 -1.0281  0.1216
 9449TIP3    H249839   1.361   5.690   3.085 -0.2993 -1.4321  0.2021
 9450TIP3   OH249840   2.698   0.151  13.512  0.2484 -0.1388  0.3567
 9450TIP3    H149841   2.696   0.222  13.447  1.0795 -1.2962 -1.0033
 9450TIP3    H249842   2.698   0.196  13.596 -1.0278  1.4265 -0.4097
 9451TIP3   OH249843   4.542   0.583  15.380 -0.8426  0.1012  0.0921
 9451TIP3    H149844   4.494   0.506  15.350  1.0105 -1.1395  0.1303
 9451TIP3    H249845   4.594   0.551  15.454  4.1430 -0.1747 -3.1273
 9452TIP3   OH249846   2.645   4.625  15.385  0.2048  0.0513  0.0794
 9452TIP3    H149847   2.687   4.567  15.322 -0.4106 -0.4776  0.1480
 9452TIP3    H249848   2.594   4.686  15.332  0.8875  0.5724  0.0056
 9453TIP3   OH249849   0.690   4.490   4.630  0.0714  0.0502  0.0448
 9453TIP3    H149850   0.702   4.453   4.543 -0.3984 -1.5943  0.6372
 9453TIP3    H249851   0.761   4.553   4.640  1.2513 -1.0849 -0.8309
 9454TIP3   OH249852   4.163   4.707  13.967 -0.2668  0.2596 -0.0373
 9454TIP3    H149853   4.234   4.675  14.023  0.1645  1.1591 -0.0568
 9454TIP3    H249854   4.129   4.628  13.925  1.8657 -0.0592 -1.3678
 9455TIP3   OH249855   5.493   1.719  15.065  0.2021  0.1815  0.0011
 9455TIP3    H149856   5.519   1.679  14.981  2.5971  0.8971  0.3140
 9455TIP3    H249857   5.418   1.773  15.043  0.6569  0.2101 -1.6689
 9456TIP3   OH249858   1.748   5.505  13.671 -0.3589 -0.4028 -0.0562
 9456TIP3    H149859   1.742   5.426  13.618 -3.5699 -1.4679  1.6122
 9456TIP3    H249860   1.828   5.493  13.723  0.2523 -1.5713 -1.1978
 9457TIP3   OH249861   5.281   1.656   2.163 -0.5217 -0.2182  0.0690
 9457TIP3    H149862   5.232   1.622   2.089 -2.6511 -0.1504  1.3787
 9457TIP3    H249863   5.283   1.751   2.148  2.6856 -0.4454 -1.9457
 9458TIP3   OH249864   6.558   2.972  12.748 -0.8592 -0.3989 -0.5977
 9458TIP3    H149865   6.473   2.962  12.790 -1.0242 -0.6386 -0.9836
 9458TIP3    H249866   6.538   3.004  12.660 -0.3967  2.9228  0.3699
 9459TIP3   OH249867   0.576   1.245  12.334  0.5767  0.1506  0.1126
 9459TIP3    H149868   0.647   1.291  12.289  0.7803 -0.5038 -0.2394
 9459TIP3    H249869   0.497   1.297  12.314  0.9254  0.8078  0.4051
 9460TIP3   OH249870   2.239   2.437   4.240 -0.3369  0.5957 -0.3516
 9460TIP3    H149871   2.149   2.469   4.232 -0.2151  1.6761  1.9564
 9460TIP3    H249872   2.230   2.342   4.243 -1.5215  0.7100  0.7024
 9461TIP3   OH249873   3.051   3.427  10.762 -0.3285 -0.1701  0.0443
 9461TIP3    H149874   3.142   3.400  10.771 -0.1931  0.2297 -0.0776
 9461TIP3    H249875   3.000   3.347  10.775  0.1036 -0.7602 -1.7100
 9462TIP3   OH249876   1.192   5.087  15.213  0.2266 -0.2045 -0.1879
 9462TIP3    H149877   1.136   5.163  15.225 -1.9038 -1.5485 -1.1078
 9462TIP3    H249878   1.175   5.032  15.289  0.7915 -0.3588 -0.1689
 9463TIP3   OH249879   5.753   0.857  15.654 -0.3949  0.6057  0.7340
 9463TIP3    H149880   5.821   0.851  15.722  2.1705  3.0866 -1.3317
 9463TIP3    H249881   5.799   0.836  15.573 -2.2233  1.9484 -0.7265
 9464TIP3   OH249882   6.284   6.631   3.717 -0.2156 -0.0308  0.1280
 9464TIP3    H149883   6.371   6.645   3.755 -0.0825  0.8836 -0.4651
 9464TIP3    H249884   6.267   6.712   3.667 -2.1893  0.5997  1.7063
 9465TIP3   OH249885   3.164   2.967   6.489 -0.4004  0.1350 -0.1049
 9465TIP3    H149886   3.117   2.885   6.502 -1.5846  0.9728  1.1930
 9465TIP3    H249887   3.208   2.984   6.573  2.5919 -0.7752 -1.3474
 9466TIP3   OH249888   5.493   3.304   0.625  0.6140  0.0573 -0.7323
 9466TIP3    H149889   5.507   3.395   0.599 -1.1343  1.1894  1.8878
 9466TIP3    H249890   5.402   3.286   0.603  0.3592 -0.3662  0.5824
 9467TIP3   OH249891   3.112   2.698   6.580 -0.3471  0.1012  0.2102
 9467TIP3    H149892   3.036   2.702   6.638 -0.1504  3.1134  0.4524
 9467TIP3    H249893   3.181   2.659   6.634 -1.3173 -1.2962  0.4778
 9468TIP3   OH249894   2.222   6.724  11.802  0.0889  0.2615 -0.0025
 9468TIP3    H149895   2.179   6.781  11.866  0.5258  0.6156 -0.0209
 9468TIP3    H249896   2.153   6.705  11.738 -0.2084  0.3283  0.2902
 9469TIP3   OH249897   6.420   3.826  15.471 -0.0319 -0.3754  0.3689
 9469TIP3    H149898   6.490   3.803  15.409 -0.2264 -2.4834  0.8633
 9469TIP3    H249899   6.344   3.841  15.415 -0.2511 -2.4329  0.0304
 9470TIP3   OH249900   0.499   2.533   4.580  0.2156 -0.4615 -0.1451
 9470TIP3    H149901   0.489   2.541   4.485 -1.7681 -0.2535  0.0398
 9470TIP3    H249902   0.436   2.595   4.616  1.7263  0.2942  1.3390
 9471TIP3   OH249903   0.321   3.612  13.078 -0.7967  0.0061  0.2627
 9471TIP3    H149904   0.408   3.600  13.040 -0.0172 -0.7118  2.1366
 9471TIP3    H249905   0.303   3.706  13.068  1.0267  0.5493  1.4168
 9472TIP3   OH249906   2.890   3.515   4.000 -0.3507  0.2285  0.8582
 9472TIP3    H149907   2.962   3.455   3.978  0.0170  0.4956  1.3336
 9472TIP3    H249908   2.811   3.460   3.995 -0.1523  0.0035  0.0406
 9473TIP3   OH249909   5.566   6.068   5.117 -0.2700 -0.2085 -0.2909
 9473TIP3    H149910   5.587   6.077   5.210  2.3515  0.1594 -0.8280
 9473TIP3    H249911   5.651   6.076   5.073 -1.4434 -0.3467 -2.7262
 9474TIP3   OH249912   1.286   5.722  16.739  0.5330  0.2804  0.1749
 9474TIP3    H149913   1.280   5.630  16.712  0.8711  0.0792  0.7724
 9474TIP3    H249914   1.380   5.739  16.748  0.4482  0.4297  0.8999
 9475TIP3   OH249915   3.073   2.679   2.891 -0.1563  0.0976  0.2595
 9475TIP3    H149916   3.019   2.673   2.812  0.3349  0.4397 -0.1073
 9475TIP3    H249917   3.088   2.773   2.902 -0.6382  0.0891  1.0495
 9476TIP3   OH249918   1.472   5.230  15.642  0.2584 -0.5038  0.0676
 9476TIP3    H149919   1.483   5.320  15.672  1.1384 -0.6452  0.2051
 9476TIP3    H249920   1.562   5.198  15.630 -0.0323 -0.5924 -2.2762
 9477TIP3   OH249921   4.929   0.216  13.858 -0.1457  0.0464  0.7038
 9477TIP3    H149922   4.859   0.155  13.880 -2.9344  2.0164 -1.8067
 9477TIP3    H249923   4.999   0.161  13.823 -1.5922 -1.8780  0.6746
 9478TIP3   OH249924   6.164   1.887   2.765  0.6593  0.0091  0.9608
 9478TIP3    H149925   6.141   1.886   2.672 -0.1741  0.6204  1.1513
 9478TIP3    H249926   6.260   1.886   2.765  0.6696 -0.2500  0.1035
 9479TIP3   OH249927   1.848   6.097   2.961  0.3144  0.1399 -0.1044
 9479TIP3    H149928   1.905   6.052   3.023  0.9223  1.9763  0.7260
 9479TIP3    H249929   1.857   6.189   2.982  1.9488  1.0707 -4.0424
 9480TIP3   OH249930   1.027   5.056   3.028 -0.5511  0.1725 -0.0278
 9480TIP3    H149931   0.945   5.012   3.004 -0.7458 -0.0507  0.9848
 9480TIP3    H249932   1.043   5.027   3.118  0.1675  0.9260  0.0896
 9481TIP3   OH249933   1.554   1.084  15.986  0.8605  0.0049  0.4348
 9481TIP3    H149934   1.471   1.038  15.974 -0.0773  1.0754  2.3798
 9481TIP3    H249935   1.595   1.042  16.061  1.4969  0.2710  0.2447
 9482TIP3   OH249936   3.813   3.252   2.033 -0.1079 -0.1510  0.0147
 9482TIP3    H149937   3.758   3.329   2.015  0.7996  0.1011 -1.9355
 9482TIP3    H249938   3.899   3.289   2.053 -0.3393 -0.5850  2.0167
 9483TIP3   OH249939   1.643   4.001  10.859 -0.0197  0.0005 -0.3239
 9483TIP3    H149940   1.639   4.070  10.794 -1.6286 -0.8647 -1.1953
 9483TIP3    H249941   1.666   3.922  10.809  0.0195 -0.4379  0.3664
 9484TIP3   OH249942   1.415   5.228   2.181  0.1221  0.9075 -0.6823
 9484TIP3    H149943   1.358   5.158   2.149  0.7631  0.4065 -0.7535
 9484TIP3    H249944   1.495   5.183   2.208 -0.0130  1.4358  0.6790
 9485TIP3   OH249945   5.223   3.297  12.958 -0.5076  0.3953 -0.1601
 9485TIP3    H149946   5.254   3.257  13.040  0.3252 -1.1966 -1.1842
 9485TIP3    H249947   5.208   3.223  12.900 -0.5669  1.5167 -1.6314
 9486TIP3   OH249948   0.286   2.394   1.310 -0.6307  0.1042  0.1087
 9486TIP3    H149949   0.278   2.374   1.404  0.5708  2.3996  0.7808
 9486TIP3    H249950   0.377   2.375   1.289 -0.8371 -0.1733 -0.5510
 9487TIP3   OH249951   1.818   6.014   4.853  0.3585 -0.2555  0.4950
 9487TIP3    H149952   1.789   6.098   4.818 -1.8591 -0.9208  0.5651
 9487TIP3    H249953   1.742   5.982   4.903  1.6676 -1.6273  1.6972
 9488TIP3   OH249954   1.478   4.438  11.972  0.3390  0.0029 -0.4473
 9488TIP3    H149955   1.554   4.382  11.990  1.0938  1.0900 -0.1960
 9488TIP3    H249956   1.404   4.377  11.973  0.9920 -0.8219  0.9564
 9489TIP3   OH249957   3.676   6.580  12.621 -0.2093 -0.3112 -0.4067
 9489TIP3    H149958   3.592   6.584  12.667 -1.0122  0.7905 -1.8621
 9489TIP3    H249959   3.652   6.561  12.530  0.9370  1.7912 -1.2128
 9490TIP3   OH249960   6.219   2.394  17.292 -0.0694 -0.6344  0.1882
 9490TIP3    H149961   6.250   2.442  17.215  1.7971 -2.3019 -0.2058
 9490TIP3    H249962   6.204   2.305  17.260 -1.1752 -0.8994  1.3667
 9491TIP3   OH249963   6.548   4.646   3.777  0.3051  0.0224 -0.0738
 9491TIP3    H149964   6.466   4.650   3.827  0.9461 -0.3750  1.0363
 9491TIP3    H249965   6.600   4.719   3.811  0.2099  0.6336 -1.1853
 9492TIP3   OH249966   1.249   1.326  15.918 -0.1435  0.0955 -0.1517
 9492TIP3    H149967   1.309   1.281  15.859  2.1291  0.7825  1.5309
 9492TIP3    H249968   1.200   1.255  15.960  0.7689 -0.5893 -0.2215
 9493TIP3   OH249969   0.392   6.633  11.401 -0.0739  0.1787  0.3377
 9493TIP3    H149970   0.441   6.698  11.452  0.3638  0.1545 -0.0572
 9493TIP3    H249971   0.337   6.590  11.466  1.3668 -0.6910  1.0170
 9494TIP3   OH249972   1.129   0.313   2.000  0.5372  0.1289 -0.2749
 9494TIP3    H149973   1.196   0.262   2.046 -0.4371  0.4018  1.5101
 9494TIP3    H249974   1.059   0.250   1.983  0.5935  0.1961 -0.7747
 9495TIP3   OH249975   6.520   2.480  15.946 -0.4265  0.4937 -0.0252
 9495TIP3    H149976   6.492   2.401  15.899  0.4840  0.5202 -0.6413
 9495TIP3    H249977   6.440   2.531  15.957 -0.8338 -0.0012 -0.6288
 9496TIP3   OH249978   2.161   2.640   3.291  0.5697  0.3956  0.0065
 9496TIP3    H149979   2.140   2.724   3.250  1.1546  0.5141 -0.0547
 9496TIP3    H249980   2.208   2.591   3.224 -0.7593 -0.4353 -0.3498
 9497TIP3   OH249981   2.466   1.564  12.254  0.3516  0.0392  0.4703
 9497TIP3    H149982   2.470   1.640  12.312 -0.6218  0.4242  0.0688
 9497TIP3    H249983   2.491   1.599  12.168  0.6059 -0.2490  0.4296
 9498TIP3   OH249984   5.540   3.905   5.982  0.3870 -0.1716  0.3902
 9498TIP3    H149985   5.601   3.862   5.922 -0.4115 -0.6381 -0.1186
 9498TIP3    H249986   5.592   3.970   6.028  0.9937  0.3121 -0.9359
 9499TIP3   OH249987   6.374   5.025   3.116  0.1135  0.0805 -0.0244
 9499TIP3    H149988   6.444   5.086   3.142 -0.3979  0.7003 -0.0776
 9499TIP3    H249989   6.293   5.074   3.131 -0.6883 -2.0459  4.2147
 9500TIP3   OH249990   4.451   3.870   2.170  0.0353  0.2958  0.0684
 9500TIP3    H149991   4.485   3.834   2.252  0.7661  1.2436  0.1915
 9500TIP3    H249992   4.511   3.941   2.147  0.9616 -1.1317 -2.2901
 9501TIP3   OH249993   2.803   1.082  11.429  0.2725 -0.2091  0.3671
 9501TIP3    H149994   2.863   1.141  11.474  0.4976 -0.7730  0.8201
 9501TIP3    H249995   2.779   1.128  11.349 -2.0111  1.9312  2.1106
 9502TIP3   OH249996   2.818   4.911   4.256  0.5947  0.3674 -0.2612
 9502TIP3    H149997   2.839   4.883   4.166  1.6228 -2.7345  0.7914
 9502TIP3    H249998   2.903   4.926   4.297  0.2249  0.0653  0.6436
 9503TIP3   OH249999   5.766   6.413   0.662 -0.0185 -0.1312  0.0480
 9503TIP3    H150000   5.693   6.436   0.719 -0.8067 -1.9860 -0.1771
 9503TIP3    H250001   5.815   6.347   0.711  1.7729  1.3078  0.3520
 9504TIP3   OH250002   0.398   3.532  11.693  0.0245 -0.5998 -0.2357
 9504TIP3    H150003   0.449   3.455  11.666  1.1648 -0.0023  0.1517
 9504TIP3    H250004   0.462   3.603  11.697 -1.2003  0.6610 -1.6627
 9505TIP3   OH250005   1.005   2.239  14.960  0.3569  0.1313  0.0721
 9505TIP3    H150006   1.089   2.218  14.919  0.4442  0.0161  0.3092
 9505TIP3    H250007   0.945   2.253  14.886 -0.2546 -3.0242 -0.1420
 9506TIP3   OH250008   2.201   1.835  12.278 -0.2258  0.3578  0.2076
 9506TIP3    H150009   2.203   1.928  12.256 -2.5245  0.7892  1.5432
 9506TIP3    H250010   2.148   1.795  12.208 -3.0618  0.8823  1.8832
 9507TIP3   OH250011   5.282   5.081  14.554  0.6191  0.0757  0.3584
 9507TIP3    H150012   5.196   5.056  14.586 -1.1192  2.0997 -2.3273
 9507TIP3    H250013   5.288   5.175  14.572  2.0837  0.0643  0.0728
 9508TIP3   OH250014   5.407   3.296   1.690 -0.6334  0.0913 -0.2827
 9508TIP3    H150015   5.476   3.358   1.669 -1.2600  0.6604 -0.6943
 9508TIP3    H250016   5.442   3.244   1.762  0.0096  0.7273 -0.1291
 9509TIP3   OH250017   5.657   5.242  17.061  0.1821 -0.1282  0.3264
 9509TIP3    H150018   5.576   5.209  17.101 -0.4825  1.6077  0.4666
 9509TIP3    H250019   5.669   5.329  17.097  0.6589  0.7125 -1.7003
 9510TIP3   OH250020   1.667   6.694   1.254 -0.5929  0.6615  0.1144
 9510TIP3    H150021   1.578   6.680   1.286 -0.6026 -1.0261 -0.5280
 9510TIP3    H250022   1.722   6.688   1.332 -0.9738  0.7585  0.3900
 9511TIP3   OH250023   3.723   6.267   1.539 -0.1994 -0.2357 -0.5863
 9511TIP3    H150024   3.657   6.313   1.487 -0.1367 -0.5121 -0.9115
 9511TIP3    H250025   3.688   6.178   1.549 -0.0473 -0.2815 -0.4510
 9512TIP3   OH250026   6.216   1.062  16.177  0.0230  0.1126 -0.3610
 9512TIP3    H150027   6.252   1.037  16.262 -0.8210 -3.1885 -0.8495
 9512TIP3    H250028   6.167   1.142  16.195 -1.0313 -1.0389  2.5569
 9513TIP3   OH250029   3.422   1.440   1.639 -0.1483  0.2114 -0.4158
 9513TIP3    H150030   3.394   1.399   1.721 -1.2342  1.3381 -0.1969
 9513TIP3    H250031   3.424   1.368   1.576 -0.2964 -0.4896  0.3631
 9514TIP3   OH250032   4.685   3.758   0.073 -0.2394  0.4354  0.3740
 9514TIP3    H150033   4.739   3.708   0.013  0.5002  1.2603  0.3426
 9514TIP3    H250034   4.738   3.834   0.096 -0.6885  0.3693  1.7114
 9515TIP3   OH250035   3.674   1.755  12.265 -0.3595 -0.2483  0.2324
 9515TIP3    H150036   3.623   1.836  12.276  0.5355  0.4922 -0.8148
 9515TIP3    H250037   3.678   1.742  12.170 -1.3411 -2.1132  0.4029
 9516TIP3   OH250038   4.437   4.569   0.889  0.5136  0.2378  0.3797
 9516TIP3    H150039   4.391   4.563   0.972 -0.9719  1.9372 -0.2489
 9516TIP3    H250040   4.483   4.486   0.880 -1.4413 -1.0522  1.6387
 9517TIP3   OH250041   0.905   3.111  12.020  0.2867 -0.0104  1.0421
 9517TIP3    H150042   0.883   3.054  11.946  0.9176  0.1796  0.6946
 9517TIP3    H250043   0.894   3.200  11.985  4.1598  0.2276 -0.1009
 9518TIP3   OH250044   5.662   3.973  16.290  0.0590  0.9223  0.8188
 9518TIP3    H150045   5.597   3.947  16.356  1.8494 -0.0587  2.3273
 9518TIP3    H250046   5.705   3.891  16.266 -0.3067  1.3159 -1.3836
 9519TIP3   OH250047   0.621   0.645   2.258 -0.0729 -0.1492  0.5038
 9519TIP3    H150048   0.558   0.593   2.208 -0.6590 -0.6135  1.6869
 9519TIP3    H250049   0.651   0.712   2.196 -2.6969  0.9257  0.2398
 9520TIP3   OH250050   4.501   4.939  13.146  0.3019 -0.0694 -0.3653
 9520TIP3    H150051   4.468   4.849  13.141 -1.9649  0.7917 -2.7917
 9520TIP3    H250052   4.575   4.941  13.085  0.0149 -0.1520 -0.7160
 9521TIP3   OH250053   3.304   6.044   2.086 -0.5674 -0.2633  0.2110
 9521TIP3    H150054   3.233   6.106   2.101 -1.5335 -1.5844  1.3924
 9521TIP3    H250055   3.310   5.994   2.167  1.5562 -0.3750  0.0300
 9522TIP3   OH250056   5.395   2.029   0.106 -0.0298 -0.2056 -0.0543
 9522TIP3    H150057   5.481   2.059   0.138 -0.4313 -0.3748  1.2218
 9522TIP3    H250058   5.416   1.971   0.033  0.9112  0.3355 -0.2297
 9523TIP3   OH250059   5.277   0.493  13.761  0.4144  0.4901 -0.3871
 9523TIP3    H150060   5.286   0.474  13.668 -3.5907 -1.1067 -0.6642
 9523TIP3    H250061   5.209   0.560  13.766  2.2937  2.4342  1.4136
 9524TIP3   OH250062   0.753   1.802   4.761 -0.1496  0.1277  0.5703
 9524TIP3    H150063   0.728   1.717   4.796  0.7235 -0.2212  0.3712
 9524TIP3    H250064   0.812   1.782   4.689 -0.8180  0.8784 -0.2025
 9525TIP3   OH250065   0.202   2.743   6.106  0.3010  0.1832 -0.8878
 9525TIP3    H150066   0.298   2.737   6.108  0.2278 -3.1464  0.8317
 9525TIP3    H250067   0.182   2.815   6.166  1.7770 -0.9221  1.0759
 9526TIP3   OH250068   3.136   5.859   1.594  0.3038  0.2203  0.0412
 9526TIP3    H150069   3.180   5.917   1.656  0.9390 -0.2026 -0.0106
 9526TIP3    H250070   3.168   5.887   1.508  0.8165 -0.3691  0.0323
 9527TIP3   OH250071   4.914   2.930  12.455 -0.1150 -0.2192  0.2623
 9527TIP3    H150072   4.932   2.930  12.361  0.5059 -2.0882  0.3473
 9527TIP3    H250073   4.974   2.996  12.490  0.6259 -0.4683 -0.4882
 9528TIP3   OH250074   4.117   1.880  15.472  0.1685  0.6727  0.5375
 9528TIP3    H150075   4.063   1.954  15.446 -0.0106  1.0228  1.8520
 9528TIP3    H250076   4.119   1.823  15.394 -0.0734  1.8107 -0.3217
 9529TIP3   OH250077   0.724   5.930  12.963  0.6115 -0.0403  0.3928
 9529TIP3    H150078   0.763   5.974  12.887 -0.9363  1.1838  0.2405
 9529TIP3    H250079   0.784   5.949  13.035  1.6827 -0.5266 -0.3537
 9530TIP3   OH250080   4.855   0.446   3.135 -0.3894 -0.1691 -0.1558
 9530TIP3    H150081   4.759   0.454   3.134 -0.5572 -1.8516 -1.1499
 9530TIP3    H250082   4.885   0.524   3.182 -2.2198  0.6085 -0.1892
 9531TIP3   OH250083   5.922   4.875  10.889 -0.6492 -0.0571  0.1136
 9531TIP3    H150084   5.842   4.924  10.906 -0.0313  0.8578  0.5115
 9531TIP3    H250085   5.955   4.910  10.806 -0.9606 -0.8452 -0.3481
 9532TIP3   OH250086   0.457   2.652   0.173  0.1408 -0.4180  0.3060
 9532TIP3    H150087   0.495   2.715   0.234  1.3109 -0.6359 -0.1678
 9532TIP3    H250088   0.504   2.571   0.190 -0.1952 -0.7302 -0.2262
 9533TIP3   OH250089   3.608   1.243   4.947  0.2978  0.0234 -0.0044
 9533TIP3    H150090   3.609   1.339   4.947  1.5903  0.0317  0.5658
 9533TIP3    H250091   3.664   1.218   5.021  0.5091 -1.1675 -0.5357
 9534TIP3   OH250092   0.630   4.211  15.395  0.3264 -0.3451 -0.2145
 9534TIP3    H150093   0.710   4.171  15.429  0.2255 -1.1604 -0.8939
 9534TIP3    H250094   0.624   4.180  15.304  0.0451  0.9478 -0.6493
 9535TIP3   OH250095   4.738   5.576   6.540  0.1197 -0.0291  0.5625
 9535TIP3    H150096   4.815   5.622   6.506 -0.7052  1.0320  0.0399
 9535TIP3    H250097   4.664   5.632   6.516 -0.9959 -1.8238 -0.4136
 9536TIP3   OH250098   1.042   4.068  13.728  0.6927 -0.6183 -0.3397
 9536TIP3    H150099   0.964   4.019  13.752  0.3893  0.1845  0.3558
 9536TIP3    H250100   1.098   4.064  13.806 -0.3791  2.1796  0.6825
 9537TIP3   OH250101   2.119   4.893  11.476  0.3205  0.2782  0.7403
 9537TIP3    H150102   2.053   4.934  11.532 -0.2645 -1.2318  1.2062
 9537TIP3    H250103   2.073   4.874  11.395  0.5599  0.4577  0.5628
 9538TIP3   OH250104   0.245   6.132   4.400  0.2356 -0.4946  0.0592
 9538TIP3    H150105   0.170   6.080   4.430  0.8401 -1.4221  0.0239
 9538TIP3    H250106   0.231   6.143   4.306 -0.4826  0.4137  0.2646
 9539TIP3   OH250107   6.594   4.066  14.993  0.1204 -0.3019 -0.2747
 9539TIP3    H150108   6.688   4.071  15.014 -0.1933 -0.7144  1.3856
 9539TIP3    H250109   6.568   4.157  14.978  0.0009  0.3696  3.2500
 9540TIP3   OH250110   2.058   4.326   1.294  0.0734 -0.1049  0.0475
 9540TIP3    H150111   2.140   4.352   1.253 -1.1733  0.7350 -2.0644
 9540TIP3    H250112   2.022   4.407   1.330 -0.6074 -0.1210 -0.5627
 9541TIP3   OH250113   0.198   6.142  14.962  0.1730  0.2909  0.4306
 9541TIP3    H150114   0.143   6.086  14.906  0.6506 -2.2843  2.3723
 9541TIP3    H250115   0.272   6.166  14.906 -0.4101 -0.3993 -0.6799
 9542TIP3   OH250116   5.734   3.775  12.464 -0.2385 -0.1923  0.5264
 9542TIP3    H150117   5.778   3.858  12.479 -1.2995  0.3648  0.6191
 9542TIP3    H250118   5.805   3.710  12.462  0.5434  0.6316  0.9926
 9543TIP3   OH250119   5.046   1.249  15.114  0.1389 -0.0017  0.1127
 9543TIP3    H150120   5.094   1.276  15.192 -1.1916  0.6801  0.7466
 9543TIP3    H250121   5.071   1.313  15.047 -1.3502  1.6530  1.0096
 9544TIP3   OH250122   5.002   0.342  14.437  0.2185  0.2671 -0.6318
 9544TIP3    H150123   5.010   0.391  14.519  0.9179 -1.1132  0.1577
 9544TIP3    H250124   5.021   0.407  14.369 -0.5482  1.4782  0.2665
 9545TIP3   OH250125   4.074   6.613  14.283  0.3364  0.2293 -0.1396
 9545TIP3    H150126   4.152   6.568  14.251 -0.1277 -0.8454  0.2188
 9545TIP3    H250127   4.006   6.546  14.286 -1.6890  1.8195 -3.9341
 9546TIP3   OH250128   1.716   1.047  16.217  0.2210 -0.1350 -0.0905
 9546TIP3    H150129   1.790   1.075  16.163  1.4235 -3.7740 -0.6625
 9546TIP3    H250130   1.734   1.082  16.304  1.0693  1.4463 -0.8695
 9547TIP3   OH250131   4.818   0.412  15.158 -0.4237  0.1186  0.6064
 9547TIP3    H150132   4.837   0.381  15.069  1.0933  0.5214  0.7726
 9547TIP3    H250133   4.772   0.339  15.199 -1.2537 -0.0358 -0.5298
 9548TIP3   OH250134   5.935   3.220  17.161 -0.3801 -0.0500  0.5912
 9548TIP3    H150135   5.931   3.248  17.069  0.9635  1.3478  0.9373
 9548TIP3    H250136   6.024   3.239  17.189 -1.0354  0.4560  2.4757
 9549TIP3   OH250137   1.533   5.258   2.822 -0.2445 -0.7439 -0.4921
 9549TIP3    H150138   1.485   5.210   2.889 -0.5570 -2.0204 -1.5927
 9549TIP3    H250139   1.625   5.247   2.845 -0.3706 -0.4253  0.1991
 9550TIP3   OH250140   0.178   4.920   0.529 -0.4811 -0.0829  0.2691
 9550TIP3    H150141   0.178   4.971   0.448 -2.5114 -0.2840  0.0994
 9550TIP3    H250142   0.183   4.829   0.500 -1.4725 -0.1680  0.3341
 9551TIP3   OH250143   0.630   2.988   4.342 -0.0435  0.1475  0.4549
 9551TIP3    H150144   0.683   2.961   4.416 -0.2999  0.8639  0.9187
 9551TIP3    H250145   0.664   2.938   4.268  2.5952  1.9586  0.2995
 9552TIP3   OH250146   5.274   1.252   6.166 -0.2490 -0.4594 -0.5563
 9552TIP3    H150147   5.209   1.316   6.195  0.0778  1.1071 -2.9627
 9552TIP3    H250148   5.355   1.303   6.158  0.8277 -1.9383  0.5047
 9553TIP3   OH250149   3.258   4.332   1.087 -0.1942  0.3737 -0.1228
 9553TIP3    H150150   3.286   4.284   1.165  1.0052  0.5743 -0.4109
 9553TIP3    H250151   3.180   4.380   1.115 -0.2541 -0.1926  0.7194
 9554TIP3   OH250152   4.483   5.031  11.712  0.7046  0.4565  1.0332
 9554TIP3    H150153   4.551   4.964  11.703 -0.4845 -0.7994  1.2213
 9554TIP3    H250154   4.401   4.985  11.698 -0.1087  2.0813  0.1286
 9555TIP3   OH250155   1.584   6.753   2.779 -0.2712  0.5532  0.1352
 9555TIP3    H150156   1.562   6.791   2.864  1.8889  3.6127 -0.4861
 9555TIP3    H250157   1.635   6.675   2.800 -1.4654  0.1137  1.5813
 9556TIP3   OH250158   5.772   5.160   2.298 -0.6656  0.0834 -0.5841
 9556TIP3    H150159   5.731   5.119   2.222 -0.7285 -0.6548 -0.1660
 9556TIP3    H250160   5.858   5.118   2.304 -0.1138  1.1079 -1.0336
 9557TIP3   OH250161   2.766   5.985   2.931  0.0539 -0.4918 -0.3283
 9557TIP3    H150162   2.790   6.070   2.967  1.9440  0.1452 -2.8075
 9557TIP3    H250163   2.671   5.982   2.935  0.0134  1.2523  0.7802
 9558TIP3   OH250164   4.445   0.653  14.509 -0.5741 -1.1383  0.2467
 9558TIP3    H150165   4.382   0.700  14.564 -0.9013 -2.7476  1.2938
 9558TIP3    H250166   4.519   0.634  14.566  2.3511  3.1377 -1.5783
 9559TIP3   OH250167   2.099   1.838  15.248  0.4721  0.0309 -0.3225
 9559TIP3    H150168   2.110   1.885  15.330 -1.2237 -0.6833  0.3615
 9559TIP3    H250169   2.188   1.816  15.220  1.0300 -1.1000  2.1504
 9560TIP3   OH250170   2.053   5.884   1.417  0.0744  0.2242  0.5670
 9560TIP3    H150171   2.107   5.829   1.473  0.0137 -1.3448 -0.8179
 9560TIP3    H250172   2.108   5.903   1.341 -0.6782  0.1494 -0.0101
 9561TIP3   OH250173   2.341   4.752   4.745  0.6035 -0.2849  0.1708
 9561TIP3    H150174   2.431   4.728   4.721  0.4685  0.8719 -1.6789
 9561TIP3    H250175   2.288   4.676   4.719  1.1136 -1.5572  2.5109
 9562TIP3   OH250176   0.885   4.547  11.863  0.4610  0.5205 -0.4722
 9562TIP3    H150177   0.897   4.585  11.776 -0.6097 -1.2105 -1.4366
 9562TIP3    H250178   0.813   4.485  11.853  0.9551 -0.4554  1.4252
 9563TIP3   OH250179   0.066   5.126   3.523 -0.6281  0.0010 -0.5048
 9563TIP3    H150180  -0.008   5.184   3.506 -0.7657  0.2382  0.7842
 9563TIP3    H250181   0.143   5.184   3.522 -0.5136 -0.1490 -1.2525
 9564TIP3   OH250182   1.460   5.441  16.796  0.6579  0.0385  0.4054
 9564TIP3    H150183   1.376   5.404  16.770  1.5158 -0.5916 -1.7005
 9564TIP3    H250184   1.513   5.365  16.822  0.4059  0.4936  2.4117
 9565TIP3   OH250185   4.190   3.799   6.847  0.0465 -0.2882  0.0446
 9565TIP3    H150186   4.235   3.837   6.772 -1.1195 -3.4131 -2.4607
 9565TIP3    H250187   4.256   3.742   6.888  0.5112  0.9757  1.1154
 9566TIP3   OH250188   5.723   3.104   4.864  0.0746 -0.4346  0.6179
 9566TIP3    H150189   5.693   3.021   4.827  1.1204 -0.1200 -1.0386
 9566TIP3    H250190   5.652   3.165   4.845  0.1579 -0.5151  0.0075
 9567TIP3   OH250191   6.345   1.665   0.320 -0.5977 -0.0542 -0.3636
 9567TIP3    H150192   6.342   1.574   0.351 -2.5802 -0.0751 -0.4693
 9567TIP3    H250193   6.438   1.683   0.308 -0.0588 -1.5734  1.0948
 9568TIP3   OH250194   0.993   2.942   0.146 -0.3482  0.4168  0.2190
 9568TIP3    H150195   0.998   2.874   0.080  1.7163  2.2560 -1.7110
 9568TIP3    H250196   0.902   2.970   0.146 -0.9603 -1.4504  0.1952
 9569TIP3   OH250197   3.901   4.172  16.187 -0.5702  0.4582 -0.0455
 9569TIP3    H150198   3.871   4.103  16.128 -0.5916 -1.4097  2.0497
 9569TIP3    H250199   3.996   4.164  16.186 -0.5537  0.6468 -0.0512
 9570TIP3   OH250200   3.393   5.716   1.954  0.7751  0.1425  0.1553
 9570TIP3    H150201   3.411   5.684   1.866  0.9756  1.6125 -0.3618
 9570TIP3    H250202   3.377   5.809   1.943  1.8499  0.5637  1.8221
 9571TIP3   OH250203   4.920   0.371  16.658  0.0542 -0.0417 -0.0186
 9571TIP3    H150204   5.011   0.340  16.652 -0.6694 -2.1555 -1.3290
 9571TIP3    H250205   4.870   0.306  16.609 -1.8116  2.6725 -1.9991
 9572TIP3   OH250206   1.920   5.585  10.626  0.2255  0.5614 -0.7836
 9572TIP3    H150207   1.945   5.544  10.543 -1.2523 -0.6383 -0.6674
 9572TIP3    H250208   1.928   5.679  10.608  3.3309  0.3418 -1.1557
 9573TIP3   OH250209   3.293   5.017   2.302  0.1314  0.0186  0.4040
 9573TIP3    H150210   3.232   5.089   2.286  1.7358  1.5627  0.9473
 9573TIP3    H250211   3.278   4.956   2.230 -1.8793  0.4468  0.4075
 9574TIP3   OH250212   1.982   5.331  13.293  0.2862  0.0981  0.2168
 9574TIP3    H150213   1.932   5.360  13.216 -1.1774  2.3171  1.9048
 9574TIP3    H250214   2.070   5.369  13.280  0.4988 -0.7366 -0.9908
 9575TIP3   OH250215   2.724   2.801   3.649 -0.1417 -0.1127  0.2429
 9575TIP3    H150216   2.718   2.794   3.553 -2.7282 -0.2096  0.3308
 9575TIP3    H250217   2.715   2.712   3.680  0.1395 -0.0168  0.6010
 9576TIP3   OH250218   4.984   5.718  13.104 -0.1244 -0.8510 -0.4180
 9576TIP3    H150219   4.966   5.624  13.103 -1.1389 -0.6845  0.1850
 9576TIP3    H250220   5.079   5.725  13.112 -0.1567 -1.8612  1.4139
 9577TIP3   OH250221   0.217   1.188  14.409  0.5098 -0.5266  0.1595
 9577TIP3    H150222   0.277   1.260  14.426  1.6149 -1.0142 -1.4025
 9577TIP3    H250223   0.136   1.231  14.381  1.1081  0.1258 -0.6255
 9578TIP3   OH250224   1.505   1.845  16.149 -0.4860  0.1785 -0.2091
 9578TIP3    H150225   1.550   1.907  16.091  1.4232  0.2290  1.2110
 9578TIP3    H250226   1.538   1.866  16.237 -3.1863  0.0277  0.9242
 9579TIP3   OH250227   3.142   4.805   3.974 -0.1464  0.1210 -0.2591
 9579TIP3    H150228   3.196   4.735   4.010 -0.4307  1.2164  2.5617
 9579TIP3    H250229   3.061   4.761   3.946 -0.2238 -0.7491  1.2474
 9580TIP3   OH250230   3.282   1.406   0.728  0.3108 -0.5472 -0.8161
 9580TIP3    H150231   3.312   1.496   0.742 -1.2801 -0.2761  1.4869
 9580TIP3    H250232   3.362   1.355   0.720  1.6910  0.2332  4.3474
 9581TIP3   OH250233   5.611   2.387   0.393 -0.4119 -0.0014 -0.1091
 9581TIP3    H150234   5.643   2.339   0.316 -1.1676 -1.7400  0.6043
 9581TIP3    H250235   5.685   2.439   0.422  1.0998 -2.1545  0.1497
 9582TIP3   OH250236   3.297   1.377  16.894  0.0494 -0.5895 -0.3849
 9582TIP3    H150237   3.358   1.386  16.820  0.5638 -2.3267 -0.2151
 9582TIP3    H250238   3.276   1.467  16.919  1.7598  0.0402 -1.0948
 9583TIP3   OH250239   5.760   1.020  17.200  0.1887 -0.2792 -0.0661
 9583TIP3    H150240   5.798   0.966  17.131  2.2748  1.7816 -0.6335
 9583TIP3    H250241   5.677   1.051  17.163 -0.1939 -1.6550 -0.4026
 9584TIP3   OH250242   2.102   5.396   1.519  0.7455 -0.6222  0.1612
 9584TIP3    H150243   2.185   5.393   1.567  0.4819 -0.1260  0.6604
 9584TIP3    H250244   2.093   5.309   1.481  1.6421 -0.5879 -0.1529
 9585TIP3   OH250245   5.833   3.757   1.158  0.1251  0.5724  0.0863
 9585TIP3    H150246   5.914   3.763   1.109  0.7305  0.0071  0.9741
 9585TIP3    H250247   5.856   3.707   1.237 -0.1862  3.5345  2.2207
 9586TIP3   OH250248   3.194   0.987  13.828 -0.2080 -0.1426  0.4355
 9586TIP3    H150249   3.277   1.029  13.849 -0.4234  0.5079 -0.0047
 9586TIP3    H250250   3.176   1.013  13.738 -1.6195  0.9320  0.9935
 9587TIP3   OH250251   3.324   0.510   1.578  0.0472 -0.7181  0.6636
 9587TIP3    H150252   3.282   0.524   1.662  2.3000  2.1021  1.5099
 9587TIP3    H250253   3.269   0.557   1.515 -0.4410 -0.8934  0.9610
 9588TIP3   OH250254   0.111   5.968  11.339 -0.1358  0.1437 -0.3078
 9588TIP3    H150255   0.100   5.907  11.413 -0.5712  0.0641 -0.4344
 9588TIP3    H250256   0.070   5.924  11.265  1.1310 -0.1915 -0.8379
 9589TIP3   OH250257   5.152   1.936   5.012 -0.7310  0.2352  0.2655
 9589TIP3    H150258   5.220   1.920   5.077 -1.3133 -0.4381  0.7403
 9589TIP3    H250259   5.199   1.958   4.932  0.1926 -2.4633 -0.0585
 9590TIP3   OH250260   2.159   5.192  11.628  0.2931 -0.6670 -0.2804
 9590TIP3    H150261   2.165   5.259  11.560  1.1018  0.5249  0.9367
 9590TIP3    H250262   2.068   5.195  11.657  0.4511  0.2996  0.1401
 9591TIP3   OH250263   6.782   5.863  11.144 -0.0215  0.4032 -0.2774
 9591TIP3    H150264   6.779   5.846  11.050  0.0622  0.4583 -0.2905
 9591TIP3    H250265   6.740   5.949  11.154  1.5773  1.2610 -0.4797
 9592TIP3   OH250266   1.657   2.291  15.259 -0.3969  0.3254  0.2504
 9592TIP3    H150267   1.642   2.330  15.173  1.6299  0.3364 -0.1536
 9592TIP3    H250268   1.667   2.197  15.241  1.6250  0.5070  0.1868
 9593TIP3   OH250269   5.908   0.180  11.097 -0.2097  0.1104  0.2164
 9593TIP3    H150270   5.865   0.096  11.113 -0.8995  0.4358  0.0961
 9593TIP3    H250271   5.898   0.195  11.003 -0.6180  0.6075  0.3331
 9594TIP3   OH250272   3.975   2.921   4.990 -0.3517  0.0678 -0.1229
 9594TIP3    H150273   4.056   2.972   4.987  0.4268 -1.0334  1.0307
 9594TIP3    H250274   3.987   2.853   4.924  0.1522 -0.7309  0.7587
 9595TIP3   OH250275   5.406   6.443   0.086  0.0198  0.1027 -0.6386
 9595TIP3    H150276   5.492   6.481   0.099 -0.5337  1.3988 -0.5865
 9595TIP3    H250277   5.421   6.348   0.086  1.4526  0.3088 -0.8409
 9596TIP3   OH250278   6.097   5.509  13.680  0.3030 -0.1097  0.3091
 9596TIP3    H150279   6.178   5.554  13.704 -0.6111  0.9402  1.6387
 9596TIP3    H250280   6.055   5.568  13.617  0.5725 -0.6605 -0.3920
 9597TIP3   OH250281   6.057   2.001  11.883 -1.2098  0.1576  0.4576
 9597TIP3    H150282   6.125   2.068  11.885 -0.7078 -0.2026 -1.7130
 9597TIP3    H250283   6.027   1.993  11.974  0.8828  1.0926  1.2775
 9598TIP3   OH250284   2.135   5.038  11.915 -0.2075  0.2654  0.3386
 9598TIP3    H150285   2.106   5.118  11.960  0.0729  0.2026  0.6360
 9598TIP3    H250286   2.064   5.017  11.855  0.8264  2.2793 -1.7590
 9599TIP3   OH250287   0.278   0.833  13.180 -0.2956  0.3025 -0.7348
 9599TIP3    H150288   0.302   0.893  13.108  2.4083 -0.5831 -0.7053
 9599TIP3    H250289   0.332   0.756  13.164  0.0558 -0.0904  2.0155
 9600TIP3   OH250290   5.155   1.093   0.227 -0.5326 -0.2482 -0.1147
 9600TIP3    H150291   5.182   1.092   0.135 -0.9567 -0.5540 -0.2372
 9600TIP3    H250292   5.097   1.169   0.234  0.0133  0.1601  0.0527
 9601TIP3   OH250293   3.076   5.114  14.221  0.3636  0.3582 -0.1161
 9601TIP3    H150294   3.013   5.146  14.157 -0.4955  0.3402  0.7029
 9601TIP3    H250295   3.047   5.025  14.241  1.0683  0.0863 -0.2419
 9602TIP3   OH250296   2.317   4.939  12.668  0.2359  0.5659  0.0302
 9602TIP3    H150297   2.346   5.023  12.703 -0.8467  1.2572 -0.6588
 9602TIP3    H250298   2.231   4.957  12.629 -0.3083 -0.9976  0.4119
 9603TIP3   OH250299   6.678   3.474  13.642  0.1318 -0.0276 -0.2143
 9603TIP3    H150300   6.719   3.439  13.721 -1.5319 -1.2697  0.1411
 9603TIP3    H250301   6.673   3.399  13.582 -0.4708  0.4083 -0.7196
 9604TIP3   OH250302   4.388   1.561   4.469 -0.8814  0.7745 -0.0488
 9604TIP3    H150303   4.366   1.491   4.407  0.3357  1.0088 -0.7746
 9604TIP3    H250304   4.451   1.521   4.529 -1.4812  0.7735  0.6041
 9605TIP3   OH250305   1.621   4.464  15.388  0.7099 -0.6423  0.3104
 9605TIP3    H150306   1.650   4.465  15.480 -0.1428  0.4764  0.5927
 9605TIP3    H250307   1.678   4.528  15.345  0.5071 -0.4854  0.2717
 9606TIP3   OH250308   4.021   1.516  12.690 -0.3642 -0.4523 -0.0066
 9606TIP3    H150309   4.023   1.611  12.684  0.4722 -0.3651  1.1543
 9606TIP3    H250310   3.979   1.487  12.609 -1.0668  0.9146 -0.1569
 9607TIP3   OH250311   4.810   6.266  13.928 -0.0559 -0.6728 -0.2808
 9607TIP3    H150312   4.866   6.297  13.856  0.4127 -1.6051 -0.3298
 9607TIP3    H250313   4.743   6.213  13.885 -0.8952  0.2972 -0.2009
 9608TIP3   OH250314   2.212   6.147   0.234 -0.9113  0.4315 -0.3377
 9608TIP3    H150315   2.176   6.104   0.312 -0.7422  1.8547  0.5613
 9608TIP3    H250316   2.151   6.219   0.216 -0.6512  0.4449 -1.2068
 9609TIP3   OH250317   3.501   4.864   5.329 -0.1427 -0.3362 -0.5210
 9609TIP3    H150318   3.596   4.857   5.341 -0.4941 -1.2483  2.4407
 9609TIP3    H250319   3.486   4.834   5.240  2.2931 -0.8037 -0.8389
 9610TIP3   OH250320   4.667   1.613   4.728 -0.1487 -0.1580  0.0577
 9610TIP3    H150321   4.656   1.701   4.692  0.2095 -0.8281 -1.7630
 9610TIP3    H250322   4.756   1.587   4.703  0.7028 -0.1105  2.7378
 9611TIP3   OH250323   2.902   4.423  16.334  0.0487 -0.0539 -0.3336
 9611TIP3    H150324   2.851   4.342  16.344 -0.6899  0.5180  0.7445
 9611TIP3    H250325   2.838   4.493  16.340  0.5478  0.6311 -2.2462
 9612TIP3   OH250326   1.496   5.940   2.686 -0.2501 -0.1571 -0.0285
 9612TIP3    H150327   1.562   5.912   2.622  0.1847 -0.2606  0.4546
 9612TIP3    H250328   1.547   5.981   2.756 -0.6128 -1.0868  0.8020
 9613TIP3   OH250329   2.954   4.848   5.290 -0.3692 -0.2641 -0.3692
 9613TIP3    H150330   2.928   4.762   5.259 -2.0087 -0.2882  0.9158
 9613TIP3    H250331   3.047   4.855   5.268  0.4474 -3.3119  1.5138
 9614TIP3   OH250332   2.526   1.562   4.887 -0.1366 -0.1844 -0.1225
 9614TIP3    H150333   2.615   1.589   4.909 -0.1283 -0.1398 -0.2103
 9614TIP3    H250334   2.514   1.479   4.933  0.0099 -0.2744 -0.2432
 9615TIP3   OH250335   3.862   2.256   3.083 -0.0610  0.1923 -0.3070
 9615TIP3    H150336   3.827   2.181   3.132  0.6602 -0.3543 -0.6058
 9615TIP3    H250337   3.792   2.281   3.024 -0.2925 -0.2838 -0.2416
 9616TIP3   OH250338   0.441   6.675  14.818  0.0319 -0.1382 -0.4389
 9616TIP3    H150339   0.535   6.685  14.810 -0.0823 -0.1385 -1.9982
 9616TIP3    H250340   0.405   6.729  14.748 -1.2177  1.2823  1.1980
 9617TIP3   OH250341   5.701   3.725  16.182  0.1471 -0.6018 -0.2571
 9617TIP3    H150342   5.613   3.720  16.219  0.9049  1.3000  2.1118
 9617TIP3    H250343   5.699   3.668  16.106 -2.8731 -1.2756  0.2114
 9618TIP3   OH250344   5.019   5.337  13.309 -0.2000  0.5824 -0.2255
 9618TIP3    H150345   5.076   5.319  13.234  0.7780  0.7151  0.4677
 9618TIP3    H250346   5.002   5.251  13.347 -0.2026  0.5746 -0.2439
 9619TIP3   OH250347   6.445   0.844   3.960  0.1117  1.5017  0.0192
 9619TIP3    H150348   6.387   0.878   3.891  0.7528 -0.1304 -1.4007
 9619TIP3    H250349   6.512   0.912   3.970 -0.5578  2.2129 -0.2456
 9620TIP3   OH250350   2.990   4.028   2.838 -0.6474  0.1441 -0.1373
 9620TIP3    H150351   2.964   4.094   2.902  0.5887  0.3080  0.2128
 9620TIP3    H250352   2.910   4.011   2.788 -0.8757  2.3305 -0.6185
 9621TIP3   OH250353   5.974   3.570   0.143  0.2636  0.1503 -0.2917
 9621TIP3    H150354   6.023   3.494   0.175  1.0335  0.3445 -0.9918
 9621TIP3    H250355   5.922   3.597   0.218  1.7840  0.3843  0.7362
 9622TIP3   OH250356   2.179   5.849  15.849 -0.3741 -0.2521  0.1943
 9622TIP3    H150357   2.202   5.793  15.775  1.1088 -1.7034  1.6734
 9622TIP3    H250358   2.088   5.827  15.869 -0.8577  0.3062 -1.2835
 9623TIP3   OH250359   3.990   4.355   3.409 -0.2332 -0.5089 -0.4091
 9623TIP3    H150360   4.002   4.442   3.448  0.1141 -0.9287  0.4578
 9623TIP3    H250361   3.897   4.351   3.387 -0.6275 -0.5329  1.1261
 9624TIP3   OH250362   6.347   5.034  11.404  0.3515 -0.6087  0.7661
 9624TIP3    H150363   6.372   4.954  11.359 -0.9731  0.5123 -2.1913
 9624TIP3    H250364   6.423   5.056  11.458  1.9962 -2.1668 -0.7904
 9625TIP3   OH250365   4.570   6.565  15.847 -0.8348  0.9711 -0.0263
 9625TIP3    H150366   4.636   6.517  15.898 -0.6712 -0.9196 -1.9030
 9625TIP3    H250367   4.620   6.610  15.779 -1.3916 -0.0889 -1.1676
 9626TIP3   OH250368   6.224   3.779   0.066  0.4319  0.2021 -0.1122
 9626TIP3    H150369   6.234   3.684   0.057 -0.0913 -0.0176  1.2694
 9626TIP3    H250370   6.178   3.806  -0.013 -1.4650 -1.0722  0.4769
 9627TIP3   OH250371   3.352   4.467  15.016  0.3903  0.5910 -0.1071
 9627TIP3    H150372   3.281   4.416  15.056 -0.8546  2.7577  0.5658
 9627TIP3    H250373   3.399   4.505  15.089  0.2525  1.7511 -0.5988
 9628TIP3   OH250374   2.098   0.221  14.789 -0.1646 -0.7183 -0.4406
 9628TIP3    H150375   2.133   0.151  14.734 -0.9594 -0.8454 -0.7967
 9628TIP3    H250376   2.118   0.302  14.741 -0.2393 -0.7796 -0.5751
 9629TIP3   OH250377   5.345   5.801  14.745  0.1490 -0.2792  0.0393
 9629TIP3    H150378   5.322   5.734  14.681 -0.8257 -0.4090  0.5003
 9629TIP3    H250379   5.438   5.787  14.762  0.8308  0.7013 -2.4237
 9630TIP3   OH250380   0.979   1.866  12.897  0.1310 -0.6039  0.1223
 9630TIP3    H150381   1.033   1.864  12.976  0.2984  0.3208  0.0386
 9630TIP3    H250382   0.946   1.955  12.893 -2.9178 -1.5448  1.1688
 9631TIP3   OH250383   1.990   0.524  10.394  0.1498 -0.9516 -0.0197
 9631TIP3    H150384   1.932   0.517  10.470  0.3342 -0.7874  0.1380
 9631TIP3    H250385   1.969   0.610  10.356  0.2629 -0.9089  0.0147
 9632TIP3   OH250386   2.103   2.388  17.240 -0.0715  0.2679 -0.1618
 9632TIP3    H150387   2.182   2.344  17.272 -0.8164 -2.4005 -1.6441
 9632TIP3    H250388   2.031   2.339  17.279 -1.0247  1.5826 -0.1981
 9633TIP3   OH250389   1.496   6.280  11.617 -0.1458 -0.6428  0.3603
 9633TIP3    H150390   1.572   6.263  11.562 -0.3498 -2.1459  0.4872
 9633TIP3    H250391   1.423   6.292  11.556 -0.1246 -0.9742  0.2673
 9634TIP3   OH250392   2.884   0.489  16.052  0.5773  0.1935 -0.2757
 9634TIP3    H150393   2.811   0.512  15.995  1.1443  2.1236 -0.2837
 9634TIP3    H250394   2.962   0.499  15.997  0.8764 -2.8011 -0.5650
 9635TIP3   OH250395   3.968   3.290  13.060 -0.2867 -0.0422  0.6081
 9635TIP3    H150396   4.042   3.346  13.035 -1.2624  1.0229 -0.0099
 9635TIP3    H250397   3.907   3.350  13.103 -1.1942 -0.7228  0.2897
 9636TIP3   OH250398   4.701   6.541   2.699  0.0008  0.3409 -0.0372
 9636TIP3    H150399   4.655   6.508   2.776 -0.0253 -0.4391 -0.3748
 9636TIP3    H250400   4.786   6.570   2.732 -0.3181  0.7622  0.4130
 9637TIP3   OH250401   1.030   6.260  13.362  0.5418  0.1144 -0.0565
 9637TIP3    H150402   1.106   6.206  13.341 -0.3838 -1.9220  1.5016
 9637TIP3    H250403   1.056   6.349  13.337  3.5722 -0.4251  0.7576
 9638TIP3   OH250404   2.930   2.219  13.424 -0.1527  0.1918 -0.1600
 9638TIP3    H150405   3.015   2.249  13.392 -0.0950 -0.9340 -1.1023
 9638TIP3    H250406   2.935   2.124  13.420 -1.5595  0.1149 -0.4644
 9639TIP3   OH250407   3.331   5.732  14.699 -0.1747  0.3951 -0.0333
 9639TIP3    H150408   3.321   5.729  14.604  0.5240  0.2597 -0.1101
 9639TIP3    H250409   3.284   5.810  14.726 -0.1327  0.5934 -0.5288
 9640TIP3   OH250410   3.335   5.578  16.090  0.6405 -0.5708 -0.0979
 9640TIP3    H150411   3.417   5.621  16.116  0.0977  0.2971  0.2379
 9640TIP3    H250412   3.322   5.605  15.999 -0.4606  1.2698  0.5495
 9641TIP3   OH250413   1.986   4.321   4.672  0.4218 -0.2039  0.2409
 9641TIP3    H150414   2.032   4.239   4.693  0.1014 -1.1901 -2.4299
 9641TIP3    H250415   1.912   4.293   4.617  0.9106  1.9205 -1.6337
 9642TIP3   OH250416   3.290   1.938   1.813 -0.4441 -0.4196 -0.0031
 9642TIP3    H150417   3.286   1.845   1.791 -0.9889  0.0227 -1.9773
 9642TIP3    H250418   3.203   1.972   1.793  0.6542  1.1500 -2.7418
 9643TIP3   OH250419   0.482   5.523   3.812 -0.1214 -0.4427  0.0177
 9643TIP3    H150420   0.493   5.451   3.750 -1.9587 -1.0790  0.3571
 9643TIP3    H250421   0.431   5.485   3.884  0.8057  0.6325  1.2962
 9644TIP3   OH250422   5.337   1.307  11.244 -0.1411 -0.3550 -0.1734
 9644TIP3    H150423   5.280   1.382  11.230 -2.0648 -1.9948 -1.8514
 9644TIP3    H250424   5.383   1.297  11.161  0.2723 -0.8832  0.1146
 9645TIP3   OH250425   4.470   3.479  15.822 -0.3959  0.2308  0.1369
 9645TIP3    H150426   4.385   3.456  15.784  0.9074 -0.4311 -2.7011
 9645TIP3    H250427   4.529   3.411  15.789  1.7336  2.2175 -0.3767
 9646TIP3   OH250428   2.302   4.002  15.637 -0.6780 -0.4417  0.1176
 9646TIP3    H150429   2.366   4.064  15.672 -3.1788  0.3461  3.8848
 9646TIP3    H250430   2.264   4.047  15.561  1.0142  0.4196 -0.2559
 9647TIP3   OH250431   3.114   0.616   4.081  1.0489 -0.0033  0.0114
 9647TIP3    H150432   3.123   0.689   4.142  0.1575 -0.7545  1.0780
 9647TIP3    H250433   3.190   0.560   4.098 -0.3199 -1.3517  2.0739
 9648TIP3   OH250434   5.055   0.618  16.769  0.0152  0.4068 -0.0334
 9648TIP3    H150435   4.985   0.564  16.805  0.1988  0.5228  0.5108
 9648TIP3    H250436   5.088   0.667  16.844  1.5141 -0.5641  0.0018
 9649TIP3   OH250437   2.379   4.354   2.490 -0.0971 -0.6049 -0.9696
 9649TIP3    H150438   2.453   4.309   2.530 -0.6337 -0.4970  0.1881
 9649TIP3    H250439   2.419   4.414   2.427  0.8260 -0.2531 -0.0737
 9650TIP3   OH250440   2.689   2.706   4.242  0.4196  0.0009 -0.0139
 9650TIP3    H150441   2.686   2.770   4.313 -1.1037  0.3040 -0.3044
 9650TIP3    H250442   2.655   2.754   4.166  0.0111 -0.9246 -0.4260
 9651TIP3   OH250443   6.190   0.016   4.818 -0.5195 -0.0727 -0.1892
 9651TIP3    H150444   6.282   0.041   4.816 -0.8222  1.1859  0.3370
 9651TIP3    H250445   6.174  -0.015   4.907 -0.1387 -2.3148 -0.8530
 9652TIP3   OH250446   5.433   4.650  16.226 -0.2627 -0.4049 -0.1748
 9652TIP3    H150447   5.390   4.659  16.311  1.0622  0.7354  0.4049
 9652TIP3    H250448   5.503   4.715  16.227 -0.7323  0.2125 -2.4705
 9653TIP3   OH250449   0.802   0.213  12.783  0.1986  0.5544 -0.3406
 9653TIP3    H150450   0.714   0.235  12.753 -0.1559 -1.3281 -0.8147
 9653TIP3    H250451   0.792   0.130  12.829  1.8669 -0.2777 -1.3722
 9654TIP3   OH250452   1.087   2.674  16.108 -0.2757 -0.0611  0.3585
 9654TIP3    H150453   1.051   2.670  16.197  1.7915 -1.1642  1.2254
 9654TIP3    H250454   1.020   2.631  16.054 -1.1156 -0.3281  1.5452
 9655TIP3   OH250455   2.808   2.561  13.507  0.1806 -0.2961 -0.2696
 9655TIP3    H150456   2.901   2.586  13.505  0.3008 -0.7249 -0.2057
 9655TIP3    H250457   2.806   2.485  13.565 -0.5452  1.0784  1.6087
 9656TIP3   OH250458   0.497   4.849   2.948  0.4414 -0.1534 -0.1667
 9656TIP3    H150459   0.503   4.775   2.887 -0.1974  1.1315 -1.8626
 9656TIP3    H250460   0.433   4.908   2.909  0.8471  1.2624  1.1927
 9657TIP3   OH250461   6.637   2.830   2.849 -0.0827  0.1430 -0.3324
 9657TIP3    H150462   6.578   2.884   2.903  1.1487  1.5823 -0.3475
 9657TIP3    H250463   6.704   2.891   2.820  1.9980 -1.6261  0.4960
 9658TIP3   OH250464   6.239   6.245  12.670 -0.2646  1.0838  0.4191
 9658TIP3    H150465   6.190   6.319  12.707 -0.4697  1.9694 -1.4975
 9658TIP3    H250466   6.322   6.245  12.718 -0.6757  1.8892  1.1667
 9659TIP3   OH250467   3.757   3.098   3.759  0.8516 -0.0781  0.9171
 9659TIP3    H150468   3.743   3.016   3.712 -1.4038  0.2580  0.9101
 9659TIP3    H250469   3.844   3.126   3.732  0.9186 -1.5201 -0.5265
 9660TIP3   OH250470   0.221   3.676   0.543  0.2725 -0.3427 -0.3059
 9660TIP3    H150471   0.269   3.611   0.594 -0.6488 -1.2570 -0.5719
 9660TIP3    H250472   0.205   3.748   0.604 -0.3029 -1.1649  0.5434
 9661TIP3   OH250473   1.121   4.156   2.287  0.3244 -0.6984  0.1761
 9661TIP3    H150474   1.044   4.111   2.322 -1.4192  1.0952 -1.1628
 9661TIP3    H250475   1.157   4.095   2.222 -0.2336 -1.3607  0.4787
 9662TIP3   OH250476   3.874   6.023  14.694 -0.2207 -0.1391 -0.4944
 9662TIP3    H150477   3.813   6.035  14.767  0.4562 -0.9143  0.2189
 9662TIP3    H250478   3.850   5.938  14.657 -2.5324  1.4840 -3.1314
 9663TIP3   OH250479   1.117   6.579   2.232 -0.4885  0.5459  0.1046
 9663TIP3    H150480   1.144   6.493   2.265 -0.8524  0.0497 -0.8256
 9663TIP3    H250481   1.190   6.608   2.178 -0.0680  1.1595  0.9919
 9664TIP3   OH250482   3.473   4.192   4.978 -0.5125 -0.5793 -0.1747
 9664TIP3    H150483   3.564   4.215   4.998 -0.3849  0.1768 -1.5493
 9664TIP3    H250484   3.468   4.098   4.995  0.5474 -0.6436 -0.1628
 9665TIP3   OH250485   6.255   6.474  14.023 -0.4559  0.1567  0.4710
 9665TIP3    H150486   6.285   6.462  13.933 -2.2827  0.5389 -0.2315
 9665TIP3    H250487   6.280   6.564  14.044 -0.0987  0.0973  0.3049
 9666TIP3   OH250488   3.628   3.771   5.970  0.1222 -0.2689 -0.2540
 9666TIP3    H150489   3.631   3.864   5.990 -3.2542 -0.1739  0.4941
 9666TIP3    H250490   3.666   3.728   6.046 -2.0941  0.4635  1.3629
 9667TIP3   OH250491   6.638   4.902   5.542 -0.4388  0.1144 -0.4372
 9667TIP3    H150492   6.643   4.855   5.458 -1.8465 -0.3315 -0.3027
 9667TIP3    H250493   6.598   4.986   5.520 -1.1033 -0.1283 -0.1790
 9668TIP3   OH250494   1.138   5.458   0.226  0.3834  0.4463  0.5595
 9668TIP3    H150495   1.071   5.389   0.227  1.7718 -0.9672  0.0762
 9668TIP3    H250496   1.090   5.538   0.246 -1.9197 -0.0968 -2.1550
 9669TIP3   OH250497   3.034   6.717  11.308 -0.2789 -0.2150 -0.8129
 9669TIP3    H150498   3.123   6.681  11.305 -0.1444 -0.6701  2.9015
 9669TIP3    H250499   2.977   6.640  11.302 -0.2847 -0.2413 -0.4672
 9670TIP3   OH250500   6.185   2.273   5.572 -0.1086  0.6278  0.2505
 9670TIP3    H150501   6.098   2.302   5.599 -0.1753  1.4669 -0.7952
 9670TIP3    H250502   6.239   2.352   5.576  1.1840 -0.2751  2.9550
 9671TIP3   OH250503   2.378   3.045  13.271  0.5358 -0.0184  0.8108
 9671TIP3    H150504   2.452   3.099  13.245  0.1957  1.0496  1.9257
 9671TIP3    H250505   2.309   3.067  13.208  1.2819 -1.4178 -0.5619
 9672TIP3   OH250506   5.604   0.129  12.873 -0.3137 -0.2914  0.2189
 9672TIP3    H150507   5.568   0.212  12.905  0.7283  0.0112  0.6637
 9672TIP3    H250508   5.694   0.150  12.848 -0.1136 -1.2396  0.1042
 9673TIP3   OH250509   3.729   0.192  14.785  0.2776 -0.1763 -0.3720
 9673TIP3    H150510   3.746   0.114  14.731  2.3951 -2.0080  2.5970
 9673TIP3    H250511   3.652   0.169  14.836 -0.2774  0.5573 -0.8580
 9674TIP3   OH250512   6.281   3.122   3.475  0.1588  0.1791 -0.3172
 9674TIP3    H150513   6.244   3.136   3.562  0.0860  0.8309 -0.4483
 9674TIP3    H250514   6.366   3.166   3.478 -1.0249  2.7103 -1.4435
 9675TIP3   OH250515   0.270   1.609   4.457 -0.0483  0.4222 -0.3376
 9675TIP3    H150516   0.203   1.677   4.456  0.2403  0.7418  0.7185
 9675TIP3    H250517   0.254   1.559   4.377 -1.5605  0.4705 -0.0997
 9676TIP3   OH250518   4.502   0.418   3.553 -0.8490  0.0897  0.5167
 9676TIP3    H150519   4.597   0.424   3.538 -1.2065  2.3383 -1.5686
 9676TIP3    H250520   4.473   0.509   3.556 -3.0914 -0.5458 -0.0061
 9677TIP3   OH250521   0.310   6.538   6.132  0.4102 -0.3769  0.3807
 9677TIP3    H150522   0.401   6.566   6.132  0.2132  0.2881  0.0576
 9677TIP3    H250523   0.286   6.534   6.224  0.6664 -0.2197  0.4547
 9678TIP3   OH250524   6.802   4.654  16.007 -0.0727 -0.1054 -0.2376
 9678TIP3    H150525   6.815   4.594  16.080 -0.2500  0.5695  0.3582
 9678TIP3    H250526   6.887   4.697  15.997  0.8349 -2.1667 -2.2716
 9679TIP3   OH250527   4.901   2.647   5.528  0.0097  0.0861 -0.0850
 9679TIP3    H150528   4.929   2.555   5.527 -0.6975 -0.1529  0.8048
 9679TIP3    H250529   4.811   2.645   5.496  0.0018  0.4813 -0.0923
 9680TIP3   OH250530   0.853   5.927   3.666  0.1548  0.0934 -0.0419
 9680TIP3    H150531   0.866   5.839   3.699  0.1849 -0.2927 -1.0451
 9680TIP3    H250532   0.777   5.920   3.608  1.2002  0.3295 -1.5102
 9681TIP3   OH250533   2.677   5.398   2.884 -0.4620 -0.0496 -0.4491
 9681TIP3    H150534   2.707   5.307   2.896  0.5718  0.0207 -2.0931
 9681TIP3    H250535   2.712   5.423   2.798  1.1691  2.6427  0.8740
 9682TIP3   OH250536   2.900   0.978   5.852  0.4905  0.4799  0.0876
 9682TIP3    H150537   2.854   0.985   5.768 -0.7423  0.2421  0.7356
 9682TIP3    H250538   2.975   1.038   5.842  1.9644 -1.5448 -2.1700
 9683TIP3   OH250539   3.566   2.263  13.989  0.0654  0.4975  0.1766
 9683TIP3    H150540   3.570   2.358  14.003 -0.8022  0.2403  2.8044
 9683TIP3    H250541   3.591   2.226  14.074 -0.4143 -1.6228 -0.5467
 9684TIP3   OH250542   4.308   0.775   5.517  0.3291 -0.2389  0.2439
 9684TIP3    H150543   4.278   0.691   5.552 -0.5992 -0.5026 -1.1201
 9684TIP3    H250544   4.303   0.834   5.592 -0.6789 -1.0096  0.8204
 9685TIP3   OH250545   1.349   0.808  16.213 -0.3792 -0.0305 -0.5353
 9685TIP3    H150546   1.314   0.809  16.125 -1.8496 -0.2101  0.0227
 9685TIP3    H250547   1.345   0.900  16.241 -1.2906 -0.1744 -0.1542
 9686TIP3   OH250548   4.158   2.748  14.492  0.2710  0.0786  0.0673
 9686TIP3    H150549   4.206   2.782  14.417 -0.9977 -0.4563 -1.0228
 9686TIP3    H250550   4.118   2.667  14.460 -0.0315 -0.3275  1.4185
 9687TIP3   OH250551   3.467   5.156  14.657  0.4119  0.3571  0.5836
 9687TIP3    H150552   3.425   5.089  14.710  1.5407  0.6004  1.8559
 9687TIP3    H250553   3.422   5.153  14.573  2.3180 -4.0664 -0.5399
 9688TIP3   OH250554   2.882   0.114   5.289  0.7975 -0.1290 -0.1127
 9688TIP3    H150555   2.946   0.178   5.320 -1.8191  4.5626 -3.0984
 9688TIP3    H250556   2.918   0.082   5.207 -0.2490  2.2373 -1.6087
 9689TIP3   OH250557   5.653   4.400   1.430 -0.2298  0.2700  0.0325
 9689TIP3    H150558   5.703   4.427   1.353 -0.6127  1.4217  0.1756
 9689TIP3    H250559   5.709   4.425   1.504 -0.2091 -0.1262  0.1531
 9690TIP3   OH250560   3.420   0.231  16.745 -0.4944 -0.0682  0.1882
 9690TIP3    H150561   3.376   0.164  16.797 -1.5926  0.8690  0.5273
 9690TIP3    H250562   3.406   0.312  16.794  2.1988  0.2066  0.6424
 9691TIP3   OH250563   2.968   4.524  17.236 -0.0119 -0.5861  0.1339
 9691TIP3    H150564   2.924   4.445  17.267  1.9030 -0.8319  2.5367
 9691TIP3    H250565   3.058   4.496  17.219  0.8918  1.1284  1.7069
 9692TIP3   OH250566   5.105   5.884   2.209  0.0523 -0.1658 -0.6769
 9692TIP3    H150567   5.091   5.792   2.229 -0.8432  0.1091 -0.0001
 9692TIP3    H250568   5.182   5.885   2.152  1.0494 -1.1874  0.6236
 9693TIP3   OH250569   1.721   4.314  15.125  0.3561  0.1846 -0.2188
 9693TIP3    H150570   1.701   4.374  15.053  1.3378  0.4202 -0.3056
 9693TIP3    H250571   1.767   4.241  15.083 -0.6292 -0.5402 -0.0791
 9694TIP3   OH250572   3.811   2.456   3.323 -0.0505 -0.2154  0.3342
 9694TIP3    H150573   3.879   2.399   3.287 -0.6691 -1.6648  1.3623
 9694TIP3    H250574   3.743   2.459   3.255  0.6262  0.5131 -0.3254
 9695TIP3   OH250575   3.122   3.551  14.919  0.2073 -0.4150  1.1132
 9695TIP3    H150576   3.080   3.633  14.893 -0.8117 -0.9811  0.9103
 9695TIP3    H250577   3.098   3.489  14.850  0.5822 -0.9936  1.4936
 9696TIP3   OH250578   4.683   6.349  13.039  0.2051  0.3414 -0.2585
 9696TIP3    H150579   4.658   6.360  12.947 -0.3544  0.1881 -0.1299
 9696TIP3    H250580   4.600   6.336  13.085  0.5297 -0.2930  0.1675
 9697TIP3   OH250581   2.806   3.236  13.672  0.3975  0.0633 -0.3576
 9697TIP3    H150582   2.770   3.150  13.651  1.6939 -0.4049 -0.7802
 9697TIP3    H250583   2.856   3.221  13.753 -0.8452  0.8412  0.5879
 9698TIP3   OH250584   4.813   3.508   1.428  0.2446 -0.5667  0.6338
 9698TIP3    H150585   4.785   3.432   1.376  0.3125 -0.9660  1.1689
 9698TIP3    H250586   4.906   3.517   1.409 -0.0785  0.3339 -0.6115
 9699TIP3   OH250587   3.122   3.990   5.219  0.1161  0.5002 -0.1000
 9699TIP3    H150588   3.148   3.900   5.203 -1.4260 -0.0450  0.2604
 9699TIP3    H250589   3.167   4.014   5.300 -1.0194 -0.6739  0.9384
 9700TIP3   OH250590   1.822   2.285   0.673  0.5441 -0.4915  0.2355
 9700TIP3    H150591   1.738   2.302   0.716 -0.6901 -0.5894 -1.9580
 9700TIP3    H250592   1.876   2.245   0.740 -0.2308  1.9475  2.4832
 9701TIP3   OH250593   1.076   0.468   1.752 -0.0765 -0.1627  0.1896
 9701TIP3    H150594   1.165   0.482   1.783  0.1588  0.6008 -0.7622
 9701TIP3    H250595   1.048   0.554   1.721 -1.9515  0.1205  2.4347
 9702TIP3   OH250596   1.913   3.169   3.267  0.1488 -0.1415  0.3563
 9702TIP3    H150597   1.833   3.213   3.238 -0.6926 -1.5886  0.3905
 9702TIP3    H250598   1.883   3.104   3.331  1.7097  1.6941  3.2251
 9703TIP3   OH250599   6.485   1.542  11.068 -0.1065  0.1260 -0.0861
 9703TIP3    H150600   6.472   1.527  10.974  0.3491  0.3930 -0.1924
 9703TIP3    H250601   6.402   1.514  11.108 -0.3038  0.0130 -0.5665
 9704TIP3   OH250602   2.455   6.535   2.542 -0.2772 -0.2330 -0.3179
 9704TIP3    H150603   2.499   6.609   2.584  2.8295 -1.2538 -1.5104
 9704TIP3    H250604   2.471   6.462   2.601  1.2800 -0.9791 -1.5774
 9705TIP3   OH250605   4.531   0.333  16.707 -0.0623  0.0943 -0.0887
 9705TIP3    H150606   4.498   0.250  16.673  0.5946  0.4757 -1.7770
 9705TIP3    H250607   4.511   0.396  16.638 -3.0876  2.0141  2.2604
 9706TIP3   OH250608   2.321   3.165   2.030  0.1873 -0.0191 -0.3669
 9706TIP3    H150609   2.243   3.136   2.078  1.0663  1.1266  1.8733
 9706TIP3    H250610   2.387   3.098   2.049 -0.1342 -0.8686 -2.0750
 9707TIP3   OH250611   2.107   0.246  13.247  0.5987  0.7152 -0.8790
 9707TIP3    H150612   2.190   0.208  13.217  0.1569  1.0008 -2.5656
 9707TIP3    H250613   2.133   0.313  13.310  1.5243 -0.5928  0.1788
 9708TIP3   OH250614   6.077   2.837  16.698 -0.4102  0.4241 -0.1803
 9708TIP3    H150615   6.143   2.774  16.670  0.1148 -0.1979  2.2794
 9708TIP3    H250616   6.120   2.891  16.763 -1.9757  0.8047  0.5868
 9709TIP3   OH250617   0.970   0.874  12.767  0.0212 -0.0583 -0.1907
 9709TIP3    H150618   0.959   0.871  12.672 -0.0691 -0.4516 -0.1689
 9709TIP3    H250619   0.901   0.934  12.797 -0.2292 -0.2720 -0.3321
 9710TIP3   OH250620   1.734   6.633   5.601 -0.3320  0.2033 -0.2094
 9710TIP3    H150621   1.800   6.574   5.637  0.9012  1.3697 -0.4658
 9710TIP3    H250622   1.742   6.713   5.654 -0.8947  0.6912 -0.8397
 9711TIP3   OH250623   2.088   4.233   2.728  0.4952  0.1874  0.0026
 9711TIP3    H150624   2.086   4.242   2.632  0.2568 -0.1976 -0.0283
 9711TIP3    H250625   2.021   4.168   2.747  2.1868 -1.6055  0.2140
 9712TIP3   OH250626   6.170   4.390   2.112  1.1081  0.5967  0.2496
 9712TIP3    H150627   6.226   4.406   2.188  1.5720  0.2205 -0.0124
 9712TIP3    H250628   6.177   4.471   2.061  0.4396  1.0299  0.8216
 9713TIP3   OH250629   6.748   6.596   1.695  0.0705 -0.0373  0.2408
 9713TIP3    H150630   6.673   6.583   1.636 -0.5739  1.4280  0.6889
 9713TIP3    H250631   6.819   6.625   1.637  0.2940 -1.3942 -0.1804
 9714TIP3   OH250632   1.647   3.930   2.835 -0.6083  0.3222 -0.0643
 9714TIP3    H150633   1.741   3.946   2.843 -0.3363 -1.2629  0.2496
 9714TIP3    H250634   1.633   3.849   2.883 -2.3137  1.0203  0.6831
 9715TIP3   OH250635   3.149   3.233   2.704 -0.3803  0.0489  0.3431
 9715TIP3    H150636   3.106   3.272   2.628 -1.5291 -0.8419  0.5092
 9715TIP3    H250637   3.078   3.215   2.766  0.6476  1.7917  2.1459
 9716TIP3   OH250638   3.535   3.031   1.192 -0.7691 -0.3201  0.3315
 9716TIP3    H150639   3.601   3.005   1.128 -1.6765 -2.4063  0.1500
 9716TIP3    H250640   3.478   3.092   1.145 -0.5518 -0.6620 -0.3783
 9717TIP3   OH250641   5.327   4.650   6.160 -0.1130 -0.1370 -0.0610
 9717TIP3    H150642   5.268   4.617   6.227  0.2828 -1.1135 -0.1757
 9717TIP3    H250643   5.280   4.634   6.078  0.1027 -0.4796 -0.1205
 9718TIP3   OH250644   5.147   2.370  13.559  0.1989  0.0616  0.5340
 9718TIP3    H150645   5.160   2.291  13.507  4.1340  0.0596  1.2576
 9718TIP3    H250646   5.157   2.442  13.496  0.4056  0.0228  0.5238
 9719TIP3   OH250647   6.709   0.099   1.972 -0.2987 -0.5056 -0.1962
 9719TIP3    H150648   6.727   0.013   2.010 -1.1431 -1.0605 -1.0115
 9719TIP3    H250649   6.632   0.130   2.019  0.1252 -0.1017  0.2349
 9720TIP3   OH250650   1.931   6.415  16.795  0.6786 -0.2239  0.1636
 9720TIP3    H150651   2.016   6.451  16.821 -0.2056  1.5786  0.7559
 9720TIP3    H250652   1.928   6.329  16.836  2.2738 -0.4061 -0.0195
 9721TIP3   OH250653   1.337   6.501  15.072 -0.1166  0.3229  0.2177
 9721TIP3    H150654   1.244   6.489  15.089  0.0960  0.3448  1.4918
 9721TIP3    H250655   1.370   6.549  15.148  0.9414  0.2856 -0.1944
 9722TIP3   OH250656   1.575   0.296   0.020  0.1122  0.1024  0.1658
 9722TIP3    H150657   1.633   0.232  -0.024 -0.4493 -0.6490  0.4979
 9722TIP3    H250658   1.541   0.249   0.096  0.9424  1.3357  1.3389
 9723TIP3   OH250659   3.701   5.941   5.114 -0.6087  0.5625 -0.2405
 9723TIP3    H150660   3.760   6.005   5.154  1.5554 -1.3954 -0.1358
 9723TIP3    H250661   3.746   5.913   5.034 -1.8229 -0.3694 -0.6399
 9724TIP3   OH250662   1.893   4.530  12.267 -0.1270 -0.0531 -0.2422
 9724TIP3    H150663   1.909   4.441  12.235 -1.2035  0.3425 -1.9937
 9724TIP3    H250664   1.924   4.587  12.196  1.1458  1.0405  1.1115
 9725TIP3   OH250665   0.662   5.551   2.091  0.7420  0.4569 -0.2545
 9725TIP3    H150666   0.569   5.552   2.115 -0.0664 -0.6413 -2.9712
 9725TIP3    H250667   0.703   5.614   2.151 -1.8855  1.6298  0.4520
 9726TIP3   OH250668   3.893   5.448  12.703  0.4670  0.4258  0.1607
 9726TIP3    H150669   3.925   5.359  12.686 -1.8031 -0.4118 -0.0837
 9726TIP3    H250670   3.843   5.471  12.625  0.6504  1.7438  0.4093
 9727TIP3   OH250671   3.412   6.525   2.854 -0.0554 -0.2804 -0.1044
 9727TIP3    H150672   3.373   6.495   2.771 -0.0676  0.7344 -0.4803
 9727TIP3    H250673   3.392   6.618   2.857 -2.1460 -0.7255  2.2132
 9728TIP3   OH250674   2.763   2.368  11.126  0.5777 -0.4144 -0.7697
 9728TIP3    H150675   2.820   2.351  11.051  1.3746 -1.7180  0.0889
 9728TIP3    H250676   2.692   2.304  11.118 -0.2194  0.5026 -1.2570
 9729TIP3   OH250677   0.397   1.597  13.646 -0.3049  0.4700 -0.1932
 9729TIP3    H150678   0.384   1.595  13.551 -1.6569  0.3402 -0.0306
 9729TIP3    H250679   0.341   1.669  13.676 -0.4546  0.0385  0.5850
 9730TIP3   OH250680   2.396   2.229   1.855  0.2935 -0.6969  0.2862
 9730TIP3    H150681   2.352   2.231   1.770  0.5406 -1.4821  0.1288
 9730TIP3    H250682   2.488   2.216   1.834  0.1173 -3.0186  0.7083
 9731TIP3   OH250683   1.321   2.346   4.256 -0.1466  0.3544 -0.4064
 9731TIP3    H150684   1.378   2.347   4.179  0.7969  1.2489  0.2762
 9731TIP3    H250685   1.349   2.270   4.307 -0.1137  0.3305 -0.4608
 9732TIP3   OH250686   4.360   4.869  12.052 -0.0743  0.5435 -0.3430
 9732TIP3    H150687   4.280   4.918  12.032 -2.3038 -2.2851  1.0301
 9732TIP3    H250688   4.429   4.936  12.051 -2.3924  3.1397 -1.5374
 9733TIP3   OH250689   3.508   2.001  12.278  0.7182 -0.0877 -0.4817
 9733TIP3    H150690   3.518   2.032  12.368 -0.8827  2.8128 -1.1836
 9733TIP3    H250691   3.422   1.959  12.276  1.7631 -2.3994 -0.1792
 9734TIP3   OH250692   6.365   3.685  14.562  0.7835  0.1928 -0.4168
 9734TIP3    H150693   6.390   3.681  14.470  1.8904 -0.4500 -0.1086
 9734TIP3    H250694   6.321   3.602  14.579  1.0354  0.0923 -0.2451
 9735TIP3   OH250695   4.902   2.402   4.447  0.3589 -0.1324 -0.2746
 9735TIP3    H150696   4.865   2.340   4.509  2.5040  1.0181  2.3627
 9735TIP3    H250697   4.860   2.381   4.364 -2.2048 -2.1828  1.3949
 9736TIP3   OH250698   5.863   1.804  16.219  0.4659  0.3999 -0.3813
 9736TIP3    H150699   5.826   1.828  16.304  1.4603 -1.8246  0.7746
 9736TIP3    H250700   5.957   1.819  16.228  0.6121 -0.1011 -0.9657
 9737TIP3   OH250701   0.248   5.201   1.351 -0.1353  0.4305  0.3331
 9737TIP3    H150702   0.231   5.154   1.432 -0.2009  0.7821  0.5260
 9737TIP3    H250703   0.198   5.282   1.359  0.5529  0.8706  0.3241
 9738TIP3   OH250704   0.663   5.680   0.403 -0.1511 -0.2254 -0.1780
 9738TIP3    H150705   0.606   5.733   0.347 -1.8297  0.3156  1.9153
 9738TIP3    H250706   0.623   5.594   0.404 -0.6763  0.0192  0.8956
 9739TIP3   OH250707   4.601   3.951   4.659  0.0331 -0.5094  0.1369
 9739TIP3    H150708   4.586   3.902   4.740 -0.8248 -0.0693  0.2558
 9739TIP3    H250709   4.655   3.893   4.606  1.4606 -0.3996  1.4043
 9740TIP3   OH250710   4.919   4.984   2.574  0.1388 -0.2429  0.6607
 9740TIP3    H150711   4.998   4.937   2.545 -0.2418 -0.8211  0.5464
 9740TIP3    H250712   4.936   5.006   2.665 -0.1233 -1.5713  1.0417
 9741TIP3   OH250713   6.210   5.910   3.868  0.1419 -0.4810  0.2584
 9741TIP3    H150714   6.171   5.837   3.821 -1.2789  0.9029 -0.8205
 9741TIP3    H250715   6.201   5.985   3.809  0.5436  0.8086  1.7405
 9742TIP3   OH250716   3.120   3.873  14.050 -0.5087 -0.1192 -0.2201
 9742TIP3    H150717   3.075   3.815  14.111 -0.2815  0.0402  0.0988
 9742TIP3    H250718   3.077   3.958  14.060 -0.4996 -0.1032 -0.3112
 9743TIP3   OH250719   0.671   5.603  17.141  0.2359 -0.4131  0.0821
 9743TIP3    H150720   0.756   5.568  17.112  0.7752  1.2700 -0.4935
 9743TIP3    H250721   0.637   5.649  17.065 -1.0476 -0.7510  0.4343
 9744TIP3   OH250722   0.521   0.581  12.021  0.7173 -0.1528  0.2078
 9744TIP3    H150723   0.610   0.553  12.002  0.7396  0.3297 -0.4429
 9744TIP3    H250724   0.531   0.667  12.062  0.5230  0.2094 -0.5008
 9745TIP3   OH250725   4.874   6.326   4.499  0.4555  0.3397  1.2448
 9745TIP3    H150726   4.865   6.248   4.553  0.4396  1.1164  2.4032
 9745TIP3    H250727   4.952   6.370   4.533  1.3284  0.0966 -0.3704
 9746TIP3   OH250728   4.678   0.495  15.601  0.3486  0.0167  0.3387
 9746TIP3    H150729   4.768   0.493  15.634  0.5606  3.9340  0.4469
 9746TIP3    H250730   4.624   0.510  15.678 -0.4312 -1.9978  0.2306
 9747TIP3   OH250731   0.282   4.901  13.026  0.0337 -0.6882 -0.0114
 9747TIP3    H150732   0.293   4.819  12.977 -3.6883 -1.7083  0.5697
 9747TIP3    H250733   0.241   4.961  12.963  1.6306  0.3903 -0.0747
 9748TIP3   OH250734   2.015   4.537  13.860 -0.3499 -0.3972  0.3074
 9748TIP3    H150735   2.053   4.583  13.935  0.8428 -2.2993  0.9295
 9748TIP3    H250736   1.967   4.464  13.898 -1.3519 -0.3074 -0.7123
 9749TIP3   OH250737   0.148   4.819   1.117 -0.5339 -0.1679 -0.0855
 9749TIP3    H150738   0.082   4.822   1.186  0.8324 -1.5428  1.3555
 9749TIP3    H250739   0.219   4.874   1.150 -0.1510 -0.2652 -0.7290
 9750TIP3   OH250740   3.168   5.640  13.725  0.2224 -0.3647  0.6761
 9750TIP3    H150741   3.237   5.584  13.760  1.2282  0.5433  0.2340
 9750TIP3    H250742   3.154   5.608  13.636 -0.3877 -0.9407  0.9690
 9751TIP3   OH250743   4.682   1.637  13.908 -0.8156 -0.4810  0.5310
 9751TIP3    H150744   4.747   1.567  13.913 -1.3924 -0.9928  1.0170
 9751TIP3    H250745   4.609   1.599  13.859 -0.4987  0.3003 -0.5867
 9752TIP3   OH250746   4.578   6.216   3.043  0.8769 -0.3383  0.3721
 9752TIP3    H150747   4.566   6.165   3.123  2.2309  0.3525  1.0454
 9752TIP3    H250748   4.577   6.151   2.972  1.8060 -1.2173  1.1419
 9753TIP3   OH250749   5.703   1.554  13.058  0.5734  0.0946 -0.8498
 9753TIP3    H150750   5.770   1.588  12.999 -0.5445 -0.1662 -2.3236
 9753TIP3    H250751   5.689   1.464  13.029 -1.8375  0.7330 -1.9560
 9754TIP3   OH250752   2.559   3.907  15.331 -0.0945 -0.0436  0.6714
 9754TIP3    H150753   2.518   3.869  15.409 -0.7847  0.2832  0.4770
 9754TIP3    H250754   2.595   3.832  15.285  0.3457 -0.2400  1.3146
 9755TIP3   OH250755   2.811   4.503   1.176 -0.0789  0.4901  0.1536
 9755TIP3    H150756   2.873   4.433   1.153  0.2405  1.2625 -1.5323
 9755TIP3    H250757   2.862   4.562   1.232  0.2411  0.3398  0.0270
 9756TIP3   OH250758   3.268   0.784   5.094 -0.3755 -0.4446 -0.3199
 9756TIP3    H150759   3.236   0.873   5.104 -1.3528 -0.8855  0.6340
 9756TIP3    H250760   3.197   0.728   5.125  0.4764 -1.5436 -0.2494
 9757TIP3   OH250761   6.086   2.716   4.931  0.6697 -0.6869 -0.2161
 9757TIP3    H150762   6.041   2.792   4.968  0.0534  0.1724 -2.5626
 9757TIP3    H250763   6.053   2.642   4.982 -0.1157  0.4076  0.9239
 9758TIP3   OH250764   1.756   0.807   4.890 -0.0293 -0.6320  0.3209
 9758TIP3    H150765   1.711   0.818   4.806 -0.3691 -0.1525  0.5594
 9758TIP3    H250766   1.773   0.897   4.919 -2.7089 -0.6401  2.2554
 9759TIP3   OH250767   5.249   4.886  12.680  0.0854 -0.3031  0.2064
 9759TIP3    H150768   5.342   4.907  12.679 -0.4474  2.5344  0.7536
 9759TIP3    H250769   5.227   4.880  12.773 -0.4282  0.0267  0.1160
 9760TIP3   OH250770   5.761   6.720   5.045  0.2880 -0.3776 -0.0846
 9760TIP3    H150771   5.681   6.706   5.095  0.5746  0.8094  0.7705
 9760TIP3    H250772   5.829   6.735   5.111  0.7555  0.8659 -0.7930
 9761TIP3   OH250773   0.370   6.433   2.477  0.1097  0.0877 -0.6700
 9761TIP3    H150774   0.446   6.484   2.504  0.6474 -1.0116 -0.0455
 9761TIP3    H250775   0.407   6.356   2.433 -0.3532 -2.6230  3.2352
 9762TIP3   OH250776   6.283   5.924   2.784  0.7595  0.0385  0.3796
 9762TIP3    H150777   6.312   5.833   2.789  0.6905 -0.1476 -1.7238
 9762TIP3    H250778   6.363   5.975   2.799  1.8301 -0.4576 -2.8878
 9763TIP3   OH250779   5.673   4.205   1.044  0.0520 -0.2971 -0.1344
 9763TIP3    H150780   5.635   4.197   0.957  1.2685  2.4166 -1.0062
 9763TIP3    H250781   5.767   4.193   1.031  0.0600 -2.6429  1.3292
 9764TIP3   OH250782   3.038   2.631  11.552  0.6443  0.0981 -0.6130
 9764TIP3    H150783   3.016   2.688  11.479  0.4624 -1.2835 -1.6792
 9764TIP3    H250784   2.971   2.562  11.550  0.1741  0.4481  1.3509
 9765TIP3   OH250785   2.283   5.924   3.621 -0.3443  0.4395  0.0197
 9765TIP3    H150786   2.194   5.955   3.639 -0.6667 -0.5338  0.1227
 9765TIP3    H250787   2.319   5.903   3.708 -0.3774 -0.1300 -0.1006
 9766TIP3   OH250788   5.591   3.178  13.958 -0.1056  0.3343  0.5686
 9766TIP3    H150789   5.538   3.174  13.878 -0.5111  1.9940  0.7202
 9766TIP3    H250790   5.533   3.220  14.022  0.7670  0.4713  1.2785
 9767TIP3   OH250791   2.432   5.822  14.651 -0.0251 -0.0553 -0.1229
 9767TIP3    H150792   2.501   5.784  14.705 -0.2936 -1.5446 -0.7574
 9767TIP3    H250793   2.351   5.786  14.687 -0.2870 -0.1263 -0.7630
 9768TIP3   OH250794   6.697   5.498  15.022 -0.4532  0.5784  0.0766
 9768TIP3    H150795   6.779   5.477  15.068 -0.0890  0.9338 -0.3947
 9768TIP3    H250796   6.628   5.471  15.082  0.0150  0.6053  0.6349
 9769TIP3   OH250797   5.581   4.865  15.775 -0.0008  0.1306  0.1544
 9769TIP3    H150798   5.544   4.937  15.825 -1.1500 -0.9570  0.9129
 9769TIP3    H250799   5.529   4.788  15.799  0.8740 -0.8770 -0.9886
 9770TIP3   OH250800   6.293   6.332   2.860  1.0363  0.0244  0.0736
 9770TIP3    H150801   6.376   6.298   2.827  1.1275  1.2841 -1.0868
 9770TIP3    H250802   6.231   6.316   2.789 -0.0779 -2.1036  1.4375
 9771TIP3   OH250803   5.119   6.690  12.910 -0.1038 -0.0536 -0.4574
 9771TIP3    H150804   5.200   6.691  12.859  0.1050 -1.3571 -0.1805
 9771TIP3    H250805   5.057   6.642  12.855 -0.7391  1.0219 -0.7115
 9772TIP3   OH250806   3.448   3.809  16.800  0.1230 -0.2783  0.3603
 9772TIP3    H150807   3.484   3.726  16.767 -1.7425 -0.4419 -1.4503
 9772TIP3    H250808   3.370   3.783  16.849 -1.8009  0.4592 -2.1503
 9773TIP3   OH250809   3.412   4.211  13.621 -0.0001  0.9083  0.4424
 9773TIP3    H150810   3.360   4.264  13.682 -2.1939  0.0995 -0.6109
 9773TIP3    H250811   3.384   4.121  13.637  0.6324  0.5103 -0.5732
 9774TIP3   OH250812   4.628   6.254   1.804  0.0681  0.2399  0.2504
 9774TIP3    H150813   4.625   6.173   1.854  0.0020  0.1750  0.1425
 9774TIP3    H250814   4.537   6.269   1.778  0.3605 -0.7414 -1.4670
 9775TIP3   OH250815   0.386   6.436   4.208 -0.8302 -0.3841 -0.8883
 9775TIP3    H150816   0.308   6.463   4.257 -0.0116 -1.5741  1.1850
 9775TIP3    H250817   0.351   6.398   4.127 -2.2144  1.7366 -1.3684
 9776TIP3   OH250818   1.229   1.723  14.133  0.4266 -0.1810 -0.4509
 9776TIP3    H150819   1.228   1.815  14.106 -1.8529 -0.1645 -0.5541
 9776TIP3    H250820   1.199   1.725  14.224 -0.9647 -0.8809 -0.8665
 9777TIP3   OH250821   3.038   2.190  14.129 -0.2226 -0.0329 -0.2718
 9777TIP3    H150822   3.099   2.228  14.066  1.1716  2.5931  2.3900
 9777TIP3    H250823   2.968   2.254  14.137 -0.1349 -0.0647  1.0854
 9778TIP3   OH250824   6.257   5.875  11.054  0.1074 -0.1686 -0.5447
 9778TIP3    H150825   6.315   5.899  11.126 -0.7425  0.8118 -0.1648
 9778TIP3    H250826   6.306   5.808  11.005  1.1632 -0.0249  0.2758
 9779TIP3   OH250827   6.120   2.136   6.196 -0.8591  0.4335 -0.8381
 9779TIP3    H150828   6.183   2.065   6.195 -1.1402  0.1761 -0.5009
 9779TIP3    H250829   6.089   2.143   6.106 -0.1420  0.7557 -1.0726
 9780TIP3   OH250830   4.163   1.299  16.958  0.5043 -0.1942  0.1071
 9780TIP3    H150831   4.135   1.329  16.872  0.1072  0.4597  0.4546
 9780TIP3    H250832   4.257   1.313  16.960  0.4712  0.0515 -0.1175
 9781TIP3   OH250833   4.543   0.071   4.736 -0.1552 -0.3983 -0.3161
 9781TIP3    H150834   4.542   0.154   4.689 -1.1225  0.7680  1.6273
 9781TIP3    H250835   4.567   0.094   4.826 -3.1805 -1.7170  1.0097
 9782TIP3   OH250836   3.944   0.380  13.564  0.3265  0.5909 -0.5122
 9782TIP3    H150837   3.925   0.400  13.473  2.0313  0.2875 -0.9591
 9782TIP3    H250838   4.029   0.336  13.562  0.7961  1.3301  1.2976
 9783TIP3   OH250839   1.448   6.210  13.204 -0.1329  0.1103 -0.2698
 9783TIP3    H150840   1.400   6.280  13.248 -0.2265 -0.4226  0.5012
 9783TIP3    H250841   1.527   6.199  13.256 -0.9973 -1.6195  0.7495
 9784TIP3   OH250842   6.670   6.481  14.923 -0.3046  0.2647  0.2209
 9784TIP3    H150843   6.759   6.473  14.957  0.2741  0.0518 -1.2645
 9784TIP3    H250844   6.645   6.392  14.899 -0.4674  0.4878 -0.4579
 9785TIP3   OH250845   1.145   4.714   5.685  0.5283  0.6704 -0.1529
 9785TIP3    H150846   1.078   4.696   5.618  0.6962  0.5655 -0.2936
 9785TIP3    H250847   1.147   4.810   5.691 -1.6346  0.6660  1.8768
 9786TIP3   OH250848   0.777   1.217  13.532 -0.2289 -0.9874 -0.2907
 9786TIP3    H150849   0.815   1.174  13.609  0.0827 -2.0828 -1.0543
 9786TIP3    H250850   0.694   1.253  13.564  0.1493 -0.9541  0.6929
 9787TIP3   OH250851   4.358   2.812   0.731 -0.2293 -0.4608  0.0735
 9787TIP3    H150852   4.324   2.848   0.812 -2.0929 -1.8328 -0.0432
 9787TIP3    H250853   4.356   2.717   0.744  2.0345 -0.6751 -0.6042
 9788TIP3   OH250854   1.041   6.139  12.452 -0.2404 -0.1311  0.2888
 9788TIP3    H150855   1.061   6.160  12.361  0.9548  0.2096  0.6136
 9788TIP3    H250856   1.113   6.084  12.481  0.0339  0.7690  1.3890
 9789TIP3   OH250857   0.832   5.807   1.809 -0.1549  0.1980 -0.4905
 9789TIP3    H150858   0.834   5.903   1.811 -1.3159  0.2375 -0.5354
 9789TIP3    H250859   0.917   5.781   1.845 -0.2741  1.2386  0.6286
 9790TIP3   OH250860   0.668   1.215  16.766  0.7860 -0.3436  0.1784
 9790TIP3    H150861   0.711   1.297  16.744  0.6960 -0.5737 -0.9656
 9790TIP3    H250862   0.576   1.230  16.744  0.9606 -1.1156 -1.2809
 9791TIP3   OH250863   1.278   3.295   5.662  0.0811 -0.5348 -0.2136
 9791TIP3    H150864   1.274   3.277   5.755  1.4455  0.5321  0.0923
 9791TIP3    H250865   1.371   3.309   5.644 -0.0164 -1.7614 -1.9579
 9792TIP3   OH250866   1.027   3.328  13.796 -0.5277 -0.4858  0.2346
 9792TIP3    H150867   1.117   3.302  13.779 -0.4408 -0.3289  0.4556
 9792TIP3    H250868   0.979   3.246  13.807 -0.5272 -0.5869 -0.4673
 9793TIP3   OH250869   4.401   1.008   1.057 -0.1661 -0.6203  0.4240
 9793TIP3    H150870   4.367   1.069   0.992 -0.8187 -1.1190  0.2886
 9793TIP3    H250871   4.415   0.927   1.009 -1.2929 -1.1914  1.0306
 9794TIP3   OH250872   6.669   1.337   2.997  0.0938 -0.3698  0.5612
 9794TIP3    H150873   6.589   1.371   2.957  0.0058 -0.6296  0.5148
 9794TIP3    H250874   6.721   1.306   2.923 -0.3741 -1.5121  0.6827
 9795TIP3   OH250875   0.946   1.604  14.270  0.0027  1.1412  0.3359
 9795TIP3    H150876   1.019   1.650  14.311  0.6842  1.2501 -0.9459
 9795TIP3    H250877   0.987   1.533  14.220 -0.9190  0.1018  1.0227
 9796TIP3   OH250878   2.410   0.773  15.279  0.0136  0.2250 -0.3379
 9796TIP3    H150879   2.352   0.819  15.219 -0.2256  0.0702 -0.2237
 9796TIP3    H250880   2.459   0.843  15.324  0.8064  0.3265 -1.3167
 9797TIP3   OH250881   4.964   0.176   0.403 -0.1382 -0.1344 -0.6427
 9797TIP3    H150882   5.038   0.184   0.342 -1.7444 -2.8040 -3.2510
 9797TIP3    H250883   4.887   0.180   0.347 -1.8226 -0.8948  1.5017
 9798TIP3   OH250884   0.711   6.653  14.178 -1.0111 -0.2394  0.5413
 9798TIP3    H150885   0.625   6.649  14.221 -1.6339 -1.5087 -0.7108
 9798TIP3    H250886   0.711   6.577  14.120  0.9206 -0.1651  0.4042
 9799TIP3   OH250887   1.581   6.150   6.176 -0.1436 -0.3068 -0.4808
 9799TIP3    H150888   1.545   6.123   6.092 -0.7715  0.2242 -0.3886
 9799TIP3    H250889   1.626   6.072   6.209 -2.2178 -1.3966 -0.0390
 9800TIP3   OH250890   4.794   0.894  11.100 -0.2937  1.0785 -0.1077
 9800TIP3    H150891   4.721   0.949  11.130 -0.1838  0.3583  1.5890
 9800TIP3    H250892   4.824   0.849  11.179  1.3274  0.5701 -0.9759
 9801TIP3   OH250893   0.309   1.539   1.161  0.4825  0.1987  0.1585
 9801TIP3    H150894   0.325   1.572   1.073 -0.0240  1.6589  0.5839
 9801TIP3    H250895   0.284   1.447   1.148  0.3034  0.4213 -1.2260
 9802TIP3   OH250896   2.851   5.996   1.603 -0.2523 -0.3709 -0.4595
 9802TIP3    H150897   2.819   5.909   1.627  1.4577 -1.0143 -0.4016
 9802TIP3    H250898   2.796   6.021   1.529  0.5777 -2.4374 -1.8727
 9803TIP3   OH250899   1.523   3.693  16.884  0.0492 -0.2185 -0.0072
 9803TIP3    H150900   1.599   3.659  16.835 -0.9117  0.3152 -1.9974
 9803TIP3    H250901   1.455   3.627  16.873 -0.6433  0.5768 -0.6919
 9804TIP3   OH250902   5.096   6.799   0.208 -0.6959  0.2138 -0.4390
 9804TIP3    H150903   5.077   6.719   0.158  0.4715 -0.5279  0.2397
 9804TIP3    H250904   5.192   6.807   0.203 -0.6381  0.5759  0.9760
 9805TIP3   OH250905   2.205   4.320  14.909  0.0355 -0.6332 -0.1750
 9805TIP3    H150906   2.162   4.238  14.934 -1.4178  0.5450  1.3696
 9805TIP3    H250907   2.148   4.389  14.943  0.9617  1.0556 -1.8662
 9806TIP3   OH250908   5.692   2.433  11.156 -0.4257 -0.3029  0.2476
 9806TIP3    H150909   5.642   2.391  11.086 -0.6952  0.7620 -0.2254
 9806TIP3    H250910   5.754   2.490  11.110  0.2768 -0.5619  0.8583
 9807TIP3   OH250911   1.347   6.474  16.809 -0.3301 -0.1352  0.1207
 9807TIP3    H150912   1.407   6.539  16.774  0.7918 -0.7320  0.8521
 9807TIP3    H250913   1.260   6.504  16.784  0.2373  1.0860 -0.4300
 9808TIP3   OH250914   4.413   1.754  11.333  0.4469 -0.0110 -0.0547
 9808TIP3    H150915   4.376   1.818  11.394  1.8855  1.2876 -0.4874
 9808TIP3    H250916   4.498   1.732  11.370  1.2661  0.6617 -1.4570
 9809TIP3   OH250917   2.628   1.301   3.629 -0.6570  0.2075 -0.1259
 9809TIP3    H150918   2.675   1.233   3.678 -1.1904  0.9984  1.5538
 9809TIP3    H250919   2.691   1.330   3.563  0.4896 -0.1906  0.7368
 9810TIP3   OH250920   0.159   4.380   0.091  0.3358 -0.0045 -0.5180
 9810TIP3    H150921   0.241   4.354   0.133  0.0050  0.3338  0.3714
 9810TIP3    H250922   0.166   4.474   0.081 -0.0636  0.0685 -0.1513
 9811TIP3   OH250923   1.625   5.182  16.626 -0.3413  0.0405 -0.1464
 9811TIP3    H150924   1.651   5.099  16.586 -2.6227 -0.7090 -0.2205
 9811TIP3    H250925   1.707   5.220  16.658  1.5994  0.3082 -4.6697
 9812TIP3   OH250926   3.156   2.733  17.124 -0.0939  0.4219  0.6306
 9812TIP3    H150927   3.198   2.818  17.136  0.7858  0.1993 -0.6555
 9812TIP3    H250928   3.228   2.671  17.116 -0.6198 -0.0095 -1.3707
 9813TIP3   OH250929   5.876   3.927  11.044  0.2942  0.6044 -0.0961
 9813TIP3    H150930   5.805   3.962  10.990  0.8295  1.1053 -0.4927
 9813TIP3    H250931   5.862   3.832  11.044  0.1600  0.6187 -0.9300
 9814TIP3   OH250932   0.923   3.251   5.023 -0.1115  0.2934 -0.3987
 9814TIP3    H150933   0.831   3.235   5.000  0.5107 -2.1332 -1.5539
 9814TIP3    H250934   0.968   3.171   4.996  2.4393  1.6177 -0.3155
 9815TIP3   OH250935   4.269   6.136  16.818  0.5713  0.2327  0.1132
 9815TIP3    H150936   4.290   6.200  16.887  0.5909  0.8599 -0.4649
 9815TIP3    H250937   4.260   6.053  16.865  0.8147  0.6044  0.8427
 9816TIP3   OH250938   2.448   6.281  15.895  0.0451 -0.3103 -0.1957
 9816TIP3    H150939   2.447   6.332  15.814 -0.3923 -1.1582 -0.7353
 9816TIP3    H250940   2.497   6.336  15.957  0.9180  0.0911 -1.1982
 9817TIP3   OH250941   0.379   1.302   1.531 -0.3439  0.0671 -0.5512
 9817TIP3    H150942   0.470   1.292   1.558 -1.0774 -2.7364  1.4020
 9817TIP3    H250943   0.358   1.393   1.549  1.9248  0.6653 -0.6461
 9818TIP3   OH250944   2.211   6.103  15.756 -0.1545  0.0540 -0.0645
 9818TIP3    H150945   2.196   6.025  15.809 -0.4708 -0.4014 -0.8001
 9818TIP3    H250946   2.297   6.087  15.715  1.0465  1.3025  1.8253
 9819TIP3   OH250947   5.508   3.436   3.904  0.0357  1.1013  0.4645
 9819TIP3    H150948   5.473   3.439   3.993 -0.1112 -0.2391  0.4774
 9819TIP3    H250949   5.440   3.393   3.852  1.3227 -0.9948  0.3690
 9820TIP3   OH250950   5.935   5.082  13.128  0.1482  0.1719  0.3294
 9820TIP3    H150951   6.015   5.040  13.098  0.1536  0.4523 -0.0590
 9820TIP3    H250952   5.962   5.134  13.204  0.1638 -0.4189  0.7344
 9821TIP3   OH250953   1.237   1.071  14.117 -0.4107  0.2923  0.6642
 9821TIP3    H150954   1.319   1.095  14.075  0.4024 -2.0355  0.7903
 9821TIP3    H250955   1.172   1.129  14.078  0.8732  0.5144 -1.2712
 9822TIP3   OH250956   4.477   3.886  16.074 -0.1781  0.2961 -0.2583
 9822TIP3    H150957   4.462   3.831  15.996  0.7379 -0.1180 -0.1569
 9822TIP3    H250958   4.511   3.825  16.140 -3.4414  0.0707  1.4094
 9823TIP3   OH250959   4.683   2.424   2.114  0.6373 -0.0333  0.0499
 9823TIP3    H150960   4.691   2.330   2.097  2.3487 -0.1793  1.4783
 9823TIP3    H250961   4.626   2.455   2.043 -0.7971 -2.2755  0.0985
 9824TIP3   OH250962   1.349   2.173  15.609  0.2261  0.0672 -0.3524
 9824TIP3    H150963   1.389   2.239  15.553  1.5112  0.8255  1.3541
 9824TIP3    H250964   1.256   2.196  15.611  0.0439 -0.2753 -2.4755
 9825TIP3   OH250965   4.488   5.983   2.136  0.2706 -0.6161  0.0596
 9825TIP3    H150966   4.407   5.968   2.087 -0.0816 -3.1715  1.2401
 9825TIP3    H250967   4.556   5.941   2.083  1.0118  1.9081 -1.1547
 9826TIP3   OH250968   2.522   3.176  17.176  0.1681  0.0211 -0.1506
 9826TIP3    H150969   2.548   3.264  17.147  0.6389 -0.6247 -1.8160
 9826TIP3    H250970   2.587   3.153  17.243  0.0388  0.9309  0.3023
 9827TIP3   OH250971   3.826   0.543  12.877  0.5852  0.2005 -0.4003
 9827TIP3    H150972   3.902   0.542  12.935 -0.4411  0.2217  1.0005
 9827TIP3    H250973   3.766   0.479  12.916  0.5341 -1.0897 -2.4196
 9828TIP3   OH250974   6.451   4.589   5.076  0.3059  0.0666 -0.6428
 9828TIP3    H150975   6.516   4.537   5.027  0.4266 -0.5069  0.1187
 9828TIP3    H250976   6.425   4.533   5.149  1.7070  1.6757  1.2155
 9829TIP3   OH250977   3.712   3.447  16.995 -0.3814 -1.1270 -0.2176
 9829TIP3    H150978   3.685   3.395  16.919 -0.5509 -0.7676 -0.4048
 9829TIP3    H250979   3.630   3.474  17.035 -0.3176  0.1244 -0.8916
 9830TIP3   OH250980   3.828   5.835  13.908  0.4066 -0.2930 -0.0439
 9830TIP3    H150981   3.831   5.740  13.894 -0.1997 -0.2803 -0.3123
 9830TIP3    H250982   3.762   5.865  13.846  0.6972  0.3254 -0.0568
 9831TIP3   OH250983   3.836   1.695   1.125 -0.1603  0.0256 -0.0408
 9831TIP3    H150984   3.893   1.760   1.166 -0.6052  0.3596  0.0561
 9831TIP3    H250985   3.883   1.668   1.046 -0.5169  1.3698 -0.7367
 9832TIP3   OH250986   4.621   6.681  13.498  0.1568  0.2878 -0.1072
 9832TIP3    H150987   4.659   6.654  13.581  1.4237  0.1099 -0.7280
 9832TIP3    H250988   4.631   6.605  13.440 -2.9084 -0.5030  0.2058
 9833TIP3   OH250989   3.628   3.127  14.898  0.0910  0.2600  0.7754
 9833TIP3    H150990   3.626   3.115  14.803 -0.7827  0.6391  0.7397
 9833TIP3    H250991   3.543   3.165  14.919  0.2167  0.0234  1.7351
 9834TIP3   OH250992   1.970   4.738  15.017  0.0381  0.3644  0.0770
 9834TIP3    H150993   1.952   4.781  15.100 -0.1695  1.1450 -0.3655
 9834TIP3    H250994   1.905   4.775  14.956 -0.2092 -0.6378 -0.2894
 9835TIP3   OH250995   0.471   4.000   0.217  0.4066 -0.2852 -0.1997
 9835TIP3    H150996   0.511   4.003   0.304 -0.4531 -0.2090  0.1966
 9835TIP3    H250997   0.544   3.982   0.158  1.0203 -0.1933  0.5205
 9836TIP3   OH250998   4.306   6.175  11.876  0.2683  0.0105 -0.5271
 9836TIP3    H150999   4.335   6.169  11.785 -1.6814  0.7963 -1.2421
 9836TIP3    H251000   4.256   6.257  11.880 -0.4434 -0.4696  1.0171
 9837TIP3   OH251001   2.531   0.327  16.836  1.0118 -0.4192 -0.3568
 9837TIP3    H151002   2.574   0.361  16.757  1.1951  1.8157  0.6346
 9837TIP3    H251003   2.444   0.367  16.835  1.1368 -0.0878  0.7208
 9838TIP3   OH251004   0.780   4.128   2.629 -0.2801 -0.2601  0.2208
 9838TIP3    H151005   0.691   4.100   2.649  0.2503 -2.0044  0.2900
 9838TIP3    H251006   0.770   4.218   2.598 -2.3254 -1.0419 -1.7008
 9839TIP3   OH251007   1.000   1.211   4.845 -1.0117  0.6288 -0.5700
 9839TIP3    H151008   0.930   1.190   4.784  0.5053 -0.6312 -1.9417
 9839TIP3    H251009   1.040   1.291   4.810 -1.3656  1.0221 -0.1028
 9840TIP3   OH251010   1.914   3.866  12.636  0.2599  0.0462 -0.3528
 9840TIP3    H151011   1.918   3.878  12.541 -0.5966 -0.1919 -0.4301
 9840TIP3    H251012   1.982   3.800  12.654 -0.6581 -1.1434 -1.0338
 9841TIP3   OH251013   4.378   3.714   1.077  0.3980 -0.2913 -0.1472
 9841TIP3    H151014   4.329   3.670   1.146  0.5862  1.8371  1.4532
 9841TIP3    H251015   4.316   3.723   1.005 -2.0182  3.0091  2.0788
 9842TIP3   OH251016   3.821   6.432  16.690 -0.1059  0.2008  0.1669
 9842TIP3    H151017   3.827   6.361  16.753 -0.2922 -0.1285 -0.1830
 9842TIP3    H251018   3.739   6.416  16.643 -0.1057  0.5969  0.0271
 9843TIP3   OH251019   2.735   4.719   5.673  0.1632  0.2385 -0.3194
 9843TIP3    H151020   2.829   4.719   5.695 -0.1287 -0.8150  1.0357
 9843TIP3    H251021   2.729   4.662   5.596  0.4645 -0.8547  0.4528
 9844TIP3   OH251022   0.165   2.758  13.938  0.0471 -0.3169  0.1304
 9844TIP3    H151023   0.258   2.781  13.930  0.3238 -1.0807  1.0566
 9844TIP3    H251024   0.145   2.768  14.031 -0.1906 -2.3650  0.3486
 9845TIP3   OH251025   0.212   0.609  10.445  0.7594  0.1247 -0.2493
 9845TIP3    H151026   0.274   0.641  10.380  0.5998  0.7999 -0.0813
 9845TIP3    H251027   0.203   0.681  10.507 -0.0732 -0.0138 -0.1885
 9846TIP3   OH251028   4.195   1.408   0.486 -0.2094  0.0833 -0.1214
 9846TIP3    H151029   4.104   1.426   0.461 -0.0635  0.6658 -0.2419
 9846TIP3    H251030   4.210   1.461   0.563 -0.5384 -1.4313  1.0412
 9847TIP3   OH251031   0.301   3.485   4.169  0.2391  0.0527 -0.1148
 9847TIP3    H151032   0.358   3.421   4.127 -0.3568 -0.2342 -0.4887
 9847TIP3    H251033   0.361   3.544   4.214  0.7881 -0.8791  0.3976
 9848TIP3   OH251034   4.347   1.714  16.651 -0.0718  0.1219 -0.0687
 9848TIP3    H151035   4.405   1.786  16.628 -0.4028  1.0555  1.7755
 9848TIP3    H251036   4.295   1.748  16.724  0.4689 -2.3018  1.5630
 9849TIP3   OH251037   4.326   3.786   4.394 -0.5904  0.4598  0.6508
 9849TIP3    H151038   4.232   3.774   4.407 -0.6206  0.8353  0.8103
 9849TIP3    H251039   4.362   3.796   4.483 -0.4272  0.4974  0.5816
 9850TIP3   OH251040   3.854   4.909  11.663  0.0237  0.0170  0.4561
 9850TIP3    H151041   3.846   4.994  11.705 -3.1745 -0.1590  0.3896
 9850TIP3    H251042   3.776   4.861  11.690  2.7271 -3.8392  2.4017
 9851TIP3   OH251043   4.332   2.279   5.805  0.1035  0.4453 -0.1273
 9851TIP3    H151044   4.302   2.358   5.850 -0.1323  0.2375  0.0877
 9851TIP3    H251045   4.340   2.304   5.713  1.0931  1.0240  0.0968
 9852TIP3   OH251046   1.128   5.794   5.124 -0.6035 -0.5952 -0.3151
 9852TIP3    H151047   1.130   5.723   5.060  1.4545 -1.0691  0.2113
 9852TIP3    H251048   1.122   5.874   5.071 -0.0263 -1.0319 -1.0552
 9853TIP3   OH251049   0.355   5.043   6.337 -0.6051  0.2311  0.1045
 9853TIP3    H151050   0.442   5.005   6.326 -0.3321  0.8560  0.0450
 9853TIP3    H251051   0.299   4.970   6.364 -0.0443 -0.1562  0.2215
 9854TIP3   OH251052   1.147   2.929   4.185 -0.2866  0.2728 -0.2865
 9854TIP3    H151053   1.096   2.852   4.163  0.9235 -0.2952 -1.2172
 9854TIP3    H251054   1.169   2.969   4.101  1.1166  0.2712  0.0490
 9855TIP3   OH251055   0.805   4.911   5.344  0.0673 -0.1557 -0.2891
 9855TIP3    H151056   0.793   4.953   5.259 -0.8560  2.3435  0.9748
 9855TIP3    H251057   0.734   4.846   5.349 -0.6390  0.5536 -0.9286
 9856TIP3   OH251058   4.484   0.242   4.284 -0.0887  0.1674  0.3985
 9856TIP3    H151059   4.433   0.306   4.333 -2.7977 -2.1669  0.9525
 9856TIP3    H251060   4.495   0.169   4.345  2.6412 -0.1003 -0.2864
 9857TIP3   OH251061   6.786   1.259   3.627  0.1106 -0.0828  0.3294
 9857TIP3    H151062   6.823   1.199   3.562 -2.1837 -1.2859  0.0391
 9857TIP3    H251063   6.711   1.299   3.583 -0.4153  0.4537  1.6563
 9858TIP3   OH251064   0.793   5.009   3.696  0.1482  1.1766  0.3820
 9858TIP3    H151065   0.818   4.919   3.676  0.9722  1.0583  1.8207
 9858TIP3    H251066   0.837   5.061   3.629 -1.6238  0.4336 -1.4503
 9859TIP3   OH251067   5.806   1.401  17.199 -0.1736 -0.1118  0.2020
 9859TIP3    H151068   5.718   1.384  17.231 -0.2181 -0.0015  0.1388
 9859TIP3    H251069   5.800   1.487  17.157 -0.2206 -0.4288 -0.4648
 9860TIP3   OH251070   4.031   4.954  13.850  0.1203  0.2302 -0.0572
 9860TIP3    H151071   3.945   4.970  13.890 -0.6945  1.3351 -2.1110
 9860TIP3    H251072   4.062   4.874  13.891 -2.5402 -0.9904 -0.2521
 9861TIP3   OH251073   0.169   2.076   0.492 -0.4264 -0.1547  0.3096
 9861TIP3    H151074   0.143   2.028   0.570 -1.2092  0.0987  0.2122
 9861TIP3    H251075   0.136   2.022   0.419 -0.7381  0.2067  0.1843
 9862TIP3   OH251076   3.438   2.065  14.773  0.1061 -0.2399  0.0279
 9862TIP3    H151077   3.466   2.029  14.689  0.5236 -1.9621  0.8781
 9862TIP3    H251078   3.518   2.073  14.824 -0.3767 -1.0069  0.9304
 9863TIP3   OH251079   5.292   4.510  11.402 -0.5634 -0.0376 -0.5906
 9863TIP3    H151080   5.250   4.476  11.482  0.0672 -0.9152 -0.6201
 9863TIP3    H251081   5.300   4.604  11.418 -0.8089 -0.1414  0.2211
 9864TIP3   OH251082   3.068   0.740  13.380  0.1966 -0.1850  0.2277
 9864TIP3    H151083   3.107   0.736  13.468  1.8300  0.3200 -0.4210
 9864TIP3    H251084   3.143   0.755  13.322 -0.8552 -0.4385 -1.2536
 9865TIP3   OH251085   6.776   6.050   4.491 -0.3687 -0.5451  0.2509
 9865TIP3    H151086   6.695   6.097   4.470  0.0532  0.2718  0.3960
 9865TIP3    H251087   6.751   5.990   4.561 -0.8133 -0.1641  0.4336
 9866TIP3   OH251088   2.845   4.610   4.243 -0.4546  0.5121  0.4335
 9866TIP3    H151089   2.822   4.679   4.306 -0.4858  0.3098  0.6460
 9866TIP3    H251090   2.764   4.591   4.197 -0.5919  0.1962  0.7929
 9867TIP3   OH251091   6.266   0.174   3.922 -0.1453 -0.3579 -0.0445
 9867TIP3    H151092   6.195   0.110   3.915 -1.4862  1.1573 -0.9196
 9867TIP3    H251093   6.222   0.258   3.927  1.5740  0.5272  1.2462
 9868TIP3   OH251094   5.948   2.387  12.602  0.1316  0.2023  0.3478
 9868TIP3    H151095   6.018   2.329  12.631  2.0021  1.0565 -2.0554
 9868TIP3    H251096   5.909   2.343  12.527 -0.3585  0.7428  0.2750
 9869TIP3   OH251097   0.433   3.068   2.765  0.1738  0.3909 -0.2261
 9869TIP3    H151098   0.523   3.080   2.734  1.0345 -1.1753  1.4226
 9869TIP3    H251099   0.397   2.999   2.710 -0.4602  1.8195 -1.6501
 9870TIP3   OH251100   1.535   2.711   1.920  0.6894  0.0713 -0.0923
 9870TIP3    H151101   1.548   2.638   1.981 -0.9785  1.2366  1.7675
 9870TIP3    H251102   1.524   2.788   1.976 -2.2015  1.0222 -1.7761
 9871TIP3   OH251103   5.080   4.501   1.270  0.1476  0.0791  0.3991
 9871TIP3    H151104   5.166   4.515   1.231  0.6812 -0.1189  1.4520
 9871TIP3    H251105   5.026   4.573   1.237  0.3700 -0.4722 -1.2169
 9872TIP3   OH251106   1.974   4.812   4.396  0.2193  0.3832  0.4396
 9872TIP3    H151107   2.051   4.857   4.430  0.5371 -0.1716  0.4553
 9872TIP3    H251108   1.997   4.719   4.396  0.0164  0.3088 -0.7187
 9873TIP3   OH251109   5.611   5.803   5.706 -0.6772 -0.1913  0.4779
 9873TIP3    H151110   5.551   5.777   5.775 -0.2440  0.2384  1.0275
 9873TIP3    H251111   5.583   5.890   5.681 -2.1194 -1.1100 -1.3546
 9874TIP3   OH251112   1.415   3.127   3.066 -0.4738 -0.8724 -0.0139
 9874TIP3    H151113   1.482   3.095   3.127 -1.8662  0.1242  2.1948
 9874TIP3    H251114   1.463   3.153   2.988  1.4520 -1.9803  0.7346
 9875TIP3   OH251115   0.835   3.724   4.765 -0.1514 -0.5627 -1.0215
 9875TIP3    H151116   0.782   3.647   4.789  1.2760 -1.5183 -0.7953
 9875TIP3    H251117   0.875   3.751   4.848 -2.6268  2.1071 -0.5289
 9876TIP3   OH251118   1.833   3.679  15.628 -0.1820  0.3141 -0.0154
 9876TIP3    H151119   1.795   3.598  15.662 -1.1670  0.2142 -1.3112
 9876TIP3    H251120   1.927   3.670  15.644 -0.0420 -1.8764 -1.6591
 9877TIP3   OH251121   3.316   0.528  12.969  0.3854  0.2415  0.1164
 9877TIP3    H151122   3.291   0.471  13.041  1.3120 -0.8520 -0.3939
 9877TIP3    H251123   3.248   0.514  12.903  1.6464 -1.9024 -0.8354
 9878TIP3   OH251124   3.074   1.478   0.906  0.3156  0.6404 -0.8688
 9878TIP3    H151125   3.104   1.502   0.993 -2.8789 -0.5253  0.7093
 9878TIP3    H251126   3.151   1.441   0.863  1.6099 -0.4295  2.1033
 9879TIP3   OH251127   6.253   2.433  13.093  0.3662  0.1970  0.5526
 9879TIP3    H151128   6.289   2.407  13.008  0.7024 -1.6435  1.1975
 9879TIP3    H251129   6.242   2.528  13.087 -1.8095 -0.1027 -2.3523
 9880TIP3   OH251130   2.734   4.228   5.120 -0.2036  0.2482 -0.0422
 9880TIP3    H151131   2.784   4.187   5.191 -0.4910 -0.9127 -0.4781
 9880TIP3    H251132   2.694   4.305   5.160  0.8173  0.4335  0.6650
 9881TIP3   OH251133   0.740   0.294   3.680  0.0489 -0.2395  0.6382
 9881TIP3    H151134   0.670   0.284   3.744  0.0651  1.6264  0.9959
 9881TIP3    H251135   0.819   0.310   3.733  0.0813  1.2159  0.2087
 9882TIP3   OH251136   3.045   4.652  15.245 -0.1932 -0.5042 -0.2319
 9882TIP3    H151137   2.987   4.725  15.269 -1.9791 -1.4228 -1.5071
 9882TIP3    H251138   3.107   4.689  15.183  1.1500  0.6714  1.6950
 9883TIP3   OH251139   2.654   5.463   3.596  0.1615  0.2092  0.0559
 9883TIP3    H151140   2.623   5.412   3.521 -0.0665  1.5824 -0.8170
 9883TIP3    H251141   2.581   5.521   3.618  0.6243  0.5828  0.6395
 9884TIP3   OH251142   3.317   5.831   6.007 -0.3601 -0.2900  0.1445
 9884TIP3    H151143   3.365   5.888   5.947  0.9262 -0.9417  0.5358
 9884TIP3    H251144   3.359   5.842   6.091  0.1690 -2.0701  0.1598
 9885TIP3   OH251145   3.731   6.116  16.610 -0.0187  0.1896 -0.1638
 9885TIP3    H151146   3.763   6.138  16.522  0.4053  2.0794  0.4177
 9885TIP3    H251147   3.804   6.136  16.668 -0.2947 -1.0285  0.6548
 9886TIP3   OH251148   1.040   5.556   0.805 -0.1072 -0.1934 -0.0536
 9886TIP3    H151149   0.993   5.592   0.730  1.0428  1.7623  0.0970
 9886TIP3    H251150   0.976   5.501   0.849 -1.2371 -0.2462 -1.6575
 9887TIP3   OH251151   0.080   1.573  13.242  0.2515  0.1220 -0.3795
 9887TIP3    H151152   0.018   1.513  13.201 -0.2926  1.2167 -1.2176
 9887TIP3    H251153   0.090   1.541  13.331 -1.5289 -0.0872 -0.2214
 9888TIP3   OH251154   2.595   2.185   0.419  0.6348  0.4321  0.2869
 9888TIP3    H151155   2.596   2.159   0.327 -1.1286  0.1826  0.3125
 9888TIP3    H251156   2.556   2.111   0.465  1.1425  0.7106  1.1913
 9889TIP3   OH251157   4.278   3.393  12.364 -0.1250  0.1929  0.2800
 9889TIP3    H151158   4.194   3.420  12.326 -0.5259 -1.3093  0.0405
 9889TIP3    H251159   4.255   3.324  12.426  0.8830  0.1817  0.6603
 9890TIP3   OH251160   3.765   6.271   4.958 -0.0895  0.2025  0.0698
 9890TIP3    H151161   3.812   6.233   5.032  1.1797  1.4246 -0.0452
 9890TIP3    H251162   3.800   6.226   4.882  1.3143  1.4071 -0.0547
 9891TIP3   OH251163   4.933   3.440   0.139 -0.0620 -0.0566  0.2479
 9891TIP3    H151164   4.887   3.439   0.223  0.7085  0.7920  0.6995
 9891TIP3    H251165   4.880   3.498   0.083 -2.1693 -2.8219 -0.8471
 9892TIP3   OH251166   2.543   6.618   1.916 -0.0265  0.5211 -0.3096
 9892TIP3    H151167   2.619   6.579   1.874  1.8092  2.9324  0.4949
 9892TIP3    H251168   2.516   6.688   1.856 -0.5912  0.7026  0.1446
 9893TIP3   OH251169   4.335   5.296  15.228  0.1566 -0.5880  0.1579
 9893TIP3    H151170   4.280   5.272  15.153 -1.3619  0.8357  0.7547
 9893TIP3    H251171   4.305   5.384  15.252  1.1733 -0.6896  1.9340
 9894TIP3   OH251172   6.751   1.663  11.570 -0.0529  0.4366 -0.5473
 9894TIP3    H151173   6.663   1.643  11.537 -0.5180  2.5082 -0.7349
 9894TIP3    H251174   6.764   1.603  11.643 -1.1909 -0.6094 -1.1629
 9895TIP3   OH251175   4.924   0.910   1.479 -0.4449  0.9770  0.2697
 9895TIP3    H151176   4.998   0.861   1.443 -1.8305  0.3931 -1.9786
 9895TIP3    H251177   4.956   0.943   1.562  2.0155 -0.0654 -0.1658
 9896TIP3   OH251178   3.976   3.894   3.099  0.3624  0.3920  0.3458
 9896TIP3    H151179   4.029   3.815   3.095  0.3432  0.3915 -3.3021
 9896TIP3    H251180   4.038   3.966   3.091  0.2011  0.6809  1.5042
 9897TIP3   OH251181   5.163   6.625  14.242 -0.3178  0.0620  0.1034
 9897TIP3    H151182   5.217   6.612  14.320  1.8995  0.1149 -1.3197
 9897TIP3    H251183   5.146   6.537  14.208  0.9909  0.0996 -0.7430
 9898TIP3   OH251184   4.918   1.772   2.737  0.1893 -0.0251 -0.0994
 9898TIP3    H151185   4.983   1.805   2.675 -0.7957  1.4762 -0.3830
 9898TIP3    H251186   4.936   1.818   2.818 -0.1401 -0.0508 -0.0100
 9899TIP3   OH251187   0.899   1.556  11.776 -0.0205 -0.0074 -0.2315
 9899TIP3    H151188   0.856   1.640  11.757  0.4157  0.5518  1.1475
 9899TIP3    H251189   0.883   1.542  11.869  1.5572 -0.5077 -0.0128
 9900TIP3   OH251190   4.254   4.694   3.537 -0.5690  0.0542  0.3600
 9900TIP3    H151191   4.284   4.665   3.451 -1.0901 -1.4473  0.6493
 9900TIP3    H251192   4.166   4.655   3.545 -1.0890  1.3205  1.0102
 9901TIP3   OH251193   0.713   5.712  12.609 -0.2600  0.1069 -0.1012
 9901TIP3    H151194   0.734   5.804  12.624  0.5526 -0.0427 -0.2745
 9901TIP3    H251195   0.625   5.713  12.570  0.1850  0.8785 -1.1346
 9902TIP3   OH251196   2.339   0.321   3.474 -0.2847 -0.4062  0.0628
 9902TIP3    H151197   2.357   0.304   3.381  0.1649  2.5332 -0.4907
 9902TIP3    H251198   2.336   0.416   3.480 -0.1293 -0.5118  3.1342
 9903TIP3   OH251199   5.202   0.537   3.490  0.0011 -0.2735  0.5530
 9903TIP3    H151200   5.125   0.577   3.449  0.2556 -0.7711 -0.4477
 9903TIP3    H251201   5.276   0.589   3.457  0.0068  1.3718  2.9299
 9904TIP3   OH251202   6.593   6.027   0.201 -0.4388  0.0916  0.9435
 9904TIP3    H151203   6.577   6.077   0.121 -0.1661  0.6520  1.2354
 9904TIP3    H251204   6.508   5.991   0.225 -0.5692  0.1330  0.5414
 9905TIP3   OH251205   1.327   5.313  15.895 -0.0063 -0.2884  0.0791
 9905TIP3    H151206   1.251   5.340  15.947  1.0743 -1.2068  2.2303
 9905TIP3    H251207   1.317   5.361  15.812 -2.7480 -0.1433  0.3876
 9906TIP3   OH251208   2.142   6.793  11.356  0.1250 -0.4976 -0.5795
 9906TIP3    H151209   2.238   6.797  11.360  0.1020  0.3397 -0.5903
 9906TIP3    H251210   2.116   6.878  11.320 -0.6109 -0.8307 -0.8515
 9907TIP3   OH251211   1.518   6.526   6.263 -0.3691  0.3985  0.3615
 9907TIP3    H151212   1.438   6.480   6.240 -0.1156 -0.1642  0.5839
 9907TIP3    H251213   1.489   6.612   6.293 -0.8517  0.3650 -0.0050
 9908TIP3   OH251214   5.408   1.211  14.569  0.0938 -0.3573 -0.3491
 9908TIP3    H151215   5.499   1.197  14.593 -0.1636 -1.5382  0.0079
 9908TIP3    H251216   5.365   1.235  14.652  0.1545  0.6015 -0.5913
 9909TIP3   OH251217   2.529   1.888   4.894 -1.2164  0.2494 -0.1004
 9909TIP3    H151218   2.555   1.802   4.928 -1.3641  0.1491 -0.2412
 9909TIP3    H251219   2.583   1.950   4.943 -0.8544  0.0544 -0.2486
 9910TIP3   OH251220   5.530   6.106  11.805  0.1348 -0.0457  0.0040
 9910TIP3    H151221   5.543   6.027  11.857 -1.5431 -1.6146 -1.7895
 9910TIP3    H251222   5.617   6.143  11.796  0.5891  0.0074  3.3380
 9911TIP3   OH251223   3.714   1.585  14.996 -0.1253 -0.0617 -0.0902
 9911TIP3    H151224   3.768   1.552  15.069 -0.7625 -0.4320  0.2194
 9911TIP3    H251225   3.644   1.521  14.987 -0.3223  0.2384 -0.7226
 9912TIP3   OH251226   0.723   1.201  14.088 -0.0986  0.1559 -0.3535
 9912TIP3    H151227   0.667   1.127  14.065 -0.5152  0.7919 -1.4349
 9912TIP3    H251228   0.708   1.213  14.182 -1.8782  0.3618 -0.6208
 9913TIP3   OH251229   3.286   1.693   2.237 -0.7224 -0.2742  0.0211
 9913TIP3    H151230   3.365   1.685   2.184 -0.2369 -1.4487  0.8816
 9913TIP3    H251231   3.241   1.770   2.202  0.4947  0.0518 -0.8747
 9914TIP3   OH251232   1.121   1.098  12.328 -0.3450  0.0074  0.6070
 9914TIP3    H151233   1.084   1.105  12.416 -3.0627 -1.9624 -0.2532
 9914TIP3    H251234   1.165   1.014  12.327  1.4236  0.8983  0.6188
 9915TIP3   OH251235   2.365   4.857   0.787 -0.5000 -0.3955  0.2271
 9915TIP3    H151236   2.395   4.936   0.743 -0.8717 -0.7110 -0.6256
 9915TIP3    H251237   2.442   4.825   0.835  0.0840 -0.3298 -0.6387
 9916TIP3   OH251238   1.790   4.469   0.590  0.0756  0.1053  0.4881
 9916TIP3    H151239   1.733   4.420   0.650  0.2399  0.6270  1.0815
 9916TIP3    H251240   1.828   4.538   0.644  2.3235 -1.0150  0.4665
 9917TIP3   OH251241   3.146   0.196  11.154  0.3008 -0.6799  0.0356
 9917TIP3    H151242   3.189   0.267  11.202  0.3475 -0.5979 -0.1240
 9917TIP3    H251243   3.215   0.162  11.096  0.3093 -0.9310  0.1959
 9918TIP3   OH251244   4.486   6.543  11.513  0.1918 -0.7943  0.0219
 9918TIP3    H151245   4.430   6.568  11.439  0.7614  3.5549  0.7644
 9918TIP3    H251246   4.448   6.590  11.587  1.6263 -2.2774  1.7839
 9919TIP3   OH251247   3.903   1.853  10.885 -0.1868  0.2844  0.2899
 9919TIP3    H151248   3.992   1.865  10.852  0.3371 -0.0175  1.5659
 9919TIP3    H251249   3.898   1.907  10.963 -1.4590  1.0794 -0.3070
 9920TIP3   OH251250   0.932   3.137   1.844 -0.7161 -0.0890  0.7843
 9920TIP3    H151251   0.915   3.212   1.788  0.6137 -0.3962 -0.0573
 9920TIP3    H251252   1.026   3.124   1.841 -0.6712 -0.5482  2.5523
 9921TIP3   OH251253   5.545   2.946   0.149  0.3516  0.1143 -0.7159
 9921TIP3    H151254   5.574   3.019   0.094  0.9321  1.8318  1.7026
 9921TIP3    H251255   5.450   2.953   0.150  0.4036  0.8717 -0.4837
 9922TIP3   OH251256   6.009   6.013   1.518  0.1419 -0.3662  0.0737
 9922TIP3    H151257   6.012   5.953   1.592 -0.5865  0.3238  0.6732
 9922TIP3    H251258   6.021   5.957   1.441  2.3437 -0.9283  0.7528
 9923TIP3   OH251259   5.832   0.490   3.830  0.0586  0.8494  0.2671
 9923TIP3    H151260   5.852   0.454   3.916  2.0609  0.0872 -0.4752
 9923TIP3    H251261   5.770   0.561   3.848  1.2365  1.4121  2.4338
 9924TIP3   OH251262   3.707   1.465   1.689  0.1281  0.4632 -0.7496
 9924TIP3    H151263   3.612   1.479   1.687  0.0276 -0.2204 -1.1570
 9924TIP3    H251264   3.739   1.506   1.608 -0.0062 -0.5239 -1.3142
 9925TIP3   OH251265   0.771   5.535   0.950 -0.1067 -0.2424 -0.0358
 9925TIP3    H151266   0.753   5.615   0.902 -1.0481 -0.2343  0.3005
 9925TIP3    H251267   0.747   5.465   0.889 -1.9480 -0.2300  0.6000
 9926TIP3   OH251268   6.192   0.606   3.423  0.0030  0.0751 -0.3315
 9926TIP3    H151269   6.283   0.610   3.452  0.7448 -1.1572 -2.2809
 9926TIP3    H251270   6.175   0.691   3.384  0.7223 -0.0569 -0.9680
 9927TIP3   OH251271   0.456   3.992  12.218 -0.1179  0.3966 -0.0138
 9927TIP3    H151272   0.436   4.065  12.277 -1.4532  0.4160 -0.4611
 9927TIP3    H251273   0.460   3.916  12.276  1.1412  0.7876  0.4365
 9928TIP3   OH251274   1.076   6.488   0.185  0.2424 -0.2194  0.2374
 9928TIP3    H151275   1.130   6.505   0.262  2.1938 -1.3525 -0.7960
 9928TIP3    H251276   1.117   6.539   0.116  0.0907 -1.2109 -0.6065
 9929TIP3   OH251277   0.670   5.678  15.570 -0.4142 -0.1844 -0.1804
 9929TIP3    H151278   0.751   5.729  15.565 -0.8656  0.7672  1.3919
 9929TIP3    H251279   0.689   5.610  15.635 -0.8715  0.0777  0.2390
 9930TIP3   OH251280   1.000   1.207  16.590  0.1756  0.0118  0.0725
 9930TIP3    H151281   0.972   1.154  16.515 -0.6108  0.2172  0.2130
 9930TIP3    H251282   1.021   1.143  16.658 -0.6032 -0.1262  0.1845
 9931TIP3   OH251283   2.583   1.619   2.041 -0.1471 -0.5346 -0.4247
 9931TIP3    H151284   2.570   1.586   2.129 -2.5083 -0.9237 -0.8447
 9931TIP3    H251285   2.616   1.544   1.991  0.3681 -0.5439 -0.0763
 9932TIP3   OH251286   2.116   6.663  11.099 -0.1430 -0.0978 -0.0846
 9932TIP3    H151287   2.071   6.742  11.071  1.5345  1.7574  2.0918
 9932TIP3    H251288   2.048   6.595  11.097 -1.9456  1.6346 -0.8717
 9933TIP3   OH251289   2.160   2.838   2.516 -0.5691  0.3530 -0.7311
 9933TIP3    H151290   2.233   2.895   2.493  0.8300 -0.8571  0.5471
 9933TIP3    H251291   2.111   2.886   2.582  2.3815 -0.9716  2.7643
 9934TIP3   OH251292   3.825   0.672   6.183 -0.3719 -0.3545  0.1315
 9934TIP3    H151293   3.884   0.646   6.254 -0.9101  0.1066  0.7606
 9934TIP3    H251294   3.832   0.602   6.118  0.5560 -0.5004  0.3807
 9935TIP3   OH251295   1.718   6.341  17.172 -0.3676 -0.0209  0.2302
 9935TIP3    H151296   1.726   6.279  17.099  3.0772  0.3856  0.0977
 9935TIP3    H251297   1.759   6.297  17.246  0.9771  1.5647  0.4789
 9936TIP3   OH251298   5.974   0.319   1.843  0.2470  0.3540  0.0859
 9936TIP3    H151299   5.885   0.342   1.869  0.9964  1.0103  2.4084
 9936TIP3    H251300   5.987   0.231   1.878  1.3072  1.2767  2.2102
 9937TIP3   OH251301   5.406   1.749  14.212 -0.6989  0.3017 -0.3633
 9937TIP3    H151302   5.424   1.752  14.306 -1.1183  2.4845 -0.2865
 9937TIP3    H251303   5.319   1.710  14.206 -0.0718 -1.2105  0.0152
 9938TIP3   OH251304   1.437   6.663   1.388 -0.2823  0.3786  0.3637
 9938TIP3    H151305   1.354   6.707   1.371 -1.0112  0.5976  3.7640
 9938TIP3    H251306   1.421   6.612   1.467  2.1489 -1.6182 -0.3077
 9939TIP3   OH251307   4.392   0.796   6.673 -0.2493  0.4033 -0.4336
 9939TIP3    H151308   4.364   0.717   6.626 -2.0389  0.9847 -0.4082
 9939TIP3    H251309   4.319   0.857   6.663  1.1634  2.1544 -0.6283
 9940TIP3   OH251310   3.311   1.851  15.216  0.0204  0.0114  0.2056
 9940TIP3    H151311   3.373   1.841  15.143 -1.0840 -1.4117 -0.5968
 9940TIP3    H251312   3.290   1.944  15.217  0.7939  0.2130 -0.6857
 9941TIP3   OH251313   3.837   5.189   0.904 -0.2914 -0.5385  0.0935
 9941TIP3    H151314   3.927   5.195   0.871  0.3890 -0.4045  1.8483
 9941TIP3    H251315   3.817   5.096   0.903  1.3807 -1.0775  3.2681
 9942TIP3   OH251316   1.615   6.636  10.445  0.5637  0.8706  0.0309
 9942TIP3    H151317   1.540   6.630  10.386 -0.1769 -2.2114  1.1167
 9942TIP3    H251318   1.600   6.718  10.493 -1.2247  1.1565 -0.9035
 9943TIP3   OH251319   0.697   4.580   0.679 -0.1847 -0.8506  0.3153
 9943TIP3    H151320   0.790   4.560   0.692  0.3181  1.1434  0.1490
 9943TIP3    H251321   0.674   4.637   0.753  0.3147  3.2608 -2.3424
 9944TIP3   OH251322   0.024   0.778   1.477 -0.4542  0.4217  0.1630
 9944TIP3    H151323  -0.047   0.720   1.504  0.7312 -0.8252  0.7510
 9944TIP3    H251324   0.097   0.719   1.458  0.4026  1.6544 -0.5008
 9945TIP3   OH251325   2.480   4.940  11.375 -0.3507 -0.3859 -0.5219
 9945TIP3    H151326   2.563   4.941  11.327 -1.2608  0.3459 -2.1656
 9945TIP3    H251327   2.467   4.848  11.399  1.6083 -0.3276  1.0809
 9946TIP3   OH251328   3.790   3.662  11.289 -0.3811 -0.3346  0.0701
 9946TIP3    H151329   3.817   3.746  11.252 -1.2730 -0.0592  0.0418
 9946TIP3    H251330   3.815   3.597  11.223 -0.4257 -0.0186 -0.2562
 9947TIP3   OH251331   4.528   2.768  17.247 -0.0140 -0.0623  0.3054
 9947TIP3    H151332   4.598   2.811  17.197  0.3850 -1.5112 -0.4405
 9947TIP3    H251333   4.454   2.828  17.240 -0.0781 -0.2899 -2.3139
 9948TIP3   OH251334   6.519   2.654  13.013  0.1654 -0.0246  0.9023
 9948TIP3    H151335   6.427   2.674  12.997 -0.2740 -2.2792  0.1958
 9948TIP3    H251336   6.563   2.676  12.930 -0.3376 -1.9105  0.0752
 9949TIP3   OH251337   3.432   1.357   6.423  0.3548  0.4851 -1.2084
 9949TIP3    H151338   3.449   1.431   6.482 -1.2258  0.0934 -0.1654
 9949TIP3    H251339   3.485   1.374   6.346  0.5900  2.3361 -0.6858
 9950TIP3   OH251340   6.385   0.125   3.129 -0.1567  0.1121 -0.0312
 9950TIP3    H151341   6.362   0.156   3.217 -0.1431 -0.7838  0.2969
 9950TIP3    H251342   6.423   0.201   3.086  0.8372  0.2925  1.1102
 9951TIP3   OH251343   2.010   4.312   5.748 -0.1269 -0.6227 -0.2689
 9951TIP3    H151344   2.017   4.390   5.803 -0.4512 -0.2133 -0.8119
 9951TIP3    H251345   1.956   4.338   5.674  0.2134 -1.2056 -0.7375
 9952TIP3   OH251346   0.980   1.329  13.187 -0.4907  0.4487 -0.3222
 9952TIP3    H151347   1.070   1.349  13.163  0.5270 -2.3569  0.7677
 9952TIP3    H251348   0.927   1.388  13.133  1.9383  1.5687 -1.6272
 9953TIP3   OH251349   5.276   5.778   1.040  0.2156  0.3581  0.1040
 9953TIP3    H151350   5.367   5.799   1.060 -0.0781 -0.4753  2.7635
 9953TIP3    H251351   5.229   5.859   1.057  0.3302  0.4927 -0.2153
 9954TIP3   OH251352   6.650   1.801  12.154  0.0251  0.2119 -0.0583
 9954TIP3    H151353   6.606   1.759  12.228 -0.1134 -1.5663 -1.0907
 9954TIP3    H251354   6.671   1.889  12.185  0.6980 -0.7398  2.3597
 9955TIP3   OH251355   0.681   2.172  11.415  0.4684 -0.0267 -0.3594
 9955TIP3    H151356   0.715   2.180  11.326  0.2559  0.5070 -0.3952
 9955TIP3    H251357   0.598   2.126  11.406 -0.2629  1.2980 -0.6076
 9956TIP3   OH251358   3.621   3.962   0.413  0.3834  0.1970  0.4205
 9956TIP3    H151359   3.663   3.915   0.342 -0.2753  0.3559 -0.0808
 9956TIP3    H251360   3.664   4.048   0.413 -0.0272  0.4043 -0.1733
 9957TIP3   OH251361   3.772   5.153  16.469  0.1495 -0.3417  0.3079
 9957TIP3    H151362   3.783   5.161  16.564 -0.0268  2.1898  0.1883
 9957TIP3    H251363   3.692   5.102  16.458  0.2752 -0.8333  1.4928
 9958TIP3   OH251364   0.725   2.608  16.278  0.2706 -0.6938 -0.3747
 9958TIP3    H151365   0.753   2.659  16.202  0.5725  2.1378  1.4920
 9958TIP3    H251366   0.770   2.524  16.269  0.5878 -0.3096 -3.0884
 9959TIP3   OH251367   1.061   1.589   4.793 -0.1538 -0.1766  0.1381
 9959TIP3    H151368   0.999   1.553   4.855 -0.5431 -0.9831 -0.6947
 9959TIP3    H251369   1.069   1.681   4.817 -2.9490  0.3909 -0.7187
 9960TIP3   OH251370   0.355   5.032   2.796 -0.5318 -0.0565  0.4355
 9960TIP3    H151371   0.296   4.977   2.743  0.6193 -0.3481 -0.5872
 9960TIP3    H251372   0.396   5.090   2.732  1.0599 -0.5637  0.9722
 9961TIP3   OH251373   0.855   6.421  14.974 -0.4745 -0.1286 -0.3331
 9961TIP3    H151374   0.896   6.427  15.060  0.4328 -1.3278 -0.6519
 9961TIP3    H251375   0.902   6.485  14.920 -0.4144 -0.0353 -0.1703
 9962TIP3   OH251376   0.209   6.534   6.402  0.0486 -0.6065  0.2943
 9962TIP3    H151377   0.220   6.583   6.484 -1.4616  1.8827 -0.8434
 9962TIP3    H251378   0.124   6.491   6.411  0.4138 -1.2995  0.4697
 9963TIP3   OH251379   6.657   2.869   6.009  0.0808 -0.6111 -0.4890
 9963TIP3    H151380   6.719   2.940   6.018  0.3593 -0.7101 -1.5145
 9963TIP3    H251381   6.660   2.823   6.093 -0.2725  0.6976  0.2708
 9964TIP3   OH251382   2.934   3.118  12.575 -0.6346  0.3139  0.3033
 9964TIP3    H151383   2.983   3.189  12.534  0.1728  0.2008  1.0508
 9964TIP3    H251384   2.945   3.132  12.669 -0.1984 -0.9607  0.4602
 9965TIP3   OH251385   3.774   2.788  12.684  0.0787  0.5134  0.1633
 9965TIP3    H151386   3.849   2.810  12.629  0.0290 -0.0371 -0.1263
 9965TIP3    H251387   3.801   2.814  12.772  0.7727 -0.0471  0.1268
 9966TIP3   OH251388   6.535   6.575   1.442  0.9952 -0.0509  0.1347
 9966TIP3    H151389   6.456   6.587   1.390 -0.2652 -1.3447  1.6602
 9966TIP3    H251390   6.603   6.621   1.393 -0.0843 -1.2364 -2.6967
 9967TIP3   OH251391   2.227   6.561   5.680  0.1640 -0.0503  0.5034
 9967TIP3    H151392   2.265   6.634   5.728  4.2059 -1.3238 -0.3559
 9967TIP3    H251393   2.218   6.593   5.590  0.0961 -0.0153  0.5226
 9968TIP3   OH251394   5.409   2.608  11.148 -0.5364 -0.0976  0.1220
 9968TIP3    H151395   5.492   2.654  11.155 -0.4126 -0.0750 -1.3103
 9968TIP3    H251396   5.433   2.520  11.119 -1.0681  0.2380 -1.4146
 9969TIP3   OH251397   3.131   0.762   2.613 -0.1124 -0.3598 -0.7073
 9969TIP3    H151398   3.056   0.790   2.665 -1.3429 -1.5854 -1.7170
 9969TIP3    H251399   3.169   0.689   2.662 -0.4735 -0.6665 -0.8767
 9970TIP3   OH251400   5.218   0.736  16.560  0.0689 -0.2658  0.4427
 9970TIP3    H151401   5.159   0.702  16.627  2.0307 -0.2237  2.2995
 9970TIP3    H251402   5.208   0.831  16.566 -0.6813 -0.2908 -0.2451
 9971TIP3   OH251403   5.286   2.307  15.817 -0.2813 -0.2242 -0.2241
 9971TIP3    H151404   5.288   2.280  15.909  3.5471 -2.0121 -0.6540
 9971TIP3    H251405   5.248   2.232  15.771 -1.7875  0.4991 -0.2367
 9972TIP3   OH251406   3.262   0.676  12.031 -0.1985  0.3304  0.0783
 9972TIP3    H151407   3.184   0.631  11.999 -0.6309  0.7532  0.5205
 9972TIP3    H251408   3.235   0.767  12.041  1.3884  1.3009 -3.2894
 9973TIP3   OH251409   0.704   3.105   2.682 -0.0209 -0.1843  0.4414
 9973TIP3    H151410   0.708   3.200   2.694  0.5788 -0.2912  1.2476
 9973TIP3    H251411   0.770   3.086   2.615  0.0300 -0.0468  0.4524
 9974TIP3   OH251412   3.489   0.985   4.397  0.3532  0.0414  0.1702
 9974TIP3    H151413   3.481   0.937   4.479  2.4097  2.2102  1.7562
 9974TIP3    H251414   3.408   0.965   4.350 -1.1522 -0.8931  2.9383
 9975TIP3   OH251415   2.818   2.081   2.775 -0.0977 -0.5071 -0.3137
 9975TIP3    H151416   2.831   2.130   2.856 -2.3575  2.9551 -1.8182
 9975TIP3    H251417   2.729   2.048   2.781 -1.6973  2.8393 -2.6097
 9976TIP3   OH251418   4.868   0.478  11.752 -0.1497  0.3430  0.3898
 9976TIP3    H151419   4.840   0.419  11.682 -0.8670  1.0938  0.0315
 9976TIP3    H251420   4.852   0.429  11.833 -1.7327  0.4343  0.1453
 9977TIP3   OH251421   3.253   0.231  16.517  0.3434 -0.2096 -0.1671
 9977TIP3    H151422   3.347   0.219  16.532  0.4728  0.2309 -0.6164
 9977TIP3    H251423   3.226   0.293  16.585  0.4148 -0.1734 -0.1728
 9978TIP3   OH251424   6.209   6.544   0.373  0.4726  0.0401 -0.4097
 9978TIP3    H151425   6.180   6.474   0.432 -2.0468 -1.1078 -2.8060
 9978TIP3    H251426   6.130   6.573   0.329  1.6588  3.5630 -0.5424
 9979TIP3   OH251427   6.764   6.138   5.286 -0.5860  0.2817  0.3336
 9979TIP3    H151428   6.844   6.088   5.267 -0.9620  0.0496 -0.7176
 9979TIP3    H251429   6.785   6.187   5.366  0.4983 -0.0087  0.2489
 9980TIP3   OH251430   3.287   5.631   3.212 -0.3276 -0.1439 -0.1502
 9980TIP3    H151431   3.330   5.611   3.129  0.3694 -0.7539  0.3480
 9980TIP3    H251432   3.292   5.550   3.262 -2.2931 -0.3108 -0.1639
 9981TIP3   OH251433   5.936   3.325   3.099  0.3501  0.2814 -0.1128
 9981TIP3    H151434   5.969   3.285   3.180 -2.5279  1.6348  1.8956
 9981TIP3    H251435   5.909   3.251   3.045 -0.8379 -0.6574  1.6727
 9982TIP3   OH251436   4.022   3.084  15.517 -0.4003 -0.4468  0.1166
 9982TIP3    H151437   3.999   3.043  15.600  0.0469 -0.5202  0.2096
 9982TIP3    H251438   3.960   3.155  15.506  0.2124  0.2539  1.0480
 9983TIP3   OH251439   5.757   3.869  12.060 -0.2189 -0.4072  0.0778
 9983TIP3    H151440   5.684   3.807  12.066 -0.7824  0.2707  0.3068
 9983TIP3    H251441   5.820   3.837  12.125 -1.5489  0.6063  1.9505
 9984TIP3   OH251442   4.711   6.776  15.684  0.4576 -0.4122  0.8169
 9984TIP3    H151443   4.764   6.830  15.743  0.5388 -0.9115  1.2159
 9984TIP3    H251444   4.651   6.837  15.642  2.4829  0.4700 -0.9675
 9985TIP3   OH251445   3.247   5.593  14.961 -0.7526  0.7583 -0.0173
 9985TIP3    H151446   3.163   5.618  15.000 -1.3780  0.9707 -1.4226
 9985TIP3    H251447   3.244   5.631  14.873  0.0039 -0.8695 -0.7863
 9986TIP3   OH251448   2.785   5.414  17.052 -0.7082 -0.7657  0.3980
 9986TIP3    H151449   2.736   5.334  17.032  0.7990 -1.2570 -1.7446
 9986TIP3    H251450   2.765   5.473  16.980  0.0859 -0.1529  0.6685
 9987TIP3   OH251451   0.679   4.173   3.273  0.0350 -0.5346 -0.0452
 9987TIP3    H151452   0.641   4.087   3.258 -0.7949  0.0652 -1.6038
 9987TIP3    H251453   0.615   4.234   3.237  0.5601  0.7486  1.1181
 9988TIP3   OH251454   1.541   3.836  10.507 -0.2072  0.0060 -0.5786
 9988TIP3    H151455   1.611   3.794  10.558  0.2271  0.3768 -0.8581
 9988TIP3    H251456   1.545   3.928  10.534  0.6520  0.3953 -1.9601
 9989TIP3   OH251457   0.757   1.811   4.121 -0.2434 -0.5450  0.2194
 9989TIP3    H151458   0.786   1.742   4.180  0.4674  0.2041  0.7737
 9989TIP3    H251459   0.827   1.877   4.125 -1.1868  0.4869  0.1907
 9990TIP3   OH251460   5.682   5.876   2.796 -0.2072 -0.2166  0.3444
 9990TIP3    H151461   5.611   5.900   2.736 -0.8628 -0.2963  1.0812
 9990TIP3    H251462   5.643   5.813   2.856 -0.5746  2.3507  3.0160
 9991TIP3   OH251463   5.560   3.796  13.235 -0.1592 -0.5222 -0.0861
 9991TIP3    H151464   5.632   3.840  13.281 -0.8836  2.1403 -1.2586
 9991TIP3    H251465   5.485   3.806  13.293 -0.3553 -0.0290 -0.4133
 9992TIP3   OH251466   6.563   4.451   2.414  0.4249  0.3462  0.0632
 9992TIP3    H151467   6.567   4.368   2.366  1.1006 -0.0075  0.7067
 9992TIP3    H251468   6.503   4.505   2.363  0.1746 -0.4462 -0.5077
 9993TIP3   OH251469   1.480   1.906   5.252 -0.1253 -0.0941 -0.4650
 9993TIP3    H151470   1.472   1.977   5.188  2.6452  1.1505  0.4182
 9993TIP3    H251471   1.413   1.925   5.318 -1.6499 -0.2542 -1.9149
 9994TIP3   OH251472   4.142   1.357   3.894  0.1280 -0.3593 -0.1977
 9994TIP3    H151473   4.153   1.364   3.799 -2.3213  0.7045 -0.4560
 9994TIP3    H251474   4.202   1.423   3.930 -0.0859  0.3415 -1.0935
 9995TIP3   OH251475   6.612   2.493   5.933  0.3313 -0.3309  0.3543
 9995TIP3    H151476   6.626   2.410   5.888 -1.3659  1.5643 -4.3834
 9995TIP3    H251477   6.696   2.539   5.924 -0.2974  0.4795 -2.3569
 9996TIP3   OH251478   3.416   6.670   1.725  0.3222  0.6438  0.0913
 9996TIP3    H151479   3.474   6.674   1.801 -1.5982  0.9044  1.6310
 9996TIP3    H251480   3.351   6.739   1.741 -0.7290  0.0199 -1.2527
 9997TIP3   OH251481   1.057   3.024   4.894  0.3302  0.5977 -0.1980
 9997TIP3    H151482   1.109   3.071   4.829  0.1077  3.1738  1.3631
 9997TIP3    H251483   1.121   2.971   4.942  0.7355 -0.0120 -1.3748
 9998TIP3   OH251484   3.783   1.066   5.811 -0.0483 -0.6530  0.3039
 9998TIP3    H151485   3.771   1.148   5.858 -4.0583 -1.2471  0.6249
 9998TIP3    H251486   3.809   1.003   5.878 -1.0272 -0.4779  0.8649
 9999TIP3   OH251487   3.218   3.298   1.397  0.3556 -0.0844  0.2385
 9999TIP3    H151488   3.138   3.351   1.402 -0.7334 -1.6160 -0.4058
 9999TIP3    H251489   3.243   3.285   1.488 -0.7792 -0.5083  0.5119
10000TIP3   OH251490   4.744   1.603   3.792  0.3247 -0.5721 -0.1404
10000TIP3    H151491   4.652   1.621   3.778  0.3788 -0.5082 -0.4168
10000TIP3    H251492   4.780   1.588   3.704  1.3379  2.8779 -0.4438
10001TIP3   OH251493   0.162   4.497  15.342  0.5763 -0.3411  0.7479
10001TIP3    H151494   0.083   4.535  15.380  0.2387 -0.0762 -0.1667
10001TIP3    H251495   0.229   4.566  15.353  0.1628  0.2409 -0.2150
10002TIP3   OH251496   2.931   0.528  13.443 -0.1480  0.2151 -0.3661
10002TIP3    H151497   2.879   0.566  13.514 -0.1028 -1.3714  0.5728
10002TIP3    H251498   2.968   0.604  13.397  0.2604  1.3163  1.6299
10003TIP3   OH251499   3.837   4.671   3.327 -0.5701 -0.1500 -0.5181
10003TIP3    H151500   3.852   4.617   3.249 -1.2165 -1.0043 -0.0651
10003TIP3    H251501   3.768   4.625   3.375 -1.1865  1.1235 -0.1524
10004TIP3   OH251502   5.524   2.591  14.655 -0.1193  0.2777 -0.6745
10004TIP3    H151503   5.598   2.651  14.651 -0.8732  1.3815  0.8981
10004TIP3    H251504   5.515   2.558  14.566  0.3381  2.5268 -1.6257
10005TIP3   OH251505   0.240   2.146  13.209  0.3602 -0.0606  0.4937
10005TIP3    H151506   0.202   2.082  13.148  0.3858  0.9056 -0.5728
10005TIP3    H251507   0.173   2.214  13.218  0.8328  0.3997  0.5930
10006TIP3   OH251508   2.420   6.090   1.279  0.2164  0.0606  0.6883
10006TIP3    H151509   2.490   6.080   1.344 -0.5669 -1.8261  1.2974
10006TIP3    H251510   2.348   6.129   1.327  0.9832  2.6369 -0.0930
10007TIP3   OH251511   3.449   6.598   3.858  0.2617  0.0787  0.5562
10007TIP3    H151512   3.486   6.547   3.930 -0.5852  1.2735  1.9049
10007TIP3    H251513   3.453   6.689   3.888  2.0795  0.9431 -1.9209
10008TIP3   OH251514   4.215   5.272  14.997  0.0210  0.1920  0.3066
10008TIP3    H151515   4.129   5.306  14.972  0.2472  0.5617  0.0237
10008TIP3    H251516   4.276   5.312  14.934  0.1759 -1.4982 -0.6850
10009TIP3   OH251517   2.906   3.679  12.057  0.8623  0.2353  0.2847
10009TIP3    H151518   2.923   3.738  12.131 -0.6556  1.5110 -0.3349
10009TIP3    H251519   2.993   3.647  12.031  1.6953  1.9318  0.8669
10010TIP3   OH251520   0.752   3.109  12.251  0.4757  0.2382  0.6302
10010TIP3    H151521   0.796   3.129  12.168  0.3092 -0.6258  0.3207
10010TIP3    H251522   0.769   3.185  12.307  0.6179  0.8153 -0.1851
10011TIP3   OH251523   6.328   3.581  17.104 -0.2409  0.3382  0.6782
10011TIP3    H151524   6.248   3.612  17.147 -1.3976  0.2244 -1.2611
10011TIP3    H251525   6.297   3.536  17.025  1.7889  2.2805 -1.3904
10012TIP3   OH251526   4.718   1.105  10.514 -0.3710 -0.0743 -0.1123
10012TIP3    H151527   4.765   1.088  10.596  1.4551 -0.8396 -1.2639
10012TIP3    H251528   4.627   1.119  10.542  0.1733 -0.3656  2.0327
10013TIP3   OH251529   2.367   2.704  17.032 -0.5211  0.0072 -0.1555
10013TIP3    H151530   2.291   2.670  17.080 -2.0672  0.0762 -2.3987
10013TIP3    H251531   2.346   2.796  17.017  1.6022  0.9415  2.0346
10014TIP3   OH251532   2.518   4.552   4.512  0.2049  0.0227 -0.1298
10014TIP3    H151533   2.568   4.621   4.556  0.1254  0.2941 -0.4606
10014TIP3    H251534   2.523   4.477   4.571 -2.5914  1.3063  2.0156
10015TIP3   OH251535   4.920   3.670  17.222 -0.9121 -0.5058  0.1130
10015TIP3    H151536   4.966   3.752  17.238 -3.0359  0.8283 -0.2298
10015TIP3    H251537   4.990   3.605  17.211  0.8473  1.3719 -0.4000
10016TIP3   OH251538   4.991   6.252  13.190  0.1725 -0.1902  0.3981
10016TIP3    H151539   4.957   6.181  13.137  0.7908 -1.5196  1.7015
10016TIP3    H251540   5.085   6.251  13.174  0.2950 -0.2647  1.0912
10017TIP3   OH251541   4.245   3.902   0.910 -1.0719 -0.7468  0.4543
10017TIP3    H151542   4.223   3.827   0.854 -1.5754 -0.0145 -0.3556
10017TIP3    H251543   4.293   3.961   0.853  2.1275 -1.7527  1.8746
10018TIP3   OH251544   0.906   1.989  14.259  0.3167  0.2833 -0.1797
10018TIP3    H151545   0.936   2.013  14.171  0.5042 -1.9810 -0.7817
10018TIP3    H251546   0.987   1.983  14.310  0.6502 -2.2327 -0.8882
10019TIP3   OH251547   3.497   3.519   4.505  0.2059 -0.3533  0.2950
10019TIP3    H151548   3.444   3.442   4.525  0.8361 -0.4063  1.9168
10019TIP3    H251549   3.577   3.485   4.468  1.0878 -0.6472  2.3166
10020TIP3   OH251550   6.516   6.678  13.670  0.2855  0.4726 -0.3711
10020TIP3    H151551   6.588   6.734  13.642  0.2332  0.8277  0.1914
10020TIP3    H251552   6.471   6.728  13.738 -0.2993  0.1217 -0.4865
10021TIP3   OH251553   3.626   2.413  12.184 -1.0017  0.1172  0.6104
10021TIP3    H151554   3.715   2.440  12.159 -0.7129 -1.1211  0.2382
10021TIP3    H251555   3.593   2.486  12.237 -0.4081  1.3524 -0.6527
10022TIP3   OH251556   5.491   2.737   5.359  0.0986  0.6306 -0.4904
10022TIP3    H151557   5.447   2.653   5.376  0.0294  0.6716 -0.4686
10022TIP3    H251558   5.500   2.778   5.445 -2.1343  1.7858 -0.7443
10023TIP3   OH251559   0.834   1.992   5.114 -0.1933 -0.2600 -0.0328
10023TIP3    H151560   0.878   2.057   5.169  1.2061 -0.9194 -0.3250
10023TIP3    H251561   0.749   2.031   5.094  1.1488  2.2019 -1.4766
10024TIP3   OH251562   4.189   0.439   2.333  0.8230 -0.0604 -0.1534
10024TIP3    H151563   4.263   0.408   2.280  0.6629  0.3211 -0.6056
10024TIP3    H251564   4.229   0.493   2.401  1.0690 -0.9155  0.3948
10025TIP3   OH251565   1.198   0.927  11.795 -0.3513 -0.4235 -0.1929
10025TIP3    H151566   1.232   0.898  11.879  3.4217  3.0530 -0.2044
10025TIP3    H251567   1.230   0.862  11.732  0.0885 -1.0597  0.6754
10026TIP3   OH251568   4.514   0.564   3.988 -0.0052 -0.5492 -0.0382
10026TIP3    H151569   4.431   0.561   3.941  0.4365 -0.5099 -0.8461
10026TIP3    H251570   4.542   0.473   3.995  1.4675 -0.4005 -2.7234
10027TIP3   OH251571   4.031   0.153  11.649  0.1474 -0.2199  0.3498
10027TIP3    H151572   4.003   0.243  11.661  1.5803  0.2582  0.2218
10027TIP3    H251573   3.989   0.105  11.721  1.8217  1.0912  2.2779
10028TIP3   OH251574   5.555   2.362  15.168  0.7397  0.1013 -0.7490
10028TIP3    H151575   5.476   2.331  15.124  0.1885  0.0112  0.2750
10028TIP3    H251576   5.528   2.443  15.212  0.9975 -0.3515  0.2607
10029TIP3   OH251577   2.357   1.871  14.417  0.7104 -0.4872  0.0378
10029TIP3    H151578   2.336   1.961  14.444 -0.3844 -0.1694 -1.7747
10029TIP3    H251579   2.346   1.819  14.497  0.7636  0.8784  0.9716
10030TIP3   OH251580   1.269   3.373  12.404 -0.1220 -0.3264 -0.5081
10030TIP3    H151581   1.281   3.468  12.399  0.4363 -0.3986 -0.6151
10030TIP3    H251582   1.180   3.361  12.438 -0.8739  0.2362 -2.1743
10031TIP3   OH251583   5.546   3.722  17.276 -0.5601  0.2038  0.6169
10031TIP3    H151584   5.615   3.666  17.311 -0.0237  0.1588 -0.4598
10031TIP3    H251585   5.480   3.661  17.244  0.0960  0.1465 -0.7006
10032TIP3   OH251586   6.707   4.145   0.782  0.1257 -0.0284  0.6736
10032TIP3    H151587   6.776   4.203   0.815  1.3090 -0.4174 -1.0222
10032TIP3    H251588   6.739   4.057   0.800  0.0220 -0.2124 -0.0306
10033TIP3   OH251589   4.167   2.852   1.780 -0.8146 -0.0148 -0.2382
10033TIP3    H151590   4.083   2.878   1.741 -1.4881 -1.8218 -0.1048
10033TIP3    H251591   4.233   2.882   1.718 -1.5276  1.6436 -0.2346
10034TIP3   OH251592   6.330   6.566   5.320 -0.1792 -0.1964 -0.8890
10034TIP3    H151593   6.339   6.475   5.292  1.0807 -0.5413  0.5368
10034TIP3    H251594   6.415   6.605   5.303 -0.1414  0.2212  0.2007
10035TIP3   OH251595   2.907   5.128   1.822 -0.3248 -0.4964  0.0461
10035TIP3    H151596   2.929   5.218   1.846 -0.4323 -0.0949 -1.3067
10035TIP3    H251597   2.862   5.093   1.899 -1.4826  1.0445  0.1131
10036TIP3   OH251598   2.019   1.524  11.158  0.7346 -0.1221 -0.4026
10036TIP3    H151599   2.028   1.502  11.251 -1.7251  0.5319  0.0424
10036TIP3    H251600   2.001   1.440  11.115  0.1860 -0.1906 -0.0398
10037TIP3   OH251601   4.655   3.070   1.057 -0.0639  0.3294  0.2499
10037TIP3    H151602   4.706   3.056   0.977 -0.7946 -0.0961 -0.1477
10037TIP3    H251603   4.567   3.089   1.026 -1.0487 -2.5733  0.9590
10038TIP3   OH251604   2.975   6.139   2.411  0.0811 -0.1716  0.3456
10038TIP3    H151605   3.050   6.080   2.397  0.5490  0.4444  0.1845
10038TIP3    H251606   2.988   6.174   2.499  1.1983  1.5834 -0.4537
10039TIP3   OH251607   3.488   1.624  15.783 -0.0383 -0.5772 -0.1191
10039TIP3    H151608   3.555   1.645  15.848  0.7555 -1.4339 -0.6213
10039TIP3    H251609   3.532   1.562  15.724 -1.3080 -1.2068 -0.4217
10040TIP3   OH251610   4.852   2.305   5.647  0.1579 -0.0601  0.2086
10040TIP3    H151611   4.794   2.301   5.722 -0.3195  1.0705 -0.0757
10040TIP3    H251612   4.819   2.239   5.587 -1.4592  1.2000 -0.3539
10041TIP3   OH251613   3.984   4.899  17.034 -0.9557 -0.5751  0.0653
10041TIP3    H151614   4.059   4.851  17.070  0.6414  1.0921 -0.8632
10041TIP3    H251615   3.952   4.844  16.963 -0.7093 -1.3729  0.5594
10042TIP3   OH251616   1.011   0.699  15.277  0.0341  0.3771 -0.1727
10042TIP3    H151617   1.079   0.738  15.332 -0.6908 -0.3554  1.3036
10042TIP3    H251618   0.933   0.751  15.295 -0.9539 -1.6336  1.8476
10043TIP3   OH251619   0.165   1.642  15.764  0.5082  0.5403 -0.7021
10043TIP3    H151620   0.114   1.694  15.826  1.5708  0.8320 -0.0372
10043TIP3    H251621   0.256   1.669  15.780  1.3062 -2.5093  0.7103
10044TIP3   OH251622   2.430   2.866   3.257 -0.1519 -0.3442  0.4254
10044TIP3    H151623   2.477   2.787   3.231  1.3509  0.4829  0.5449
10044TIP3    H251624   2.469   2.891   3.341 -1.6046 -0.2566  1.1152
10045TIP3   OH251625   3.641   6.372   0.107  0.1771 -0.2374 -0.2854
10045TIP3    H151626   3.685   6.389   0.024 -0.6826  0.7664 -0.5485
10045TIP3    H251627   3.713   6.351   0.168  1.0157  1.0975 -0.7673
10046TIP3   OH251628   2.086   5.863   0.781 -0.4822  0.3939 -0.2066
10046TIP3    H151629   2.139   5.784   0.790 -1.3089 -0.3792 -1.6523
10046TIP3    H251630   2.139   5.921   0.726 -0.6974  0.0060 -0.8447
10047TIP3   OH251631   5.186   3.179   4.047 -0.0587 -0.3300 -0.0304
10047TIP3    H151632   5.267   3.129   4.040 -0.3368 -0.8445  0.3285
10047TIP3    H251633   5.141   3.164   3.963  0.1596 -0.1432 -0.1803
10048TIP3   OH251634   1.645   5.568   5.107 -0.1955  0.2893 -0.3687
10048TIP3    H151635   1.579   5.635   5.090 -0.8381 -0.4014 -0.6682
10048TIP3    H251636   1.691   5.599   5.185 -1.0904  0.6303  0.0385
10049TIP3   OH251637   5.441   5.803  12.769 -0.1401  0.4277 -0.5692
10049TIP3    H151638   5.347   5.808  12.755 -0.1652  1.4840 -0.1617
10049TIP3    H251639   5.476   5.768  12.687 -0.9422 -0.7296 -0.4395
10050TIP3   OH251640   5.927   4.762   3.771  0.3610  0.2361 -0.7192
10050TIP3    H151641   5.887   4.784   3.687  2.5536  1.5505 -1.5085
10050TIP3    H251642   6.001   4.823   3.779  1.1110 -0.8516  1.4662
10051TIP3   OH251643   1.544   1.232   0.695  0.5977 -0.7608  0.0749
10051TIP3    H151644   1.503   1.318   0.700 -0.0512 -1.0957  0.6941
10051TIP3    H251645   1.627   1.247   0.649  0.9496  0.3483  1.0406
10052TIP3   OH251646   1.631   2.229   4.915 -0.3422 -0.4467 -0.2142
10052TIP3    H151647   1.624   2.287   4.839  3.5427 -1.7509 -1.8014
10052TIP3    H251648   1.592   2.147   4.886  0.9880 -0.8916 -0.8152
10053TIP3   OH251649   4.256   3.458  11.103 -0.6345  0.2920 -0.3911
10053TIP3    H151650   4.344   3.484  11.076  0.3025 -2.4395 -0.2217
10053TIP3    H251651   4.259   3.363  11.109 -3.1769  0.2074  1.1873
10054TIP3   OH251652   2.270   6.025  12.089 -0.6845  0.4077  0.5902
10054TIP3    H151653   2.241   6.091  12.025 -1.1902  0.5611  0.9723
10054TIP3    H251654   2.363   6.012  12.069 -0.2401  2.1787  1.3153
10055TIP3   OH251655   3.570   5.030   3.871  0.6190  0.0589  0.1359
10055TIP3    H151656   3.646   5.083   3.850 -0.4501  1.0557 -1.3827
10055TIP3    H251657   3.527   5.014   3.787 -0.0041 -1.8425  0.7477
10056TIP3   OH251658   0.724   2.095   2.298  0.5321 -0.3949  0.1483
10056TIP3    H151659   0.787   2.167   2.293 -1.4372  1.4540  0.6821
10056TIP3    H251660   0.771   2.025   2.344  1.8675  1.2875  1.4595
10057TIP3   OH251661   0.173   6.185   4.674 -0.1688 -0.1168 -0.3302
10057TIP3    H151662   0.184   6.162   4.582  0.2008 -1.7000  0.0779
10057TIP3    H251663   0.236   6.131   4.720 -0.4710  0.5207  0.8876
10058TIP3   OH251664   1.915   1.208   2.628  1.0382 -0.3012 -0.0697
10058TIP3    H151665   1.879   1.276   2.571  1.6588  0.2107  0.1391
10058TIP3    H251666   1.884   1.126   2.589  1.9315 -0.0020 -1.5035
10059TIP3   OH251667   3.701   4.027  11.805  0.4729  0.1763  0.7394
10059TIP3    H151668   3.747   4.082  11.869  0.2067  0.1172  0.9827
10059TIP3    H251669   3.753   3.948  11.801  1.1931  0.6789 -0.0586
10060TIP3   OH251670   2.304   0.506   2.322  0.1596 -0.0671  0.6184
10060TIP3    H151671   2.392   0.502   2.285  0.0786  0.0061  0.4176
10060TIP3    H251672   2.247   0.519   2.246  0.0650  0.9152  0.8516
10061TIP3   OH251673   1.259   2.103  11.323  0.1049 -0.0706 -0.0843
10061TIP3    H151674   1.223   2.137  11.405  0.5773  0.2567 -0.0107
10061TIP3    H251675   1.286   2.014  11.344 -0.0587 -0.0926  0.0341
10062TIP3   OH251676   1.752   5.409   5.825 -0.1941 -0.2253  0.4189
10062TIP3    H151677   1.691   5.355   5.876 -1.7168  0.8508 -0.1914
10062TIP3    H251678   1.807   5.346   5.779  0.0267 -1.2293  1.9844
10063TIP3   OH251679   6.327   2.460   1.538  0.1724 -0.3331 -0.2880
10063TIP3    H151680   6.391   2.396   1.568  0.4326  0.0600 -0.0040
10063TIP3    H251681   6.327   2.528   1.606 -0.5339 -0.3231 -0.2858
10064TIP3   OH251682   2.161   0.390  12.161  1.1485 -0.4700  0.0725
10064TIP3    H151683   2.075   0.376  12.121  0.6818 -0.5070  1.0617
10064TIP3    H251684   2.212   0.312  12.137  0.5964 -0.8948  0.2618
10065TIP3   OH251685   2.224   1.000   2.237 -0.2981 -0.0345 -0.0930
10065TIP3    H151686   2.131   0.978   2.245 -0.5291  0.4048 -1.3724
10065TIP3    H251687   2.229   1.054   2.158  1.0087  0.1752  0.1152
10066TIP3   OH251688   6.703   0.028  15.444 -0.2224 -0.5447 -0.3720
10066TIP3    H151689   6.736   0.070  15.365 -0.8619  1.0458  0.1592
10066TIP3    H251690   6.766  -0.042  15.463  0.3743 -0.4221 -1.8067
10067TIP3   OH251691   2.435   4.131  14.430  0.1128 -0.9989 -0.0528
10067TIP3    H151692   2.527   4.153  14.445 -0.0906  0.0411 -0.2900
10067TIP3    H251693   2.386   4.208  14.460 -0.9313 -2.6425  2.9275
10068TIP3   OH251694   6.337   5.394  14.914  0.0380  0.5625 -0.3810
10068TIP3    H151695   6.379   5.478  14.895 -1.2949  0.9447 -1.8340
10068TIP3    H251696   6.257   5.417  14.961 -0.0755  0.0727 -0.3279
10069TIP3   OH251697   3.943   5.876   4.541  0.1306  0.0681  0.4081
10069TIP3    H151698   3.878   5.811   4.564 -0.0197  0.4103  0.9449
10069TIP3    H251699   3.893   5.948   4.502  0.3550 -0.4080 -0.8297
10070TIP3   OH251700   2.243   6.489   0.904  0.1726  0.3625  0.0486
10070TIP3    H151701   2.230   6.475   0.998  1.3075  0.7774  0.2790
10070TIP3    H251702   2.337   6.499   0.894 -0.0920  2.6112 -0.8134
10071TIP3   OH251703   0.433   2.865   4.048 -0.3587 -0.1661 -0.6851
10071TIP3    H151704   0.369   2.800   4.077 -0.6798  1.0610  1.5623
10071TIP3    H251705   0.391   2.949   4.064  1.8170  0.6888  0.9766
10072TIP3   OH251706   0.264   0.095  12.278  0.1957 -0.5779 -0.6005
10072TIP3    H151707   0.255   0.044  12.358 -0.6422 -1.7641 -1.4183
10072TIP3    H251708   0.177   0.131  12.262  0.8839  1.6395  0.2539
10073TIP3   OH251709   2.597   1.136  14.109 -0.0936 -0.1256  0.2683
10073TIP3    H151710   2.679   1.161  14.068 -1.1609 -0.0345 -1.9243
10073TIP3    H251711   2.597   1.040  14.107 -0.1532 -0.1202  0.0617
10074TIP3   OH251712   2.961   6.351  13.849 -0.0102  0.1259  0.3474
10074TIP3    H151713   2.916   6.401  13.781  0.4363  1.4230  0.9561
10074TIP3    H251714   3.054   6.373  13.837 -0.1431  3.3417  3.5130
10075TIP3   OH251715   4.746   5.638  16.068  0.2254  0.0622  0.3456
10075TIP3    H151716   4.731   5.568  16.003 -2.1154  2.3290 -1.7608
10075TIP3    H251717   4.840   5.633  16.086  0.3131 -3.0048 -0.3712
10076TIP3   OH251718   0.194   4.812  14.109 -0.3681  0.6296 -0.5100
10076TIP3    H151719   0.180   4.767  14.192 -1.3307  0.1888 -0.8935
10076TIP3    H251720   0.126   4.879  14.107  0.0325  1.0355 -0.6779
10077TIP3   OH251721   0.174   3.728   0.985  0.3710  0.4733 -0.0757
10077TIP3    H151722   0.105   3.711   1.049 -0.3899  2.3330 -0.3158
10077TIP3    H251723   0.255   3.725   1.034 -0.2362  2.4211  1.1722
10078TIP3   OH251724   2.760   0.989   2.626 -0.4377  0.9882 -0.0051
10078TIP3    H151725   2.720   0.935   2.695  0.6383 -0.0157 -0.1330
10078TIP3    H251726   2.690   1.001   2.562 -0.0597 -2.7018 -1.3783
10079TIP3   OH251727   0.739   3.153  11.689 -0.3893 -0.2865 -0.1789
10079TIP3    H151728   0.725   3.065  11.724 -0.1297 -0.5724 -0.7879
10079TIP3    H251729   0.714   3.146  11.597  3.4499 -0.7761 -1.3337
10080TIP3   OH251730   2.871   5.717   6.042  0.0464  0.9823 -0.9426
10080TIP3    H151731   2.792   5.692   5.994 -0.0802  1.3777 -0.9418
10080TIP3    H251732   2.943   5.686   5.988 -0.1130 -0.6792 -0.2613
10081TIP3   OH251733   3.629   3.387  11.920  0.2370 -0.3326  0.4390
10081TIP3    H151734   3.550   3.341  11.950  0.9709 -2.0617 -0.1296
10081TIP3    H251735   3.698   3.321  11.925  1.3734  0.7516 -0.3640
10082TIP3   OH251736   0.551   6.215   2.469 -0.0091 -0.3681 -0.5703
10082TIP3    H151737   0.540   6.216   2.564 -1.6217 -1.3403 -0.7087
10082TIP3    H251738   0.644   6.233   2.456  0.1413  0.3219  1.1612
10083TIP3   OH251739   6.501   5.278   1.546 -0.0741  0.5309 -0.0911
10083TIP3    H151740   6.504   5.265   1.641  4.0927 -0.9515 -0.2432
10083TIP3    H251741   6.561   5.351   1.529  1.4687 -1.0368 -1.7360
10084TIP3   OH251742   5.911   1.415   2.195 -0.3127 -0.1670  0.2386
10084TIP3    H151743   5.993   1.366   2.190  0.0575  0.4751 -0.1009
10084TIP3    H251744   5.887   1.413   2.288 -0.2632 -0.9092  0.2398
10085TIP3   OH251745   5.164   0.988  16.635 -0.1529  0.1177  0.5688
10085TIP3    H151746   5.082   1.024  16.601 -0.4739  1.1203  2.2987
10085TIP3    H251747   5.158   0.999  16.730  1.3865 -1.0903  0.8498
10086TIP3   OH251748   6.655   1.189  15.383 -0.3780  0.5816  0.1486
10086TIP3    H151749   6.725   1.135  15.418 -0.0547  0.9674  0.1005
10086TIP3    H251750   6.694   1.275  15.372 -0.2360  0.3045 -1.9064
10087TIP3   OH251751   6.140   4.007   5.291 -0.4186  0.3550 -0.2633
10087TIP3    H151752   6.101   3.920   5.304 -0.8905  0.4795 -0.7914
10087TIP3    H251753   6.126   4.052   5.374 -1.6207  0.4671 -0.4987
10088TIP3   OH251754   1.326   1.084  15.727  0.4194 -0.6114 -0.0360
10088TIP3    H151755   1.294   1.026  15.796 -0.8268  0.7165  0.5363
10088TIP3    H251756   1.248   1.111  15.680  0.9442  0.7382 -0.1706
10089TIP3   OH251757   0.879   2.432   3.527 -0.1646 -0.3138  0.0721
10089TIP3    H151758   0.897   2.464   3.438  0.6138  0.6327  0.5397
10089TIP3    H251759   0.798   2.475   3.552  0.6948  1.0776  0.5659
10090TIP3   OH251760   2.772   0.489  14.176  0.2297  0.2504  0.1996
10090TIP3    H151761   2.794   0.570  14.223 -4.1703  1.6089  0.3881
10090TIP3    H251762   2.773   0.421  14.244  1.7478  0.5386  0.5041
10091TIP3   OH251763   3.225   6.298   5.496  0.2507  0.0854 -0.3575
10091TIP3    H151764   3.132   6.295   5.477 -0.1688  0.2518  1.4271
10091TIP3    H251765   3.264   6.230   5.441 -1.1201 -0.8770 -0.1833
10092TIP3   OH251766   0.734   3.636  13.177  0.7379  0.2036  0.3079
10092TIP3    H151767   0.822   3.647  13.139  0.5446  0.1944 -0.1571
10092TIP3    H251768   0.677   3.624  13.101  0.5971 -1.7955  0.6623
10093TIP3   OH251769   6.429   2.999  14.136 -0.3452 -0.4052 -0.5709
10093TIP3    H151770   6.387   3.080  14.165 -0.4166 -0.1496 -1.3658
10093TIP3    H251771   6.503   2.987  14.195 -2.1444 -1.4782  1.6425
10094TIP3   OH251772   5.605   1.209  16.311  0.1510  0.1420  0.1516
10094TIP3    H151773   5.592   1.209  16.216  0.3862  1.0203  0.1074
10094TIP3    H251774   5.535   1.153  16.344  2.5453 -3.8570 -0.7946
10095TIP3   OH251775   6.430   1.659   6.159  0.4541  0.8613  0.1577
10095TIP3    H151776   6.405   1.724   6.093  0.8354  0.6937 -0.1578
10095TIP3    H251777   6.347   1.617   6.184 -0.0459  2.5639  1.5671
10096TIP3   OH251778   6.659   6.112   6.190  0.1294  0.2016  0.5310
10096TIP3    H151779   6.752   6.099   6.171 -0.2667 -1.9805 -0.1727
10096TIP3    H251780   6.656   6.130   6.284  1.3062  1.2097  0.4022
10097TIP3   OH251781   0.766   3.214  13.050  0.2897 -0.0866  0.1331
10097TIP3    H151782   0.719   3.260  12.980  0.4455  2.1591  1.4090
10097TIP3    H251783   0.708   3.220  13.126  0.2408 -2.2599  0.3245
10098TIP3   OH251784   3.949   3.399   1.630 -0.0815  0.1367 -0.1520
10098TIP3    H151785   3.876   3.347   1.596 -0.9229  1.3074 -0.2191
10098TIP3    H251786   3.912   3.446   1.704  0.4024  1.2560 -0.5936
10099TIP3   OH251787   2.914   0.914   5.004 -0.4360  0.4660  0.1614
10099TIP3    H151788   2.914   0.941   4.912  0.9918  0.6960  0.2123
10099TIP3    H251789   2.923   0.819   5.001 -0.9697  0.4125  0.0685
10100TIP3   OH251790   0.504   3.668   0.066 -0.1688 -0.1888  0.0927
10100TIP3    H151791   0.572   3.733   0.049  0.3126 -0.4694  0.9026
10100TIP3    H251792   0.469   3.692   0.152  1.8467 -2.4881  1.7146
10101TIP3   OH251793   3.210   4.537   2.841  0.4104  0.5486  0.2013
10101TIP3    H151794   3.290   4.566   2.796  0.5461  0.0416  0.1069
10101TIP3    H251795   3.228   4.445   2.863 -0.3974  0.2295 -0.4172
10102TIP3   OH251796   0.635   4.191  13.619 -0.4757  0.3003  0.0591
10102TIP3    H151797   0.653   4.149  13.536 -1.5683 -0.9765  0.4346
10102TIP3    H251798   0.624   4.119  13.681  0.6411  1.2193  1.4064
10103TIP3   OH251799   2.510   4.159   4.008  0.5897  0.0316 -0.1379
10103TIP3    H151800   2.589   4.104   4.003 -0.4552 -1.4407 -3.0134
10103TIP3    H251801   2.485   4.171   3.916 -2.3209  0.7761  0.6747
10104TIP3   OH251802   4.249   4.953  13.327 -0.3532 -0.5138  0.0072
10104TIP3    H151803   4.344   4.955  13.325 -0.3620 -0.4431 -1.8972
10104TIP3    H251804   4.227   4.860  13.329 -0.2488 -0.5385  0.0081
10105TIP3   OH251805   5.838   3.096   6.060 -0.6559  1.2115  0.7673
10105TIP3    H151806   5.806   3.009   6.084 -0.1794  1.5514  2.8147
10105TIP3    H251807   5.927   3.081   6.029 -0.7746  0.9327  0.5469
10106TIP3   OH251808   1.437   1.136  14.877 -0.1409 -0.0382  0.0589
10106TIP3    H151809   1.431   1.073  14.805 -0.3548  1.0882 -0.9397
10106TIP3    H251810   1.504   1.100  14.935 -0.5595 -1.3929 -0.2615
10107TIP3   OH251811   0.788   3.645   5.256  0.2557  0.2953  0.5188
10107TIP3    H151812   0.723   3.707   5.222 -0.0703 -1.2805 -1.9508
10107TIP3    H251813   0.870   3.694   5.256 -0.3188  1.2914  0.4885
10108TIP3   OH251814   3.501   1.134   1.706 -0.0850 -0.6067  0.2446
10108TIP3    H151815   3.493   1.208   1.645  1.3588  1.2626  2.2001
10108TIP3    H251816   3.410   1.109   1.725 -0.6941  1.7051  0.6991
10109TIP3   OH251817   0.855   2.851   6.303  0.3820  0.6698 -0.5319
10109TIP3    H151818   0.879   2.782   6.241 -0.2155 -0.6994  0.7205
10109TIP3    H251819   0.768   2.827   6.333  0.4855  1.5532  0.5297
10110TIP3   OH251820   6.420   3.269  15.480  0.1173  0.4109  0.2073
10110TIP3    H151821   6.437   3.291  15.388  0.6739 -0.8940 -0.0206
10110TIP3    H251822   6.506   3.261  15.519 -0.0873 -0.3304  0.5212
10111TIP3   OH251823   0.986   2.136   4.895 -0.5204 -0.4418  0.2105
10111TIP3    H151824   0.927   2.084   4.949 -0.0013 -0.1847  1.0339
10111TIP3    H251825   0.933   2.210   4.865 -1.4130 -1.6554 -1.3810
10112TIP3   OH251826   3.322   3.317  14.454 -0.1881  0.4835 -0.5669
10112TIP3    H151827   3.389   3.253  14.432 -0.9786  0.0727 -1.9385
10112TIP3    H251828   3.312   3.369  14.375 -1.2892  0.7070 -0.2997
10113TIP3   OH251829   0.523   2.184  12.932  0.5457  0.4836  0.1009
10113TIP3    H151830   0.583   2.209  12.862 -0.0272 -2.1436 -1.4444
10113TIP3    H251831   0.581   2.161  13.005  1.2494  1.1008 -0.2451
10114TIP3   OH251832   6.642   6.707   5.692 -0.2512 -0.1362 -0.4328
10114TIP3    H151833   6.716   6.747   5.738  0.2599  1.8926 -2.7928
10114TIP3    H251834   6.658   6.613   5.699  2.0552  0.2183 -0.0928
10115TIP3   OH251835   1.912   2.750  14.444  0.2190 -0.5393  0.4393
10115TIP3    H151836   1.825   2.775  14.413  0.5126  0.1011  0.1163
10115TIP3    H251837   1.920   2.657  14.421 -0.2168 -0.4971  0.1031
10116TIP3   OH251838   2.470   2.978  14.746  0.0823 -0.3406 -0.0567
10116TIP3    H151839   2.554   2.932  14.740  0.1490 -0.5556  1.9167
10116TIP3    H251840   2.489   3.065  14.709  0.8763 -0.7257 -0.6078
10117TIP3   OH251841   3.910   0.930   6.732 -0.4218  0.5587 -0.3534
10117TIP3    H151842   3.973   0.895   6.795  0.3703  0.0845 -1.3841
10117TIP3    H251843   3.963   0.985   6.674 -0.6755 -1.0229 -2.1485
10118TIP3   OH251844   0.875   5.809  15.912 -0.1635 -0.5928 -0.2068
10118TIP3    H151845   0.862   5.896  15.875  0.9205 -0.1034  0.5152
10118TIP3    H251846   0.969   5.792  15.902  0.4442  0.0149  3.1700
10119TIP3   OH251847   5.906   3.708  13.717  0.5318 -0.1512 -0.0881
10119TIP3    H151848   5.979   3.769  13.724  0.2136  0.5117 -1.8855
10119TIP3    H251849   5.905   3.661  13.801  1.9649  0.9736  0.5999
10120TIP3   OH251850   1.173   5.445  17.208 -0.0444 -0.3923 -0.0522
10120TIP3    H151851   1.241   5.485  17.154  0.5068 -0.0440  0.8771
10120TIP3    H251852   1.173   5.353  17.181 -1.6561  0.2335 -2.5517
10121TIP3   OH251853   2.909   3.786   3.749  0.2525  0.2971 -0.5193
10121TIP3    H151854   3.003   3.764   3.754  0.4075  0.0239 -3.2691
10121TIP3    H251855   2.875   3.730   3.680 -1.8907  0.7062  0.1285
10122TIP3   OH251856   6.775   4.426   1.391 -0.5554  0.0125 -0.8892
10122TIP3    H151857   6.810   4.508   1.425  0.5219 -0.0294 -1.8200
10122TIP3    H251858   6.685   4.446   1.366 -1.2536  0.1436  1.5054
10123TIP3   OH251859   2.209   4.728  14.507  0.2042  0.0532 -0.6117
10123TIP3    H151860   2.185   4.795  14.443  0.9649  0.7545 -0.1882
10123TIP3    H251861   2.126   4.694  14.539 -0.2161 -0.9000 -2.5499
10124TIP3   OH251862   3.599   6.205   1.251 -0.3532  0.3741  0.0150
10124TIP3    H151863   3.648   6.283   1.224 -1.9607  1.2555 -0.4435
10124TIP3    H251864   3.544   6.235   1.323 -0.7579 -0.4169  0.0438
10125TIP3   OH251865   1.063   3.271  14.690  0.5042  0.1377 -0.1583
10125TIP3    H151866   1.151   3.271  14.726  0.5741 -1.2819 -0.2676
10125TIP3    H251867   1.019   3.199  14.735 -0.8707  1.3367  0.4888
10126TIP3   OH251868   1.136   0.953  14.914 -0.3218 -0.4591 -0.0754
10126TIP3    H151869   1.120   0.999  14.832  1.5929 -0.8347 -0.7102
10126TIP3    H251870   1.161   1.021  14.976 -0.4501 -0.3196 -0.1788
10127TIP3   OH251871   0.459   4.947   2.041  0.3249 -0.0233 -0.3621
10127TIP3    H151872   0.524   4.900   1.988 -0.0541 -1.2069  0.1877
10127TIP3    H251873   0.510   5.016   2.085  0.5879  1.2294 -2.4843
10128TIP3   OH251874   4.642   4.988  15.685  0.2427  0.2335 -0.3763
10128TIP3    H151875   4.725   5.008  15.643  0.9314 -0.9663  0.3412
10128TIP3    H251876   4.657   5.007  15.778 -0.0531 -0.6414 -0.1420
10129TIP3   OH251877   5.464   0.607  11.474 -0.2777  0.2979  0.1666
10129TIP3    H151878   5.377   0.571  11.459 -1.1734  2.4249 -0.1594
10129TIP3    H251879   5.476   0.602  11.569 -0.8529  0.1874  0.2351
10130TIP3   OH251880   6.809   1.287   2.115 -0.1516  0.1499 -0.1784
10130TIP3    H151881   6.725   1.243   2.099 -0.2101 -0.1045  0.8046
10130TIP3    H251882   6.789   1.380   2.106 -0.7636  0.1467  1.0294
10131TIP3   OH251883   5.248   5.624  11.737 -0.3178  0.5526 -0.1921
10131TIP3    H151884   5.312   5.691  11.762 -0.9754  0.6825  1.2312
10131TIP3    H251885   5.299   5.560  11.686  0.7415  1.1061  0.1408
10132TIP3   OH251886   6.415   3.679  14.084  0.1124 -0.1347 -0.2437
10132TIP3    H151887   6.509   3.693  14.096 -0.0003  0.3080  0.1691
10132TIP3    H251888   6.407   3.648  13.994  0.7194 -0.8616 -0.0548
10133TIP3   OH251889   3.130   4.814  12.110 -0.0292  0.3279  0.3301
10133TIP3    H151890   3.201   4.862  12.068  0.3999  0.8782  1.6384
10133TIP3    H251891   3.053   4.833  12.056  0.5654  0.7255 -0.3945
10134TIP3   OH251892   6.136   1.475  16.441  0.2068 -0.4579  0.0690
10134TIP3    H151893   6.143   1.405  16.376 -1.3155 -0.2794 -0.3380
10134TIP3    H251894   6.211   1.532  16.423  0.3540 -0.9263 -0.9090
10135TIP3   OH251895   0.307   5.865  17.011 -0.0440  0.7216  0.4507
10135TIP3    H151896   0.374   5.917  17.056  0.9370 -0.8577  0.8709
10135TIP3    H251897   0.281   5.799  17.075 -0.8006  0.2925 -0.2858
10136TIP3   OH251898   5.893   5.186   5.588 -0.0067  0.6788 -0.0954
10136TIP3    H151899   5.876   5.205   5.680 -0.3950 -0.8995  0.1877
10136TIP3    H251900   5.967   5.125   5.589 -1.3984 -1.1092 -0.6595
10137TIP3   OH251901   2.785   3.465  12.573 -0.0380 -0.2898 -0.1146
10137TIP3    H151902   2.763   3.557  12.559  0.6239 -0.0406  0.4726
10137TIP3    H251903   2.726   3.437  12.643  0.2156 -0.1361  0.1591
10138TIP3   OH251904   5.141   3.008   2.004  0.7914  0.7281 -0.7698
10138TIP3    H151905   5.127   2.979   2.094 -0.8529  0.6241 -1.0434
10138TIP3    H251906   5.222   3.060   2.008  1.7545 -0.7717  0.4054
10139TIP3   OH251907   3.854   2.174   0.856  0.0420  0.0140  0.6913
10139TIP3    H151908   3.815   2.115   0.921 -1.2678 -1.3089 -1.1772
10139TIP3    H251909   3.809   2.257   0.868  0.6754  0.1730  2.2144
10140TIP3   OH251910   1.106   4.880  16.985  0.3132  0.1175 -0.6491
10140TIP3    H151911   1.163   4.931  17.044  0.5692  0.0026 -0.7993
10140TIP3    H251912   1.114   4.790  17.016  0.9804 -0.0491 -1.2843
10141TIP3   OH251913   3.741   5.510   0.939  0.0505  0.0580 -0.3728
10141TIP3    H151914   3.805   5.495   0.869 -0.1891 -0.5932 -0.4583
10141TIP3    H251915   3.730   5.425   0.980 -0.9317  0.1028 -0.5092
10142TIP3   OH251916   2.451   1.339   2.582 -0.1886  0.8058  0.1642
10142TIP3    H151917   2.356   1.338   2.592 -0.2245 -1.9334  0.2512
10142TIP3    H251918   2.467   1.304   2.495  0.7196 -3.2880  1.7576
10143TIP3   OH251919   3.811   5.478   2.072 -0.3696  0.0646 -0.1347
10143TIP3    H151920   3.784   5.503   2.161 -3.1028 -2.1760 -0.1965
10143TIP3    H251921   3.863   5.553   2.041  1.0708  0.7806  3.4313
10144TIP3   OH251922   5.932   6.655   0.594  0.2304  0.2084 -0.0108
10144TIP3    H151923   5.880   6.734   0.575 -0.0230  0.3608  1.2483
10144TIP3    H251924   5.874   6.600   0.646  0.3898 -0.8582 -0.9215
10145TIP3   OH251925   4.895   1.619   5.779  0.7722 -0.3174  0.3354
10145TIP3    H151926   4.939   1.608   5.864  1.0113  1.5871  0.5050
10145TIP3    H251927   4.851   1.704   5.786  0.9842 -0.0179 -1.5162
10146TIP3   OH251928   0.455   5.794  13.053 -0.1498 -0.0980  0.1395
10146TIP3    H151929   0.423   5.735  12.986  0.4267 -1.1382  0.7572
10146TIP3    H251930   0.550   5.782  13.052 -0.2020 -0.9262  1.8352
10147TIP3   OH251931   4.452   2.064  15.923  0.0940  0.3719  0.3301
10147TIP3    H151932   4.489   2.040  15.838  0.2547  0.7684  0.2872
10147TIP3    H251933   4.381   2.125  15.902 -0.0421  0.2594  0.4632
10148TIP3   OH251934   0.991   1.116   2.547 -0.0881 -0.0902  0.6404
10148TIP3    H151935   0.943   1.194   2.521 -0.2899 -0.7493 -1.0797
10148TIP3    H251936   0.979   1.055   2.475  0.4194 -1.5694  1.7524
10149TIP3   OH251937   4.586   5.347  13.206 -0.0441 -0.3915  0.1130
10149TIP3    H151938   4.546   5.269  13.246  2.4045 -0.6907  2.2298
10149TIP3    H251939   4.572   5.335  13.112 -0.7388 -2.8303  0.4478
10150TIP3   OH251940   4.062   4.515   0.765 -0.8669 -0.1295 -0.0857
10150TIP3    H151941   4.030   4.569   0.836 -1.2929 -1.8085  1.0540
10150TIP3    H251942   3.989   4.510   0.703 -0.9505  0.2956 -0.0214
10151TIP3   OH251943   3.914   3.585   5.004  0.6668  0.2002  0.2804
10151TIP3    H151944   3.833   3.535   4.996  1.6785 -1.5163  0.2687
10151TIP3    H251945   3.950   3.586   4.915  1.8267 -1.1820  0.6945
10152TIP3   OH251946   2.729   4.031  17.118  0.2017 -0.5031  0.5957
10152TIP3    H151947   2.796   3.966  17.139 -0.7243 -1.7963 -0.2856
10152TIP3    H251948   2.650   3.999  17.162 -0.5352 -0.6036 -0.7261
10153TIP3   OH251949   0.076   6.273   3.181 -0.2836  0.4062  0.1260
10153TIP3    H151950  -0.007   6.304   3.217 -0.1720  0.2356  0.5359
10153TIP3    H251951   0.050   6.212   3.112 -0.5001  1.1707 -0.4714
10154TIP3   OH251952   0.353   6.762  16.426  0.0744 -0.0135 -0.2370
10154TIP3    H151953   0.344   6.721  16.512  0.9381 -2.5733 -1.2733
10154TIP3    H251954   0.391   6.848  16.444 -0.2969 -0.2689  1.9677
10155TIP3   OH251955   1.885   1.349  12.272 -0.2178 -0.3631 -0.2751
10155TIP3    H151956   1.932   1.266  12.270 -1.8075 -1.3018  0.0164
10155TIP3    H251957   1.881   1.371  12.366 -0.4719 -0.3509 -0.2891
10156TIP3   OH251958   5.627   1.276  12.973  0.6877 -0.1487 -0.0198
10156TIP3    H151959   5.537   1.273  13.005  0.0763  0.7494 -1.5875
10156TIP3    H251960   5.619   1.277  12.878  2.4053 -1.1696 -0.2138
10157TIP3   OH251961   4.763   3.604  14.949 -0.3930 -0.5643  0.1151
10157TIP3    H151962   4.708   3.528  14.931 -2.4975  0.1651  2.7970
10157TIP3    H251963   4.852   3.570  14.943 -1.1057 -2.2812 -2.4642
10158TIP3   OH251964   1.551   1.499  13.803 -0.2921 -0.1569 -0.2908
10158TIP3    H151965   1.620   1.436  13.824  1.8960  2.5922  1.5218
10158TIP3    H251966   1.480   1.478  13.864 -0.5313 -2.0793 -1.1509
10159TIP3   OH251967   1.365   4.145   0.028  0.6119  0.2126 -0.2054
10159TIP3    H151968   1.435   4.104  -0.024 -0.9541 -1.5784 -0.9876
10159TIP3    H251969   1.298   4.168  -0.036 -1.0910 -1.4608  0.8911
10160TIP3   OH251970   2.541   3.113  11.760 -0.2590 -0.3239  0.3755
10160TIP3    H151971   2.628   3.098  11.723  0.4936 -0.1830  2.0005
10160TIP3    H251972   2.557   3.165  11.838 -1.7979 -0.4683  0.8150
10161TIP3   OH251973   1.426   1.099   0.932 -0.1937  0.2205  0.8070
10161TIP3    H151974   1.474   1.121   0.853 -1.4877  1.1663  0.2550
10161TIP3    H251975   1.347   1.153   0.929 -0.4049  0.0937  2.6164
10162TIP3   OH251976   5.221   1.546   2.689 -0.2737 -0.8845  0.0831
10162TIP3    H151977   5.235   1.640   2.700 -0.5508 -0.9262  0.8360
10162TIP3    H251978   5.308   1.511   2.666 -0.3456 -0.3294 -1.1103
10163TIP3   OH251979   0.488   5.626  16.278  0.5526  0.1472 -0.0686
10163TIP3    H151980   0.575   5.656  16.306  0.2485 -0.1720  1.2839
10163TIP3    H251981   0.506   5.571  16.201  1.5957 -0.2208  0.4095
10164TIP3   OH251982   0.210   1.207  16.274  0.0691 -0.4342  0.1783
10164TIP3    H151983   0.115   1.210  16.267  0.1448 -0.2303 -1.1285
10164TIP3    H251984   0.231   1.268  16.345 -0.7535 -0.2606  0.2829
10165TIP3   OH251985   2.702   0.014   1.221 -1.0131  0.3454 -0.2785
10165TIP3    H151986   2.663   0.043   1.138  0.7288 -1.6099 -1.9191
10165TIP3    H251987   2.657  -0.068   1.242 -1.2260  0.6666  0.5526
10166TIP3   OH251988   4.141   5.193  14.364  0.2965 -0.4002  0.3196
10166TIP3    H151989   4.097   5.275  14.382  0.3824 -0.2006 -0.3434
10166TIP3    H251990   4.191   5.209  14.284  1.2868 -0.7294  0.8501
10167TIP3   OH251991   5.214   6.603  14.845  0.5237  0.7717  0.2599
10167TIP3    H151992   5.131   6.627  14.804  0.8911  1.1220 -0.2901
10167TIP3    H251993   5.190   6.577  14.934 -0.1248  1.2638  0.2376
10168TIP3   OH251994   5.199   2.826   1.764  0.5908 -0.3578  0.1659
10168TIP3    H151995   5.176   2.891   1.698 -0.4569 -0.3937  0.4814
10168TIP3    H251996   5.233   2.878   1.837 -0.4390 -0.1317  0.4991
10169TIP3   OH251997   5.569   1.215   0.759  0.3673  0.0248 -0.4380
10169TIP3    H151998   5.561   1.119   0.763  0.0624  0.0322 -0.8438
10169TIP3    H251999   5.654   1.233   0.799  1.6219 -0.6102 -2.6717
10170TIP3   OH252000   0.808   0.915  15.324 -0.4478 -0.7008 -0.2084
10170TIP3    H152001   0.844   0.998  15.293  1.7763 -1.2931  0.6274
10170TIP3    H252002   0.716   0.917  15.297 -0.1324  1.4694 -1.2980
10171TIP3   OH252003   0.212   3.891   0.746 -0.4384 -0.1095  0.3611
10171TIP3    H152004   0.290   3.946   0.735  0.7508 -1.8249 -0.1216
10171TIP3    H252005   0.183   3.909   0.835  1.1320 -0.2014  0.9324
10172TIP3   OH252006   2.852   5.203  11.334  0.0174  0.1647  0.7662
10172TIP3    H152007   2.816   5.256  11.263  0.2615 -0.3931  0.2123
10172TIP3    H252008   2.940   5.181  11.305 -0.5523 -1.7029  0.3335
10173TIP3   OH252009   4.448   2.407   6.050 -0.1687 -0.1420 -0.1259
10173TIP3    H152010   4.508   2.481   6.041 -1.1133  0.6169 -0.3582
10173TIP3    H252011   4.420   2.410   6.142 -1.5614  0.8998 -0.5459
10174TIP3   OH252012   3.283   0.031  12.266 -0.1609 -0.5388 -0.1384
10174TIP3    H152013   3.233   0.088  12.207  1.4861  0.5185 -0.5561
10174TIP3    H252014   3.219   0.005  12.333 -2.1104 -1.7970 -2.3125
10175TIP3   OH252015   0.758   1.963  15.530 -0.4204  0.1900  0.3739
10175TIP3    H152016   0.771   1.922  15.445  1.3485 -1.0470  1.1910
10175TIP3    H252017   0.826   2.029  15.537  0.3398 -0.6533  1.3473
10176TIP3   OH252018   2.682   2.266   3.847 -0.4104 -0.1459  0.0300
10176TIP3    H152019   2.761   2.277   3.793  0.1564 -0.8293  0.6946
10176TIP3    H252020   2.711   2.288   3.935 -0.2495 -2.8425  0.7430
10177TIP3   OH252021   1.751   5.161   3.923  0.1312  0.2914  0.6703
10177TIP3    H152022   1.743   5.161   3.827  1.5350 -0.5550  0.5329
10177TIP3    H252023   1.682   5.101   3.953  0.1633 -0.0125  0.1471
10178TIP3   OH252024   4.889   0.497   5.176 -0.4527  0.1961  0.1027
10178TIP3    H152025   4.939   0.571   5.139  1.7654 -0.7798  0.9406
10178TIP3    H252026   4.843   0.459   5.101 -0.2591  1.4004 -0.6472
10179TIP3   OH252027   3.479   3.980   1.712 -0.4503 -0.1084  0.6896
10179TIP3    H152028   3.455   3.951   1.801  1.4655  1.7504  1.9033
10179TIP3    H252029   3.501   4.072   1.723 -1.2181  0.4595 -1.9891
10180TIP3   OH252030   5.933   4.990   5.824  0.0115 -0.3854  0.2242
10180TIP3    H152031   5.881   4.923   5.778 -0.9875  0.9697 -0.7138
10180TIP3    H252032   5.873   5.064   5.832  1.3865  0.7281  0.3916
10181TIP3   OH252033   3.202   0.754  13.687  0.3603  0.1816 -0.4899
10181TIP3    H152034   3.185   0.799  13.769 -1.2624 -2.3803  0.6908
10181TIP3    H252035   3.268   0.688  13.709 -0.2622 -0.6854 -1.1487
10182TIP3   OH252036   5.009   5.845   5.903  0.8709  0.5545  0.0462
10182TIP3    H152037   4.937   5.886   5.855  1.2774  0.0861 -0.9988
10182TIP3    H252038   5.074   5.914   5.912  0.7695  0.6593 -0.0213
10183TIP3   OH252039   3.073   4.490  12.521 -0.3753  0.5255 -0.2002
10183TIP3    H152040   3.154   4.455  12.483 -1.0203 -0.3646 -0.7908
10183TIP3    H252041   3.003   4.451  12.468 -1.1893  1.4166  0.1942
10184TIP3   OH252042   1.438   0.736  11.789  0.0700 -0.0606  0.1321
10184TIP3    H152043   1.443   0.642  11.805 -1.2119 -0.6139 -2.2940
10184TIP3    H252044   1.479   0.749  11.704 -0.0996  1.5356  0.2572
10185TIP3   OH252045   6.252   4.144   4.912  0.3017  0.3896 -0.1687
10185TIP3    H152046   6.273   4.130   4.819 -1.0135 -0.0356 -0.4300
10185TIP3    H252047   6.253   4.239   4.922 -3.7535  0.8175 -1.7773
10186TIP3   OH252048   3.630   0.001  16.034 -0.1930 -0.5920  0.3750
10186TIP3    H152049   3.603   0.091  16.049 -0.2436 -0.4337 -0.5858
10186TIP3    H252050   3.678  -0.023  16.113 -0.6561  0.0822  0.8774
10187TIP3   OH252051   0.092   1.609  13.793  0.1410  0.3629 -0.1907
10187TIP3    H152052   0.051   1.523  13.793  0.4205  0.1766  1.8620
10187TIP3    H252053   0.046   1.658  13.725 -2.1895 -0.4399  0.7134
10188TIP3   OH252054   3.980   1.976  14.248  0.6027  0.0851 -0.3813
10188TIP3    H152055   3.920   1.990  14.174 -0.6118 -0.5459  0.4560
10188TIP3    H252056   3.924   1.974  14.325  1.6777 -0.7799  0.4141
10189TIP3   OH252057   6.390   4.469   6.819 -0.0138  0.1870  0.6391
10189TIP3    H152058   6.415   4.426   6.737 -0.7686 -0.3314  0.6725
10189TIP3    H252059   6.377   4.561   6.795 -1.0224 -0.1090 -0.0001
10190TIP3   OH252060   5.931   1.145  16.019  0.3621 -0.2023  0.3055
10190TIP3    H152061   5.929   1.061  15.973  1.3777 -0.2457  0.3136
10190TIP3    H252062   5.904   1.123  16.109 -0.1686 -0.3711  0.1099
10191TIP3   OH252063   2.063   0.824   2.409 -0.1827 -0.6259 -0.3796
10191TIP3    H152064   2.020   0.900   2.447  0.7333 -1.3407  2.2526
10191TIP3    H252065   1.993   0.779   2.361 -1.0777  1.0202 -0.6753
10192TIP3   OH252066   5.479   5.337   4.525 -0.0166 -0.0930 -0.2603
10192TIP3    H152067   5.513   5.341   4.615  0.5859 -0.3817 -0.4704
10192TIP3    H252068   5.398   5.287   4.533  0.9780 -1.7488 -0.1370
10193TIP3   OH252069   4.293   1.049  13.461  0.2100  0.6734 -0.3143
10193TIP3    H152070   4.231   0.984  13.493 -0.9623  0.5538 -2.5979
10193TIP3    H252071   4.369   0.998  13.433  1.5442  0.8384  2.6929
10194TIP3   OH252072   2.191   6.145  16.363  0.2835 -0.0453  0.7392
10194TIP3    H152073   2.205   6.193  16.282  1.0317 -0.1028  0.8255
10194TIP3    H252074   2.152   6.210  16.422  0.3659  0.1860  0.5445
10195TIP3   OH252075   5.128   4.247   1.858  0.2757 -0.2711 -0.1340
10195TIP3    H152076   5.099   4.291   1.938  0.3770  2.9090 -1.6853
10195TIP3    H252077   5.052   4.253   1.799  0.9585 -0.4770 -1.0575
10196TIP3   OH252078   0.105   6.746  11.548  0.3639  0.1001 -0.2039
10196TIP3    H152079   0.030   6.686  11.551  0.9526 -0.8406 -2.3125
10196TIP3    H252080   0.079   6.813  11.485  0.7580  0.5584  0.1173
10197TIP3   OH252081   1.698   4.277  11.251  0.4357  0.4582 -0.0637
10197TIP3    H152082   1.617   4.244  11.212  1.6599 -1.0427 -1.5359
10197TIP3    H252083   1.703   4.236  11.337 -0.1985  0.2975 -0.1023
10198TIP3   OH252084   2.853   0.020   0.783 -1.0404 -0.5970  0.1373
10198TIP3    H152085   2.883   0.072   0.857 -1.1031 -1.3215  0.6780
10198TIP3    H252086   2.812   0.083   0.725  2.1424  0.5982 -1.0340
10199TIP3   OH252087   6.498   2.976  12.467  0.1202 -0.2594  0.2164
10199TIP3    H152088   6.414   2.949  12.430 -0.7458  1.0361  1.1329
10199TIP3    H252089   6.507   3.068  12.442  1.7542 -0.6197 -0.6707
10200TIP3   OH252090   4.384   5.029  15.053 -0.1828  0.6000 -0.2215
10200TIP3    H152091   4.407   5.121  15.041 -1.8558  1.1155  0.3485
10200TIP3    H252092   4.334   5.006  14.974 -0.4265  0.3920 -0.0072
10201TIP3   OH252093   1.362   4.049   0.577 -0.1247 -0.4589 -0.2108
10201TIP3    H152094   1.340   4.142   0.585  2.2708  0.0654  1.6132
10201TIP3    H252095   1.346   4.013   0.665 -0.2049 -1.5694 -0.6698
10202TIP3   OH252096   1.057   0.931   1.170 -0.2214 -0.0097  0.4110
10202TIP3    H152097   1.113   0.885   1.233  1.0851  1.2472  0.2222
10202TIP3    H252098   1.045   1.018   1.208 -2.7222 -0.4667  0.8118
10203TIP3   OH252099   3.678   1.096  11.669  0.3098 -0.4499 -0.5414
10203TIP3    H152100   3.660   1.163  11.603  1.9372  2.7413  1.9338
10203TIP3    H252101   3.772   1.081  11.664  0.3254 -0.7701  0.4892
10204TIP3   OH252102   2.826   3.497  15.022  0.3762 -0.2795  0.0252
10204TIP3    H152103   2.895   3.433  15.005  0.2590 -1.2164  2.6972
10204TIP3    H252104   2.745   3.446  15.017  0.1707 -0.0209  0.7255
10205TIP3   OH252105   1.655   6.264  13.501 -0.2704 -0.1708 -0.1660
10205TIP3    H152106   1.711   6.240  13.575 -1.4051 -0.7794  0.5196
10205TIP3    H252107   1.646   6.359  13.508  0.2545 -0.1292  0.0121
10206TIP3   OH252108   5.488   4.810  15.186  0.2194  0.0192 -0.3645
10206TIP3    H152109   5.477   4.721  15.218  3.0744  0.1743  1.4090
10206TIP3    H252110   5.459   4.866  15.258  0.5063  0.4706 -0.5923
10207TIP3   OH252111   5.195   6.722  12.052 -0.7581  0.0184  0.1833
10207TIP3    H152112   5.190   6.630  12.078 -1.7648  0.1600  0.5274
10207TIP3    H252113   5.285   6.733  12.022 -0.6477 -1.1063  0.0336
10208TIP3   OH252114   1.446   6.346   3.295  0.0962 -0.2361 -0.0440
10208TIP3    H152115   1.358   6.378   3.315 -0.5640 -1.6679 -0.4913
10208TIP3    H252116   1.431   6.268   3.241  1.3915 -3.3118  3.6248
10209TIP3   OH252117   2.576   3.436  10.541 -0.3594 -0.0541 -0.1282
10209TIP3    H152118   2.563   3.342  10.532  1.9086 -0.3500 -0.8842
10209TIP3    H252119   2.657   3.444  10.591 -0.6105  1.5166  0.0736
10210TIP3   OH252120   4.873   1.978  15.364 -0.8879  0.2727 -0.3617
10210TIP3    H152121   4.841   1.914  15.300  1.1946 -1.6349  0.3887
10210TIP3    H252122   4.831   1.952  15.447 -1.4901  1.0893 -0.3924
10211TIP3   OH252123   1.282   3.290   4.050  1.0299  0.8399 -0.8913
10211TIP3    H152124   1.277   3.208   4.000  2.4016  0.5645 -0.5945
10211TIP3    H252125   1.198   3.333   4.032 -0.2316 -1.1615 -0.1055
10212TIP3   OH252126   3.671   5.252   4.444  0.3183  0.2515 -0.2990
10212TIP3    H152127   3.741   5.313   4.468 -0.3577  0.5601  0.9809
10212TIP3    H252128   3.596   5.309   4.427  0.1897 -0.1200 -0.9948
10213TIP3   OH252129   1.891   1.798   0.784 -0.3497  0.3684 -0.3858
10213TIP3    H152130   1.875   1.771   0.693  0.6576 -2.3404  0.1638
10213TIP3    H252131   1.854   1.886   0.789 -1.2988  0.2304 -3.1511
10214TIP3   OH252132   0.095   4.449  12.015 -0.5431 -0.5246  0.3889
10214TIP3    H152133   0.050   4.380  12.062 -0.9344 -0.4484  0.1350
10214TIP3    H252134   0.034   4.473  11.944  0.1858 -0.8934 -0.3781
10215TIP3   OH252135   6.543   4.795   0.688  0.5049  0.1417  0.4052
10215TIP3    H152136   6.488   4.847   0.747  0.3687  0.7279 -0.2204
10215TIP3    H252137   6.633   4.817   0.713  0.4830  1.9788 -0.8928
10216TIP3   OH252138   2.844   0.440   5.165 -0.4431  0.3370 -0.1394
10216TIP3    H152139   2.922   0.403   5.124 -0.4585 -0.0191  0.1414
10216TIP3    H252140   2.837   0.392   5.248  0.0152  1.5566  0.6303
10217TIP3   OH252141   2.757   5.640  17.289  0.2438 -0.1346 -0.2168
10217TIP3    H152142   2.708   5.578  17.235 -1.3897  0.8229  0.1160
10217TIP3    H252143   2.690   5.694  17.332  1.5199  0.0130  1.7395
10218TIP3   OH252144   3.553   2.508   1.643  0.0996  0.6503 -0.1764
10218TIP3    H152145   3.498   2.435   1.614  1.0859 -2.4178  4.5226
10218TIP3    H252146   3.631   2.502   1.589  0.2384 -2.0776  0.1865
10219TIP3   OH252147   5.809   6.604   2.863 -0.0158  0.1283  0.4079
10219TIP3    H152148   5.722   6.644   2.871 -0.3108 -0.5387  0.6131
10219TIP3    H252149   5.870   6.677   2.873 -0.5287  0.4477  1.3784
10220TIP3   OH252150   3.800   3.899   2.551 -0.0120  0.3695  0.3145
10220TIP3    H152151   3.765   3.972   2.501 -1.6525 -1.5333 -1.5433
10220TIP3    H252152   3.853   3.850   2.488 -0.2585 -0.8685  1.0271
10221TIP3   OH252153   0.476   2.860  15.626  0.0616  0.5877  0.6541
10221TIP3    H152154   0.565   2.895  15.629  0.2445  0.4268 -1.4346
10221TIP3    H252155   0.472   2.798  15.698  2.1022 -0.3893 -0.0030
10222TIP3   OH252156   3.367   4.719   1.219  0.0692 -0.0269 -0.0595
10222TIP3    H152157   3.415   4.780   1.164  0.6901  0.1931  0.6996
10222TIP3    H252158   3.294   4.689   1.165 -0.2487  1.3882 -0.4458
10223TIP3   OH252159   5.431   3.944  17.163 -0.1834  0.6500 -0.4232
10223TIP3    H152160   5.386   4.001  17.225 -0.1399  2.4977 -2.0034
10223TIP3    H252161   5.454   3.867  17.214 -1.9246  1.2119  1.3285
10224TIP3   OH252162   5.703   1.474  11.026 -0.1079 -0.2508  0.0758
10224TIP3    H152163   5.668   1.393  10.989 -0.0638 -0.1642 -0.1579
10224TIP3    H252164   5.637   1.540  11.008  0.2763 -0.0341 -0.5880
10225TIP3   OH252165   4.313   4.173   5.372 -0.2155  0.5577 -0.7751
10225TIP3    H152166   4.373   4.098   5.365 -2.2934 -1.1695 -1.2489
10225TIP3    H252167   4.367   4.249   5.351  1.8634 -0.8542 -0.8435
10226TIP3   OH252168   2.005   2.474  16.780  0.2984  0.7184 -0.0974
10226TIP3    H152169   1.981   2.422  16.856  0.1414  0.6406 -0.2010
10226TIP3    H252170   1.980   2.563  16.803 -0.5920  0.5625 -0.4148
10227TIP3   OH252171   5.318   1.012   1.085 -0.1397  0.6433  0.4841
10227TIP3    H152172   5.286   1.051   1.003  0.6385  2.0466  0.8136
10227TIP3    H252173   5.380   1.076   1.120  1.0791 -0.8495  1.1699
10228TIP3   OH252174   1.407   2.199  14.302  0.5742  0.1703  0.2097
10228TIP3    H152175   1.325   2.237  14.271  0.6119  1.3988  1.5045
10228TIP3    H252176   1.410   2.112  14.262 -1.7207 -0.1979  0.6914
10229TIP3   OH252177   2.935   1.698   6.178 -0.6829  1.1342 -0.4779
10229TIP3    H152178   2.890   1.656   6.251 -1.3889  0.4444 -1.2911
10229TIP3    H252179   2.964   1.782   6.214  1.6930 -0.3831  1.4928
10230TIP3   OH252180   5.736   0.024  17.109 -0.7286  0.2882 -0.1348
10230TIP3    H152181   5.825   0.054  17.091  0.1540 -1.7045  0.5960
10230TIP3    H252182   5.726  -0.056  17.056 -1.6780 -0.1335  0.6484
10231TIP3   OH252183   1.250   6.805   0.998  0.0835  0.2866  0.5871
10231TIP3    H152184   1.319   6.852   1.045  1.7628 -0.9448 -0.5063
10231TIP3    H252185   1.265   6.713   1.020  0.6909 -0.3041 -1.9231
10232TIP3   OH252186   4.874   1.828  13.997  0.0243 -0.1306  0.4285
10232TIP3    H152187   4.945   1.788  13.948  0.0771  0.8770 -0.3407
10232TIP3    H252188   4.797   1.775  13.975 -0.2028  1.0186 -1.7497
10233TIP3   OH252189   4.498   5.443   6.269 -0.5974  0.5057  0.2471
10233TIP3    H152190   4.420   5.435   6.324 -0.8373 -2.9050 -0.3394
10233TIP3    H252191   4.521   5.352   6.248  1.5335  1.5295 -2.4052
10234TIP3   OH252192   0.692   6.795   2.208 -0.7064 -0.5927 -0.1059
10234TIP3    H152193   0.761   6.741   2.246  1.0492  0.2932 -1.8273
10234TIP3    H252194   0.687   6.871   2.265  0.0498 -0.4825 -0.1699
10235TIP3   OH252195   4.034   4.361   4.666  0.0390  0.3059 -0.0246
10235TIP3    H152196   3.949   4.318   4.673  0.1809  0.0967  0.4816
10235TIP3    H252197   4.014   4.450   4.638 -0.3010  0.0841 -0.5172
10236TIP3   OH252198   6.037   3.908   6.121  0.1418 -0.1202 -0.3879
10236TIP3    H152199   6.055   3.832   6.177  1.5864  0.6056  0.1716
10236TIP3    H252200   6.009   3.977   6.181  1.5769  0.6275 -0.5501
10237TIP3   OH252201   6.062   3.732   0.692 -0.0173 -0.2778  0.4085
10237TIP3    H152202   6.155   3.719   0.677  0.0635  0.2367  0.4646
10237TIP3    H252203   6.030   3.772   0.611  0.4260  2.5490  1.5494
10238TIP3   OH252204   3.469   6.605   4.672  0.3255  0.1802 -0.0193
10238TIP3    H152205   3.513   6.523   4.653 -0.9698 -0.7805  0.9246
10238TIP3    H252206   3.502   6.666   4.606 -0.4534 -1.7137 -2.2828
10239TIP3   OH252207   4.060   1.954   3.184 -0.2345 -0.1960 -0.4068
10239TIP3    H152208   4.156   1.948   3.180 -0.2346 -1.2921  0.7544
10239TIP3    H252209   4.030   1.894   3.116 -0.0917 -0.9163  0.1522
10240TIP3   OH252210   1.509   3.427   6.531  0.0373  0.6829  0.3446
10240TIP3    H152211   1.590   3.477   6.534  0.2861  0.3642 -0.7017
10240TIP3    H252212   1.504   3.383   6.616  1.8432 -0.6578 -0.1863
10241TIP3   OH252213   4.629   1.097  11.197 -0.5919  0.2805  0.5880
10241TIP3    H152214   4.701   1.158  11.207  0.4239 -0.8044  0.1609
10241TIP3    H252215   4.595   1.114  11.109  0.8843 -0.9623 -0.2675
10242TIP3   OH252216   0.563   6.751  16.899 -0.3406 -0.1220  0.0384
10242TIP3    H152217   0.519   6.834  16.918  1.7293  0.5955  2.0939
10242TIP3    H252218   0.548   6.697  16.977 -1.7515 -1.7941 -1.3112
10243TIP3   OH252219   1.595   5.747  14.323  0.0773  0.0366  0.6841
10243TIP3    H152220   1.622   5.839  14.328 -0.1690  0.2151 -0.8438
10243TIP3    H252221   1.514   5.743  14.373  0.1104  0.6444  0.7906
10244TIP3   OH252222   4.933   1.012  16.502  0.3022  0.3348  0.3944
10244TIP3    H152223   4.991   0.987  16.430 -0.6469 -2.6131  0.5341
10244TIP3    H252224   4.855   1.048  16.458  0.8011  1.0830  0.0955
10245TIP3   OH252225   1.652   1.118   4.122  0.1562  0.2892  0.0609
10245TIP3    H152226   1.602   1.079   4.050 -0.6054  0.8122  0.2893
10245TIP3    H252227   1.585   1.149   4.183  0.7564 -1.8804  1.9832
10246TIP3   OH252228   5.072   3.587   1.698 -0.2130 -0.5722 -0.0327
10246TIP3    H152229   5.115   3.594   1.613 -1.7333  1.0920 -0.7141
10246TIP3    H252230   4.992   3.537   1.681 -1.4634  1.3246 -0.0290
10247TIP3   OH252231   3.000   5.460  10.976  0.2151 -0.3726 -0.3174
10247TIP3    H152232   2.960   5.522  11.037 -1.3012 -0.3827 -1.2428
10247TIP3    H252233   2.945   5.382  10.980  1.3236 -1.1693 -0.1632
10248TIP3   OH252234   1.123   0.955   1.965  0.2441  0.2592  0.1137
10248TIP3    H152235   1.045   0.977   1.914  0.5601  2.2873  0.4316
10248TIP3    H252236   1.192   1.012   1.931  0.1843  2.6545  3.4780
10249TIP3   OH252237   6.581   0.448   6.044 -0.3080 -0.2227 -0.3642
10249TIP3    H152238   6.572   0.358   6.076 -0.4135  0.6120  2.2007
10249TIP3    H252239   6.507   0.495   6.083 -2.0304  0.4669 -4.0687
10250TIP3   OH252240   1.216   1.430   1.279 -0.4088 -0.4518 -0.0352
10250TIP3    H152241   1.219   1.496   1.210 -1.2831  2.8811  2.8362
10250TIP3    H252242   1.307   1.419   1.306 -0.3496  0.3962  0.1424
10251TIP3   OH252243   2.498   3.988  12.061 -0.4673 -0.1020 -0.0282
10251TIP3    H152244   2.448   3.908  12.073  1.6054 -1.2863  1.3162
10251TIP3    H252245   2.586   3.959  12.038  0.0249  1.8417 -0.8625
10252TIP3   OH252246   3.005   0.086   1.127  0.9724  0.3186 -0.0466
10252TIP3    H152247   2.984   0.117   1.215 -0.2617 -0.4859 -0.0292
10252TIP3    H252248   2.978   0.157   1.069  2.3244  1.0930  0.2320
10253TIP3   OH252249   1.067   5.969   4.906 -0.8120  0.6541  0.1172
10253TIP3    H152250   0.989   5.947   4.957 -0.5889 -1.9163 -0.5109
10253TIP3    H252251   1.039   5.961   4.815 -0.3653  1.9401 -0.1509
10254TIP3   OH252252   1.459   0.053   1.605 -0.0582 -0.0638 -0.1918
10254TIP3    H152253   1.364   0.056   1.606 -0.2299 -1.2418 -2.8091
10254TIP3    H252254   1.481  -0.036   1.630  0.3040  0.0340 -0.1566
10255TIP3   OH252255   3.791   2.075  12.758  0.0244  0.4977  0.0198
10255TIP3    H152256   3.751   2.073  12.844  0.7066 -0.1593  0.3295
10255TIP3    H252257   3.734   2.020  12.704  0.1882  0.0334  0.3165
10256TIP3   OH252258   3.568   1.749  12.585  0.1568 -0.5958 -0.4377
10256TIP3    H152259   3.495   1.723  12.530 -1.0503 -0.1354  0.8785
10256TIP3    H252260   3.570   1.845  12.578  0.6030 -0.5988 -0.4079
10257TIP3   OH252261   4.626   5.933  17.049 -0.0295  0.1455  0.5094
10257TIP3    H152262   4.651   5.896  16.965  2.4459  0.6503  0.9407
10257TIP3    H252263   4.694   5.997  17.068 -0.2838 -0.2337  3.0716
10258TIP3   OH252264   5.755   3.696   3.275 -0.4889  0.4432  0.4137
10258TIP3    H152265   5.840   3.716   3.314  1.2073 -2.0673 -1.6271
10258TIP3    H252266   5.719   3.781   3.249  2.2615  1.4996 -0.2540
10259TIP3   OH252267   1.423   3.957  15.774  0.0455  0.2698 -0.0259
10259TIP3    H152268   1.453   3.958  15.864  1.4529  1.0577 -0.4719
10259TIP3    H252269   1.372   4.038  15.765 -3.3774 -1.5495  1.0220
10260TIP3   OH252270   5.068   2.843   4.684  0.4113  0.3235  0.0155
10260TIP3    H152271   5.147   2.791   4.671 -0.3070 -0.6112 -0.6809
10260TIP3    H252272   5.040   2.822   4.774  1.3647  1.2598  0.5562
10261TIP3   OH252273   4.145   0.005   5.142 -0.0539 -0.7669 -0.4252
10261TIP3    H152274   4.173   0.088   5.103 -0.4826  0.7359  2.2430
10261TIP3    H252275   4.063   0.026   5.186  0.1108 -2.4848  0.7770
10262TIP3   OH252276   2.279   5.708  16.349 -0.2109  0.5448  0.3264
10262TIP3    H152277   2.231   5.786  16.375 -1.3396 -0.0284  0.0665
10262TIP3    H252278   2.334   5.736  16.276 -2.0332  0.7310 -1.0562
10263TIP3   OH252279   1.988   4.628  14.641  0.3724 -0.3392 -0.2368
10263TIP3    H152280   1.914   4.586  14.598 -0.8532  2.8883 -1.6144
10263TIP3    H252281   1.991   4.587  14.728 -1.6307 -2.0729 -0.8819
10264TIP3   OH252282   1.648   4.182  14.090  0.0291  0.1957 -0.0698
10264TIP3    H152283   1.656   4.144  14.002  0.8880 -1.2495  0.6045
10264TIP3    H252284   1.561   4.156  14.120 -0.8454  1.8633 -0.9773
10265TIP3   OH252285   4.244   6.353   3.371  0.2171 -0.2904  0.5380
10265TIP3    H152286   4.223   6.261   3.388 -2.0713  0.0078 -0.3026
10265TIP3    H252287   4.338   6.358   3.384  0.5863 -2.9741 -0.3294
10266TIP3   OH252288   1.406   2.159   0.902 -0.2178 -0.1811 -0.3420
10266TIP3    H152289   1.356   2.185   0.826  0.8535 -2.1103 -1.8011
10266TIP3    H252290   1.446   2.076   0.877  0.6745 -0.5737  2.1086
10267TIP3   OH252291   2.340   4.981  16.119 -0.0519 -0.0779  0.1527
10267TIP3    H152292   2.291   5.004  16.198  0.4361  0.1629  0.3914
10267TIP3    H252293   2.405   5.051  16.109  0.2581 -0.3979 -0.1452
10268TIP3   OH252294   6.627   3.655  13.018  0.7481  0.3319  0.4566
10268TIP3    H152295   6.584   3.722  12.964 -0.6685 -1.6488 -1.0479
10268TIP3    H252296   6.554   3.602  13.051  1.7198  0.5024  3.0204
10269TIP3   OH252297   4.654   2.242   1.438 -0.1022 -0.4772  0.0669
10269TIP3    H152298   4.736   2.254   1.390 -0.3079  1.5633  0.1455
10269TIP3    H252299   4.642   2.147   1.442  2.1969 -0.8179 -0.0225
10270TIP3   OH252300   0.030   1.544   1.324  0.1085 -0.1830  0.5464
10270TIP3    H152301  -0.038   1.508   1.381 -1.2953  0.3340 -0.7295
10270TIP3    H252302   0.109   1.496   1.349 -0.4704 -0.1300  2.7514
10271TIP3   OH252303   5.432   0.769   1.130 -0.0611  0.0330 -0.0692
10271TIP3    H152304   5.430   0.732   1.042 -1.6511 -0.1809  0.0152
10271TIP3    H252305   5.405   0.860   1.119  1.2207  0.4368  0.0339
10272TIP3   OH252306   6.684   0.829   6.600  0.1888 -1.1983 -0.6698
10272TIP3    H152307   6.761   0.794   6.645 -0.5318 -0.6064  1.1356
10272TIP3    H252308   6.610   0.781   6.638 -0.3635 -1.7793 -2.3951
10273TIP3   OH252309   1.364   1.626   2.312 -0.6701 -0.2634 -0.3356
10273TIP3    H152310   1.453   1.637   2.343 -0.6544 -0.8607 -0.1617
10273TIP3    H252311   1.341   1.711   2.275 -0.6220  0.4299  1.1282
10274TIP3   OH252312   0.800   3.132  14.762  0.2740  0.0613 -0.0456
10274TIP3    H152313   0.835   3.043  14.771 -1.2674 -0.5395  0.3581
10274TIP3    H252314   0.709   3.124  14.789  0.7178  2.2774  2.5168
10275TIP3   OH252315   1.971   5.581   1.750  0.1512  0.4472  0.0842
10275TIP3    H152316   1.984   5.557   1.658 -0.6868 -0.6580  0.2366
10275TIP3    H252317   2.058   5.573   1.789  0.3964  0.3055 -0.4733
10276TIP3   OH252318   2.475   0.139   4.541  0.3201  0.1336 -0.5613
10276TIP3    H152319   2.568   0.160   4.550  0.0862  0.9811  0.0675
10276TIP3    H252320   2.437   0.216   4.499 -0.1984  0.0365 -0.2779
10277TIP3   OH252321   1.211   2.194  14.795  0.3224 -0.3418 -0.0976
10277TIP3    H152322   1.279   2.209  14.728  1.3199  1.1694  1.1934
10277TIP3    H252323   1.260   2.175  14.875 -0.8463 -1.1422  0.4536
10278TIP3   OH252324   6.622   3.871  15.278  0.0691 -0.7766  0.3343
10278TIP3    H152325   6.693   3.832  15.329  0.0083 -0.8291  0.3784
10278TIP3    H252326   6.640   3.847  15.187  0.6610  0.0477  0.2180
10279TIP3   OH252327   1.313   4.558  15.038  0.2043  0.6228  0.2534
10279TIP3    H152328   1.317   4.652  15.054  0.5324  0.4463  1.3393
10279TIP3    H252329   1.393   4.524  15.077 -0.3347 -0.2079  0.6685
10280TIP3   OH252330   2.339   4.797  12.035 -0.4857 -0.0622  0.2236
10280TIP3    H152331   2.390   4.849  12.097 -0.2976  1.5074 -1.1774
10280TIP3    H252332   2.392   4.718  12.021  0.7187  0.7392  0.1236
10281TIP3   OH252333   0.791   3.480  17.136  0.2702 -0.4167 -0.3402
10281TIP3    H152334   0.804   3.574  17.143  0.0263 -0.4417  0.5092
10281TIP3    H252335   0.772   3.466  17.043 -0.5403  0.4785 -0.3253
10282TIP3   OH252336   1.921   2.324   3.037 -0.3279 -0.7090 -0.0839
10282TIP3    H152337   2.000   2.277   3.063  0.6347  0.1047 -1.4477
10282TIP3    H252338   1.952   2.404   2.997 -1.8574 -0.3246 -0.5768
10283TIP3   OH252339   3.868   6.575  13.374 -0.2984 -0.3319 -0.6486
10283TIP3    H152340   3.880   6.517  13.449 -2.4519  0.1057  0.1162
10283TIP3    H252341   3.883   6.663  13.409 -0.6538 -0.1701 -0.8945
10284TIP3   OH252342   3.385   1.866   4.182 -0.2948  0.0132  0.4658
10284TIP3    H152343   3.468   1.819   4.173  0.3056  1.2268 -0.5917
10284TIP3    H252344   3.326   1.819   4.123  0.1839  0.3122 -0.2653
10285TIP3   OH252345   4.601   0.207  15.609 -0.0403  0.5167 -0.3403
10285TIP3    H152346   4.623   0.299  15.619  0.9551  0.1724  0.8956
10285TIP3    H252347   4.519   0.207  15.560  0.7510  1.9826 -1.7408
10286TIP3   OH252348   6.467   2.595  15.628  0.2303  0.0469 -0.0640
10286TIP3    H152349   6.494   2.645  15.551 -0.2922  2.5392  1.2458
10286TIP3    H252350   6.534   2.615  15.694  0.5828 -1.9019  0.2107
10287TIP3   OH252351   5.761   6.391  11.717 -0.4431 -0.1316  0.0583
10287TIP3    H152352   5.682   6.399  11.663  0.2845  0.2241 -0.9943
10287TIP3    H252353   5.771   6.296  11.729  0.1891 -0.3249 -1.7157
10288TIP3   OH252354   5.435   0.781  17.100 -0.3085 -0.2460 -0.9039
10288TIP3    H152355   5.350   0.739  17.116 -1.5075  2.0620 -0.7001
10288TIP3    H252356   5.435   0.800  17.007  0.7793 -1.7453 -1.2378
10289TIP3   OH252357   1.674   3.707   3.206 -0.0147  0.4080  0.0771
10289TIP3    H152358   1.699   3.693   3.298 -0.1760  0.1389  0.0817
10289TIP3    H252359   1.606   3.774   3.210 -1.3489 -0.9104  0.3312
10290TIP3   OH252360   0.494   5.148  17.022  0.1237 -0.0414 -0.2189
10290TIP3    H152361   0.563   5.198  16.978 -0.8773  0.3085 -1.4400
10290TIP3    H252362   0.539   5.100  17.091  1.1581  2.5988  1.0842
10291TIP3   OH252363   4.574   4.578  11.810 -0.3547  0.4917  0.7790
10291TIP3    H152364   4.491   4.622  11.788 -0.9394 -0.6826  0.5456
10291TIP3    H252365   4.641   4.645  11.797 -1.0296  0.8421 -1.2602
10292TIP3   OH252366   4.894   3.822  11.534  0.1022  0.3070  0.5948
10292TIP3    H152367   4.906   3.735  11.497 -3.6106  0.1493 -0.7298
10292TIP3    H252368   4.964   3.831  11.598  1.9337 -2.7399 -0.7491
10293TIP3   OH252369   4.193   0.508  11.782 -0.6411 -0.1291  0.0912
10293TIP3    H152370   4.269   0.507  11.840 -0.2405 -0.7740 -0.4265
10293TIP3    H252371   4.224   0.553  11.703 -1.0464  0.3458  0.1986
10294TIP3   OH252372   0.845   0.321   1.793 -0.5430 -0.1096 -0.0290
10294TIP3    H152373   0.923   0.372   1.774  0.4908 -1.6001  0.0646
10294TIP3    H252374   0.789   0.380   1.843  0.0503  1.3270 -1.0204
10295TIP3   OH252375   0.791   6.022  17.020 -0.8352 -0.0381  0.1485
10295TIP3    H152376   0.812   6.045  17.111  1.5965  0.8964 -0.5599
10295TIP3    H252377   0.826   5.934  17.010 -0.6270  0.0590  0.0028
10296TIP3   OH252378   6.693   3.948   4.192 -0.2159  0.3045 -0.6874
10296TIP3    H152379   6.609   3.928   4.152  0.1030  0.0887 -1.2677
10296TIP3    H252380   6.756   3.893   4.145  0.1787  0.0422  0.1083
10297TIP3   OH252381   4.074   3.843   1.089  0.3932 -0.4109  0.5512
10297TIP3    H152382   4.014   3.790   1.036  0.6450 -3.0538  2.6557
10297TIP3    H252383   4.139   3.876   1.027 -1.2862 -0.3450 -1.2644
10298TIP3   OH252384   5.303   1.669   3.759  0.2029 -0.3609  0.7347
10298TIP3    H152385   5.276   1.699   3.845  2.4616  2.5690  0.5671
10298TIP3    H252386   5.265   1.733   3.698  1.2316 -0.5596 -0.1406
10299TIP3   OH252387   1.804   6.524   4.215 -0.8613  0.3177  0.2396
10299TIP3    H152388   1.794   6.619   4.210 -1.1483  0.2624 -0.3173
10299TIP3    H252389   1.737   6.496   4.277 -1.0649  0.4402  0.0784
10300TIP3   OH252390   0.328   6.738   2.793 -0.0586 -0.4842  0.0337
10300TIP3    H152391   0.392   6.717   2.860  2.0887  0.7836 -1.4851
10300TIP3    H252392   0.264   6.667   2.797 -0.2386 -0.3076  3.5652
10301TIP3   OH252393   0.775   3.702   3.250 -0.4174  0.6489  0.6850
10301TIP3    H152394   0.865   3.724   3.226 -1.0580  1.7805 -0.8991
10301TIP3    H252395   0.756   3.622   3.202 -0.7432  1.2974 -0.3085
10302TIP3   OH252396   5.284   2.748  15.769 -0.4242  0.2548  0.1264
10302TIP3    H152397   5.230   2.678  15.805 -0.3562  0.1364 -0.0026
10302TIP3    H252398   5.373   2.711  15.765 -0.7677 -0.5070 -2.1623
10303TIP3   OH252399   1.343   6.650   3.435 -0.1827  0.1778 -0.3751
10303TIP3    H152400   1.378   6.693   3.513  1.4542 -1.5072 -0.1123
10303TIP3    H252401   1.265   6.604   3.466 -1.2319  1.8432 -0.4041
10304TIP3   OH252402   0.561   2.329   2.304  0.2295 -0.0422  0.2534
10304TIP3    H152403   0.634   2.388   2.286 -0.0662 -0.1332 -1.3966
10304TIP3    H252404   0.599   2.241   2.295 -0.7907 -0.3096 -5.1878
10305TIP3   OH252405   5.027   0.021   0.907  0.3603  0.2587 -0.3252
10305TIP3    H152406   5.050   0.044   0.817 -0.1054  1.1255 -0.2325
10305TIP3    H252407   5.039   0.102   0.957  0.9154 -0.2869  0.4641
10306TIP3   OH252408   5.810   4.208   2.173 -0.0874  0.1041 -0.3412
10306TIP3    H152409   5.772   4.273   2.231 -2.1080 -0.3833 -1.0582
10306TIP3    H252410   5.775   4.125   2.203  1.7899 -0.6196  0.0269
10307TIP3   OH252411   3.396   5.674  15.824 -0.6857  0.8252  0.7125
10307TIP3    H152412   3.352   5.679  15.739  0.5363 -0.1717 -0.0278
10307TIP3    H252413   3.386   5.762  15.861 -2.0454  1.0126 -0.0345
10308TIP3   OH252414   4.145   4.719  13.377  0.1380 -0.2087  0.2529
10308TIP3    H152415   4.200   4.658  13.426 -0.6277 -0.2415  1.1087
10308TIP3    H252416   4.096   4.663  13.317  2.6028  0.0346 -2.1434
10309TIP3   OH252417   1.256   1.983  14.059  0.3852  0.9995 -0.3621
10309TIP3    H152418   1.238   1.974  13.966 -1.2807  0.5577 -0.0465
10309TIP3    H252419   1.189   2.045  14.090  0.5101  0.6494  0.6456
10310TIP3   OH252420   5.748   3.341   0.534  0.1974  0.0147 -0.7294
10310TIP3    H152421   5.673   3.316   0.589  1.4188  0.5064  1.2459
10310TIP3    H252422   5.825   3.311   0.582  1.3733  1.3040 -1.7206
10311TIP3   OH252423   5.957   1.317  12.355  0.3921 -0.0224  0.1707
10311TIP3    H152424   5.906   1.335  12.276  0.5700 -1.5593 -0.3294
10311TIP3    H252425   5.892   1.315  12.425  0.4920  3.9873  0.6409
10312TIP3   OH252426   4.194   6.286   5.107  0.3628 -0.2998  0.5007
10312TIP3    H152427   4.256   6.298   5.179  1.5608  0.2149 -0.5730
10312TIP3    H252428   4.111   6.319   5.141  1.5750  3.0142  0.6201
10313TIP3   OH252429   2.899   1.220  13.708  0.6059  0.2516 -0.7674
10313TIP3    H152430   2.977   1.224  13.652  1.0301 -0.2736 -0.2238
10313TIP3    H252431   2.874   1.128  13.708  0.2928  0.3362 -0.5146
10314TIP3   OH252432   0.758   5.216  14.212 -0.4031  0.3051  0.4591
10314TIP3    H152433   0.723   5.127  14.207 -0.5870  0.2824  1.9553
10314TIP3    H252434   0.700   5.267  14.155 -0.6128 -0.4140  0.0073
10315TIP3   OH252435   3.155   6.467   2.414  0.5852  0.0015  0.1052
10315TIP3    H152436   3.078   6.525   2.409 -0.1863 -0.4539  3.5987
10315TIP3    H252437   3.225   6.516   2.372 -1.3285  0.9096 -2.2329
10316TIP3   OH252438   0.505   1.510  14.623 -0.2924  0.1197  0.1191
10316TIP3    H152439   0.448   1.499  14.699  0.7597  2.1617  1.3044
10316TIP3    H252440   0.461   1.464  14.552 -1.8793 -0.8960  1.6904
10317TIP3   OH252441   0.646   3.850   1.635 -0.4646 -0.8612 -0.5657
10317TIP3    H152442   0.592   3.802   1.572 -0.5622 -1.5353  0.0241
10317TIP3    H252443   0.661   3.788   1.706 -0.4487 -0.0652  0.1354
10318TIP3   OH252444   5.704   5.744  11.201 -0.0230  0.4012 -0.1587
10318TIP3    H152445   5.643   5.725  11.130  1.1768  0.7716 -1.3363
10318TIP3    H252446   5.685   5.678  11.267 -0.4920 -0.6085 -1.2602
10319TIP3   OH252447   1.146   5.500  11.882 -0.4489  0.1973  0.2569
10319TIP3    H152448   1.228   5.488  11.836  0.1400  1.4765  0.9138
10319TIP3    H252449   1.080   5.463  11.824  0.5678 -0.7839 -0.3069
10320TIP3   OH252450   5.013   6.708   3.090  0.0983  0.1245  0.0095
10320TIP3    H152451   4.949   6.766   3.050  0.5112  0.4035 -0.2581
10320TIP3    H252452   4.979   6.690   3.178 -0.4973  0.0120 -0.2451
10321TIP3   OH252453   6.053   1.683  10.639 -0.4332 -0.1477  0.5125
10321TIP3    H152454   6.122   1.749  10.648 -0.5076  0.1834 -1.0412
10321TIP3    H252455   6.096   1.600  10.660  0.4328  0.0641 -0.3718
10322TIP3   OH252456   4.255   5.324   4.217 -0.1433 -0.2536 -0.3749
10322TIP3    H152457   4.286   5.358   4.300  2.0704  0.4522 -1.3978
10322TIP3    H252458   4.160   5.336   4.219 -0.0536  0.4257  1.7059
10323TIP3   OH252459   3.227   6.577   0.263  0.9560 -0.1515  0.1529
10323TIP3    H152460   3.274   6.585   0.346 -0.5727  1.7082  0.9257
10323TIP3    H252461   3.286   6.527   0.207  3.3455  1.0554  1.4066
10324TIP3   OH252462   1.042   4.592  14.736 -0.0684 -0.2856  1.2675
10324TIP3    H152463   0.961   4.600  14.685 -0.1117 -2.1177  0.9900
10324TIP3    H252464   1.108   4.637  14.683 -0.3155 -1.3099  0.0508
10325TIP3   OH252465   4.735   5.936   1.202 -0.2072  0.1250  0.6351
10325TIP3    H152466   4.668   5.995   1.237 -0.3459  0.3302  0.0350
10325TIP3    H252467   4.779   5.901   1.279 -0.4545  0.6351  1.0099
10326TIP3   OH252468   3.758   3.284   0.566  0.1368  0.0513 -0.6108
10326TIP3    H152469   3.700   3.227   0.617  0.4436  1.1442  1.0716
10326TIP3    H252470   3.845   3.251   0.584  0.3575  1.2591  0.7661
10327TIP3   OH252471   4.207   5.346   1.809 -0.0986 -0.2553 -0.0385
10327TIP3    H152472   4.273   5.314   1.871 -2.1146 -0.8125  1.9715
10327TIP3    H252473   4.257   5.397   1.745  2.3235 -1.1304  1.0292
10328TIP3   OH252474   2.314   2.120   0.751  0.8894 -0.1578 -0.3859
10328TIP3    H152475   2.386   2.058   0.740  0.1901 -1.4701  1.9573
10328TIP3    H252476   2.356   2.206   0.742  2.6200 -0.8968  0.1326
10329TIP3   OH252477   2.858   4.084   3.463 -0.1116 -0.0600  0.5463
10329TIP3    H152478   2.821   3.997   3.449  1.8101 -0.8521  0.0474
10329TIP3    H252479   2.789   4.132   3.508 -0.7231 -2.2862  2.1705
10330TIP3   OH252480   1.008   4.464  11.357  0.1358 -0.4938 -0.4063
10330TIP3    H152481   0.995   4.556  11.335 -0.1271 -0.4862 -0.2164
10330TIP3    H252482   1.102   4.457  11.375  0.1974 -0.3143 -0.6462
10331TIP3   OH252483   5.768   3.364  13.300  0.2601  0.2725 -0.4027
10331TIP3    H152484   5.728   3.451  13.299 -0.6093 -0.1276 -1.5087
10331TIP3    H252485   5.696   3.303  13.288  0.8816 -0.6077  0.1794
10332TIP3   OH252486   3.092   2.135   0.758  0.7245  0.0749 -0.6895
10332TIP3    H152487   3.114   2.099   0.672 -1.0029  1.2642 -1.6825
10332TIP3    H252488   3.011   2.091   0.781  1.3046 -0.4209  0.4980
10333TIP3   OH252489   0.620   0.775  11.375 -0.2642 -0.1713 -0.9960
10333TIP3    H152490   0.559   0.739  11.310  0.7613 -0.6009 -1.7494
10333TIP3    H252491   0.632   0.704  11.438 -0.8064  0.0382 -0.6524
10334TIP3   OH252492   0.154   4.626   0.929  0.1863 -0.4242 -0.6948
10334TIP3    H152493   0.193   4.551   0.974 -1.1859 -0.2153  0.9877
10334TIP3    H252494   0.151   4.694   0.996 -1.4079  0.1035 -1.2501
10335TIP3   OH252495   4.220   1.499  16.502 -0.0607 -0.2972 -0.3338
10335TIP3    H152496   4.249   1.578  16.546 -1.0770  0.4516 -0.9566
10335TIP3    H252497   4.261   1.428  16.551  1.6105  0.6225 -0.3272
10336TIP3   OH252498   5.228   3.599   6.441 -0.3299 -0.8881 -0.5788
10336TIP3    H152499   5.182   3.517   6.429 -0.5037 -1.0173  0.8632
10336TIP3    H252500   5.172   3.651   6.499  0.6253 -0.4707  0.0064
10337TIP3   OH252501   5.186   1.305   4.239  0.1223  0.3035  0.3485
10337TIP3    H152502   5.094   1.324   4.219  0.5853  2.1709 -0.2421
10337TIP3    H252503   5.204   1.223   4.191 -1.5900 -0.9395  1.7044
10338TIP3   OH252504   4.651   2.499  14.324  0.0725  0.1535  0.2184
10338TIP3    H152505   4.741   2.465  14.320  0.1574  0.3840  0.1798
10338TIP3    H252506   4.599   2.425  14.356 -0.1141 -0.7391 -1.9924
10339TIP3   OH252507   6.111   0.338   5.226  0.1705  0.4877  0.2968
10339TIP3    H152508   6.187   0.397   5.230  1.3510 -0.7700 -1.8915
10339TIP3    H252509   6.051   0.380   5.165 -0.6256  1.1065  1.4558
10340TIP3   OH252510   3.457   4.682  11.484  0.1297  0.2261 -0.1292
10340TIP3    H152511   3.497   4.635  11.411  0.7295  0.9501 -0.2813
10340TIP3    H252512   3.378   4.633  11.504 -0.3388  0.3364 -1.6335
10341TIP3   OH252513   4.343   6.410  15.818 -0.4251 -0.4372  0.2456
10341TIP3    H152514   4.414   6.474  15.823 -0.6945 -0.0888 -0.2507
10341TIP3    H252515   4.287   6.429  15.892 -1.1303  0.6779 -0.5402
10342TIP3   OH252516   4.199   3.367  16.882  0.4110  0.1767  0.6363
10342TIP3    H152517   4.109   3.336  16.891 -0.4680  1.7284 -1.6784
10342TIP3    H252518   4.208   3.437  16.947 -0.4375  0.7119  0.1929
10343TIP3   OH252519   0.564   1.522  16.781 -0.2935 -0.3491  0.0260
10343TIP3    H152520   0.659   1.536  16.781  0.1110 -2.6297  0.1629
10343TIP3    H252521   0.538   1.534  16.690  0.3453 -0.8055 -0.2252
10344TIP3   OH252522   4.945   4.366  13.708 -0.2000  0.0573  0.2415
10344TIP3    H152523   5.029   4.322  13.715  0.2340  1.0371  1.4752
10344TIP3    H252524   4.882   4.295  13.696  0.6213 -0.8051  0.8789
10345TIP3   OH252525   4.499   0.324  13.510  0.2313  0.0840 -0.0882
10345TIP3    H152526   4.468   0.414  13.502 -2.7378 -0.9014 -0.8295
10345TIP3    H252527   4.508   0.310  13.604 -1.6106  0.4913  0.1894
10346TIP3   OH252528   5.201   6.337   5.127  0.0120  0.0245  0.2490
10346TIP3    H152529   5.244   6.257   5.157  0.1220  0.5439  1.5443
10346TIP3    H252530   5.185   6.387   5.207 -1.4320  0.6291 -0.3837
10347TIP3   OH252531   1.227   5.375   2.877  0.0331  0.1107  0.3479
10347TIP3    H152532   1.135   5.358   2.859  0.3524 -1.2548 -0.0623
10347TIP3    H252533   1.254   5.434   2.806 -0.5901  0.7653  0.6428
10348TIP3   OH252534   4.626   0.756  14.066 -0.4578  0.0590  0.1298
10348TIP3    H152535   4.688   0.724  14.000  0.1068  1.1107  0.1319
10348TIP3    H252536   4.557   0.690  14.068 -1.0633  0.5239 -2.3035
10349TIP3   OH252537   4.411   5.416   1.618 -0.5591 -0.3179 -0.4728
10349TIP3    H152538   4.439   5.374   1.537  0.1407  0.9854 -0.9392
10349TIP3    H252539   4.434   5.509   1.606  0.8342 -0.2944  1.7421
10350TIP3   OH252540   5.277   0.828  15.073 -0.3333  0.0926 -0.5847
10350TIP3    H152541   5.337   0.882  15.125 -2.0667  0.3320  1.3134
10350TIP3    H252542   5.219   0.891  15.031 -1.8220 -0.1816  0.9505
10351TIP3   OH252543   2.452   6.700  11.645  0.0591  0.5202  0.0342
10351TIP3    H152544   2.390   6.739  11.706 -0.1666  2.1664 -1.1677
10351TIP3    H252545   2.537   6.737  11.670  0.2064  0.0395  0.2597
10352TIP3   OH252546   1.536   4.294   4.366  0.1369 -0.8679  0.6624
10352TIP3    H152547   1.477   4.284   4.292  1.2056  0.6588 -0.4728
10352TIP3    H252548   1.523   4.215   4.419  0.4884 -2.8159 -1.9655
10353TIP3   OH252549   4.807   3.192   3.560 -0.2467 -0.1701  0.4004
10353TIP3    H152550   4.850   3.214   3.642 -1.1532  0.9468  0.5965
10353TIP3    H252551   4.865   3.226   3.492  0.1463 -0.4447  0.5960
10354TIP3   OH252552   2.568   5.066  11.766 -0.1853 -0.0823  0.3616
10354TIP3    H152553   2.525   5.096  11.686 -0.1642  1.4879  0.8897
10354TIP3    H252554   2.496   5.048  11.827 -0.3564 -3.7295 -0.6989
10355TIP3   OH252555   0.672   0.487   5.261  0.5708 -0.1053 -0.3515
10355TIP3    H152556   0.633   0.469   5.175 -1.9199 -0.1646  0.7049
10355TIP3    H252557   0.631   0.569   5.289  0.1121 -0.9021  1.4342
10356TIP3   OH252558   1.631   6.091   0.959  0.2693  0.2298  0.1941
10356TIP3    H152559   1.702   6.072   0.898  0.2400  0.8766 -0.0437
10356TIP3    H252560   1.661   6.166   1.009 -0.1986  0.4388  0.1680
10357TIP3   OH252561   4.244   6.094  13.009 -0.0080 -0.0612  0.0269
10357TIP3    H152562   4.303   6.072  12.937  0.9840 -0.2050  0.8515
10357TIP3    H252563   4.206   6.010  13.035  1.4383 -0.4282  1.1661
10358TIP3   OH252564   0.853   1.512  13.043 -0.3507 -0.2415 -0.2321
10358TIP3    H152565   0.795   1.582  13.014  1.8912  1.5821 -0.5992
10358TIP3    H252566   0.902   1.550  13.116  0.0217 -1.8996  0.4196
10359TIP3   OH252567   2.792   1.990  13.606  0.3677  0.1703 -0.2226
10359TIP3    H152568   2.816   1.898  13.600 -0.2611 -0.1380  1.5432
10359TIP3    H252569   2.864   2.031  13.654  0.5501  0.5889 -0.8257
10360TIP3   OH252570   6.543   4.581  11.731 -0.3275 -0.0549  0.7479
10360TIP3    H152571   6.591   4.507  11.769 -1.3577 -0.7905  0.6818
10360TIP3    H252572   6.484   4.541  11.667  0.4138  1.0275 -0.6809
10361TIP3   OH252573   2.525   3.540   1.889 -0.0624  0.0260 -0.3872
10361TIP3    H152574   2.578   3.532   1.809 -0.9260 -0.0966 -0.9696
10361TIP3    H252575   2.455   3.476   1.877  0.4667 -0.8659  1.0500
10362TIP3   OH252576   2.258   1.864   2.912  0.9233 -0.1951 -0.1168
10362TIP3    H152577   2.275   1.915   2.832  0.5886  1.0662  0.5860
10362TIP3    H252578   2.318   1.790   2.907  1.3397  0.2003 -1.2382
10363TIP3   OH252579   4.396   1.496   3.473 -0.7908 -0.1919  0.2921
10363TIP3    H152580   4.418   1.511   3.565 -0.8196  0.6641  0.1688
10363TIP3    H252581   4.480   1.475   3.432 -0.8388 -0.9898  0.5838
10364TIP3   OH252582   3.486   2.762   2.697  0.1551  0.9105 -0.2960
10364TIP3    H152583   3.453   2.678   2.665 -0.1249  1.2625 -0.9536
10364TIP3    H252584   3.412   2.822   2.687  0.4745  1.3226 -0.1869
10365TIP3   OH252585   2.110   2.517  10.706 -0.8613  0.0329  0.0759
10365TIP3    H152586   2.189   2.561  10.737 -0.5020  0.5027 -1.4136
10365TIP3    H252587   2.058   2.586  10.666 -0.8281 -0.6553 -1.2374
10366TIP3   OH252588   3.482   4.266  14.883  0.2356  0.2205  0.0078
10366TIP3    H152589   3.447   4.354  14.893  1.4943  1.0766 -2.4390
10366TIP3    H252590   3.493   4.255  14.788 -0.1197 -2.6752  0.2046
10367TIP3   OH252591   3.850   0.444  17.246 -0.9313 -0.8212 -0.4431
10367TIP3    H152592   3.920   0.453  17.182  1.1575 -1.2378  1.6438
10367TIP3    H252593   3.889   0.392  17.317 -3.3569 -1.0393  0.8205
10368TIP3   OH252594   1.768   6.252  11.952  0.3729  0.5094 -0.6351
10368TIP3    H152595   1.830   6.286  11.887  1.4700  1.0696  0.6551
10368TIP3    H252596   1.737   6.170  11.915  0.7377  0.9575 -1.9967
10369TIP3   OH252597   1.334   3.649  12.412 -0.1056 -0.4823 -0.1253
10369TIP3    H152598   1.253   3.699  12.423  0.6840  0.3769  2.6527
10369TIP3    H252599   1.397   3.711  12.375 -0.8068 -1.3593 -3.0401
10370TIP3   OH252600   0.531   2.606   2.451 -0.0468  0.4070  0.6363
10370TIP3    H152601   0.468   2.676   2.436 -1.2284 -0.7601  0.0097
10370TIP3    H252602   0.534   2.558   2.368  1.8807  0.5757  0.5612
10371TIP3   OH252603   2.966   4.128   1.840  0.0588  0.0549  0.7295
10371TIP3    H152604   2.999   4.072   1.910 -0.3233  0.7236  1.4699
10371TIP3    H252605   3.045   4.165   1.800  0.2667  0.1290  1.2013
10372TIP3   OH252606   0.704   1.696   3.848  0.0119 -0.2584 -0.2451
10372TIP3    H152607   0.771   1.628   3.855  2.6075  2.2006  0.9949
10372TIP3    H252608   0.715   1.748   3.928 -1.4823  1.9111 -1.3641
10373TIP3   OH252609   0.189   5.457  15.765  0.4876 -0.1537 -0.3325
10373TIP3    H152610   0.225   5.538  15.728 -1.0327  0.5875 -0.2655
10373TIP3    H252611   0.160   5.482  15.853  0.3784 -0.8860 -0.1588
10374TIP3   OH252612   4.454   1.558  14.528  0.0976  0.0195 -0.2043
10374TIP3    H152613   4.461   1.525  14.439 -0.7671  1.1529 -0.7125
10374TIP3    H252614   4.362   1.547  14.551  0.6571 -2.1626  1.3503
10375TIP3   OH252615   1.391   6.012   3.489 -0.0214 -0.1742 -0.4252
10375TIP3    H152616   1.377   5.995   3.583  0.6906 -0.8571 -0.4255
10375TIP3    H252617   1.303   6.019   3.452 -0.3299  1.4016  0.5022
10376TIP3   OH252618   6.644   3.237  17.183 -0.3667  0.5047  0.4795
10376TIP3    H152619   6.728   3.196  17.201 -0.3337  0.6593  0.6876
10376TIP3    H252620   6.667   3.319  17.139 -0.4232  0.3925  0.2389
10377TIP3   OH252621   6.708   3.320  12.492 -0.1125  0.0986  0.3482
10377TIP3    H152622   6.785   3.264  12.504  0.8104  0.9558 -1.1626
10377TIP3    H252623   6.673   3.332  12.580  1.6914 -0.0389  1.1368
10378TIP3   OH252624   1.925   5.536  11.627  0.0828 -0.6480 -0.8665
10378TIP3    H152625   1.989   5.508  11.561  0.4561 -0.5346 -0.5541
10378TIP3    H252626   1.905   5.627  11.605 -0.7599 -0.9922 -1.5869
10379TIP3   OH252627   5.986   6.316   0.211  0.2812  0.0448  0.0155
10379TIP3    H152628   5.894   6.337   0.229  0.4096  0.6796 -0.0653
10379TIP3    H252629   6.018   6.278   0.293  0.1535  0.5167  0.2846
10380TIP3   OH252630   3.171   4.250  13.894 -0.7615  0.0456 -0.0127
10380TIP3    H152631   3.193   4.329  13.845 -0.7646  0.5020  0.6991
10380TIP3    H252632   3.110   4.203  13.838  0.1943 -0.0692 -0.9874
10381TIP3   OH252633   4.019   0.141   4.548 -0.5273  0.4822 -0.6185
10381TIP3    H152634   3.964   0.066   4.525  0.9379 -0.8245 -0.0523
10381TIP3    H252635   4.054   0.120   4.634  1.2008  1.0329 -1.1373
10382TIP3   OH252636   6.142   2.855   1.201  0.8778  0.5967 -0.1279
10382TIP3    H152637   6.185   2.901   1.129  1.5489  0.9333  0.4764
10382TIP3    H252638   6.059   2.825   1.164 -0.2916  3.5602 -0.1348
10383TIP3   OH252639   3.893   4.804   2.099  0.1453  0.0777  0.1623
10383TIP3    H152640   3.883   4.833   2.009 -3.2080  0.3035  0.4940
10383TIP3    H252641   3.942   4.875   2.141  1.6542  0.0182 -1.3831
10384TIP3   OH252642   3.823   2.949  14.739 -0.0415 -0.0180  0.1258
10384TIP3    H152643   3.768   3.015  14.698  1.1237 -0.3474 -2.1216
10384TIP3    H252644   3.896   2.998  14.776  0.1492  0.0974 -0.3899
10385TIP3   OH252645   4.642   3.979   1.314 -0.1729  0.3166 -0.2480
10385TIP3    H152646   4.700   4.053   1.297 -0.4273  0.3703 -0.9067
10385TIP3    H252647   4.605   3.957   1.228 -0.8833  0.0862  0.1069
10386TIP3   OH252648   4.554   3.215   0.075 -0.3059  0.0875 -0.7006
10386TIP3    H152649   4.459   3.220   0.089 -0.1992  1.6974 -0.3377
10386TIP3    H252650   4.587   3.300   0.105  1.5680 -1.3044  1.6079
10387TIP3   OH252651   0.427   6.813   5.934 -0.1808  0.6288  0.1490
10387TIP3    H152652   0.468   6.729   5.911 -2.3974 -0.3014 -0.6466
10387TIP3    H252653   0.475   6.842   6.011  1.1724 -0.9675 -0.0268
10388TIP3   OH252654   3.676   5.719   6.700 -0.0333  0.3653 -0.0812
10388TIP3    H152655   3.630   5.655   6.754 -1.1625  1.1018 -0.1355
10388TIP3    H252656   3.629   5.801   6.715 -0.0945  0.6823 -1.8278
10389TIP3   OH252657   1.395   2.821   3.897  0.1938  0.2791  0.1148
10389TIP3    H152658   1.453   2.761   3.944  2.3513  0.1763 -2.4698
10389TIP3    H252659   1.310   2.776   3.896  1.1180 -1.5528  0.4378
10390TIP3   OH252660   1.348   5.374  13.328  0.4898  0.4040  0.4432
10390TIP3    H152661   1.345   5.447  13.390  0.6529 -0.1692  1.1368
10390TIP3    H252662   1.383   5.301  13.379 -1.0109 -0.5415  0.1713
10391TIP3   OH252663   1.611   5.786   5.991  0.1475 -0.1608  0.1542
10391TIP3    H152664   1.593   5.879   5.973 -0.5127 -0.1043  1.0576
10391TIP3    H252665   1.587   5.774   6.083 -1.9299 -1.7386 -0.5149
10392TIP3   OH252666   5.612   2.070  15.082 -0.0268 -0.1713 -0.9350
10392TIP3    H152667   5.593   2.164  15.080  2.6751  0.5194  0.6461
10392TIP3    H252668   5.708   2.065  15.081 -0.0680 -3.0060 -2.4074
10393TIP3   OH252669   4.627   3.789  14.499  0.8653  0.0948 -0.0773
10393TIP3    H152670   4.677   3.708  14.509  1.2732  0.4537  0.9105
10393TIP3    H252671   4.693   3.857  14.486  0.5534  0.3606 -0.2897
10394TIP3   OH252672   4.977   3.639   0.785  0.2808  0.0052  0.3811
10394TIP3    H152673   4.950   3.599   0.867 -1.4465 -0.3230 -0.3033
10394TIP3    H252674   4.976   3.733   0.803  0.9836 -0.1018  1.0254
10395TIP3   OH252675   1.386   3.240   0.589  0.2637  0.1822 -0.3739
10395TIP3    H152676   1.336   3.314   0.554 -0.6438  0.0726  0.6585
10395TIP3    H252677   1.321   3.184   0.632  1.0252 -0.9008 -0.5819
10396TIP3   OH252678   2.753   1.734   3.323  0.5498  0.3763 -0.4674
10396TIP3    H152679   2.696   1.761   3.395  0.2637  0.8320 -0.8607
10396TIP3    H252680   2.695   1.731   3.246  1.0274  0.7265 -0.8466
10397TIP3   OH252681   4.527   1.554  14.241 -0.2794 -0.3615  0.1148
10397TIP3    H152682   4.449   1.570  14.187 -0.2697 -2.1369 -0.5222
10397TIP3    H252683   4.567   1.476  14.201  2.5135  1.1750 -0.3262
10398TIP3   OH252684   2.202   2.245  12.887  0.3060  0.0849 -0.0898
10398TIP3    H152685   2.186   2.152  12.902 -1.2048  0.4600  0.8556
10398TIP3    H252686   2.296   2.256  12.900  0.6152 -1.4000 -0.8333
10399TIP3   OH252687   5.856   0.969   3.363 -0.2306 -0.2090  0.4081
10399TIP3    H152688   5.776   1.021   3.363 -0.2648  0.0060 -3.7203
10399TIP3    H252689   5.828   0.882   3.334  1.0996  0.2355 -2.4667
10400TIP3   OH252690   0.129   1.515  14.526 -0.2078 -0.2492  0.0425
10400TIP3    H152691   0.091   1.466  14.453  0.7177  0.5452 -1.0071
10400TIP3    H252692   0.152   1.600  14.488  0.6324  0.0476  1.1715
10401TIP3   OH252693   5.100   5.185  12.602  0.2653  0.0482  0.5780
10401TIP3    H152694   5.072   5.099  12.570  1.9844 -0.8157  1.2328
10401TIP3    H252695   5.186   5.198  12.562 -0.1010  1.6188  0.2558
10402TIP3   OH252696   4.527   6.486  15.260 -0.2698  0.3690  0.1522
10402TIP3    H152697   4.550   6.531  15.341  1.0398 -0.5983  0.3478
10402TIP3    H252698   4.497   6.556  15.202 -2.3180  0.9429  1.7968
10403TIP3   OH252699   1.735   3.272   6.382  0.5008 -0.5284 -0.3092
10403TIP3    H152700   1.691   3.344   6.427  0.8908 -0.7424  0.4440
10403TIP3    H252701   1.706   3.193   6.429  2.0637 -0.6277  0.5436
10404TIP3   OH252702   3.979   0.775  14.621  0.1758  0.4432  0.0257
10404TIP3    H152703   3.950   0.827  14.545  1.1735  1.7399  0.5005
10404TIP3    H252704   3.936   0.816  14.696  0.5312  0.2450  0.3409
10405TIP3   OH252705   3.890   5.542   6.646 -0.1817 -0.2671 -0.4682
10405TIP3    H152706   3.832   5.602   6.694  0.5408 -0.0017  0.0981
10405TIP3    H252707   3.865   5.455   6.676  0.4633 -0.0897  0.6581
10406TIP3   OH252708   5.595   4.004  14.358  0.2028 -0.5104 -0.3394
10406TIP3    H152709   5.621   3.978  14.447 -1.8466  0.2001  0.5201
10406TIP3    H252710   5.502   3.985  14.353 -0.1035  1.0453 -1.7391
10407TIP3   OH252711   5.294   6.147  12.383 -0.2220  0.0349  0.3986
10407TIP3    H152712   5.241   6.079  12.425  1.2540 -1.1280  0.4357
10407TIP3    H252713   5.295   6.123  12.291  0.2310  0.0715  0.3966
10408TIP3   OH252714   6.754   5.661  11.745 -0.1566  0.4167 -0.1252
10408TIP3    H152715   6.732   5.747  11.780  0.9242  0.2680  0.9868
10408TIP3    H252716   6.821   5.677  11.679 -2.4142  0.7290 -2.5198
10409TIP3   OH252717   3.257   4.238   0.211  0.0258  0.2962 -0.4403
10409TIP3    H152718   3.195   4.174   0.246  0.8406 -1.2248 -1.6087
10409TIP3    H252719   3.315   4.258   0.283  0.2526 -0.9516 -0.2553
10410TIP3   OH252720   4.094   5.648   1.492  0.0727 -0.2030 -0.2822
10410TIP3    H152721   4.148   5.725   1.475 -2.1728  1.1619 -1.8494
10410TIP3    H252722   4.110   5.627   1.584  1.8457  1.2201 -0.2127
10411TIP3   OH252723   0.484   1.548   5.958 -0.2996 -0.2791 -0.0267
10411TIP3    H152724   0.505   1.640   5.973  0.5485 -0.2544 -1.2669
10411TIP3    H252725   0.516   1.504   6.037 -0.5305  0.4504  0.4881
10412TIP3   OH252726   6.304   4.725  12.592 -0.1565 -0.6176  0.3029
10412TIP3    H152727   6.398   4.732  12.577 -0.1403 -0.7517  0.3375
10412TIP3    H252728   6.267   4.700  12.508 -0.0260 -1.7147  0.5594
10413TIP3   OH252729   1.470   0.337   1.097  0.4646 -0.2862 -0.3460
10413TIP3    H152730   1.522   0.301   1.026 -1.3285  0.7651 -2.2935
10413TIP3    H252731   1.502   0.427   1.107  1.0438 -0.5797  0.5515
10414TIP3   OH252732   5.883   1.268  13.648  0.1525 -0.2259  0.2859
10414TIP3    H152733   5.888   1.192  13.706  0.3625 -0.4692 -0.0480
10414TIP3    H252734   5.859   1.340  13.706  2.1243 -0.0831  1.0185
10415TIP3   OH252735   0.634   6.669  15.839 -0.7036 -0.1585  0.1854
10415TIP3    H152736   0.613   6.687  15.747  0.4274 -0.9868 -0.2685
10415TIP3    H252737   0.574   6.724  15.889 -0.8434  0.8639 -1.0553
10416TIP3   OH252738   6.759   2.726   0.314  0.1257  0.2236  0.0603
10416TIP3    H152739   6.719   2.641   0.297 -0.4792  0.5069  0.0330
10416TIP3    H252740   6.778   2.761   0.227 -0.3959  0.4725  0.0436
10417TIP3   OH252741   3.657   5.605  10.888  0.0560  0.0382  0.0888
10417TIP3    H152742   3.618   5.568  10.809  1.2419  0.8848 -0.9348
10417TIP3    H252743   3.648   5.700  10.878  0.7134  0.1795  0.7049
10418TIP3   OH252744   2.235   3.050   3.956  0.3572  0.2077  0.1739
10418TIP3    H152745   2.227   3.141   3.928  0.9968  0.4180  0.6468
10418TIP3    H252746   2.310   3.050   4.016  1.2918 -0.9024 -0.9581
10419TIP3   OH252747   1.469   5.978   2.105 -0.2079  0.2520 -0.6050
10419TIP3    H152748   1.552   5.969   2.152 -2.5238 -2.7861  3.5100
10419TIP3    H252749   1.465   5.902   2.048 -1.2603 -1.3097  1.4316
10420TIP3   OH252750   6.733   4.164   1.481 -0.4718 -0.1388  0.1959
10420TIP3    H152751   6.762   4.249   1.447  0.3810 -0.6263 -0.3264
10420TIP3    H252752   6.755   4.102   1.412 -1.4688 -0.7439  0.3959
10421TIP3   OH252753   1.106   1.860   5.731 -0.0709 -0.0199  0.0832
10421TIP3    H152754   1.191   1.848   5.773  0.2459  1.8501  0.0732
10421TIP3    H252755   1.095   1.783   5.676  1.0821 -0.8497  0.9627
10422TIP3   OH252756   4.444   1.219  14.602  0.1673 -0.0038 -0.3185
10422TIP3    H152757   4.488   1.199  14.519 -0.0655  0.6265 -0.6009
10422TIP3    H252758   4.469   1.147  14.660  3.8557  1.6562  0.4172
10423TIP3   OH252759   2.614   1.168  13.241  0.5018  0.0836  0.3503
10423TIP3    H152760   2.623   1.123  13.157  0.2596 -0.0732  0.4083
10423TIP3    H252761   2.591   1.099  13.304  1.5307  0.0612  0.7164
10424TIP3   OH252762   3.296   1.887  16.278  0.1718 -0.8658  0.1925
10424TIP3    H152763   3.374   1.833  16.267  0.4388 -0.3101 -0.8516
10424TIP3    H252764   3.225   1.824  16.292  0.4767 -1.5075 -0.9746
10425TIP3   OH252765   3.704   2.909  15.880 -0.1275 -0.2961  0.2399
10425TIP3    H152766   3.709   2.923  15.975 -0.7299 -1.3475  0.4476
10425TIP3    H252767   3.780   2.855  15.860 -0.2747 -0.4910  0.2088
10426TIP3   OH252768   4.246   0.296   4.487  0.1604 -0.2907 -0.3209
10426TIP3    H152769   4.170   0.238   4.484  0.8165 -1.1294 -0.9933
10426TIP3    H252770   4.260   0.312   4.580  0.8151 -2.3559 -0.0255
10427TIP3   OH252771   5.215   1.840  15.013 -0.0312 -0.0349  0.1750
10427TIP3    H152772   5.140   1.894  15.038 -1.4550 -2.1702  0.8610
10427TIP3    H252773   5.192   1.808  14.925  0.4113 -0.1596  0.1048
10428TIP3   OH252774   5.080   0.408   0.033  0.3506 -0.0930  0.0273
10428TIP3    H152775   5.003   0.374   0.080 -0.3703  1.8592  0.3631
10428TIP3    H252776   5.099   0.341  -0.033 -0.8979 -1.1787  0.7126
10429TIP3   OH252777   0.724   0.716   0.876  0.0463  0.1896 -0.2306
10429TIP3    H152778   0.789   0.648   0.858  1.9554  1.8990 -0.1466
10429TIP3    H252779   0.655   0.701   0.812  0.8484 -1.2806 -0.7954
10430TIP3   OH252780   5.066   2.413  13.258 -0.4494  0.0288 -0.6083
10430TIP3    H152781   5.147   2.417  13.207 -1.2392  0.1204 -1.9172
10430TIP3    H252782   5.063   2.323  13.291 -0.2487 -0.2569 -1.3347
10431TIP3   OH252783   4.950   1.933   1.944 -0.0762 -0.2778 -0.7001
10431TIP3    H152784   4.900   1.906   2.021  0.8209  2.0082  0.7940
10431TIP3    H252785   4.995   1.853   1.916 -1.7784 -1.5672  0.0554
10432TIP3   OH252786   1.364   5.161   0.282 -0.1054 -0.0981  0.2834
10432TIP3    H152787   1.330   5.193   0.199  1.0150 -1.3190 -0.6930
10432TIP3    H252788   1.356   5.236   0.341 -2.9094  0.1679 -0.2776
10433TIP3   OH252789   0.227   2.314  14.676  0.1912 -0.5886  0.4984
10433TIP3    H152790   0.146   2.307  14.727 -0.3032  1.2323  0.0465
10433TIP3    H252791   0.266   2.396  14.705  1.3500 -0.9339 -0.0379
10434TIP3   OH252792   0.697   3.266   1.491  0.0818  0.4233  0.4248
10434TIP3    H152793   0.629   3.198   1.497  0.4697  0.0549  0.6549
10434TIP3    H252794   0.660   3.340   1.539 -0.0306  0.1190  0.8138
10435TIP3   OH252795   3.832   4.594  17.228  0.0928  0.1164 -0.0851
10435TIP3    H152796   3.804   4.512  17.269 -1.4170  0.6526  0.0259
10435TIP3    H252797   3.859   4.569  17.140  2.1477 -0.8597  0.7620
10436TIP3   OH252798   3.057   2.041   1.683 -0.3587 -0.4498 -0.2844
10436TIP3    H152799   2.983   2.099   1.662 -0.0614  0.1694  0.3353
10436TIP3    H252800   3.026   1.954   1.659  0.4650  0.2329 -4.8666
10437TIP3   OH252801   1.781   1.333   2.873 -0.3136  0.0767  0.2944
10437TIP3    H152802   1.794   1.424   2.902  0.5703 -0.6750  2.4366
10437TIP3    H252803   1.838   1.324   2.797  2.2434  0.4533  2.0293
10438TIP3   OH252804   3.795   6.379  14.348 -0.5725 -0.0403  0.4180
10438TIP3    H152805   3.705   6.411  14.346 -0.1579  1.2166  0.9272
10438TIP3    H252806   3.807   6.334  14.264 -2.0248 -1.2605  0.8225
10439TIP3   OH252807   0.884   2.314   2.257  0.2210 -0.6833  0.0789
10439TIP3    H152808   0.939   2.325   2.335  2.4362 -0.4877 -1.4453
10439TIP3    H252809   0.844   2.400   2.245  0.8268 -0.3593  0.3065
10440TIP3   OH252810   4.860   2.079   6.621  0.6197  0.0709  0.0305
10440TIP3    H152811   4.785   2.129   6.591  1.1090 -1.1527 -3.7640
10440TIP3    H252812   4.926   2.145   6.643 -0.9760  1.1093  2.1630
10441TIP3   OH252813   5.887   4.248  14.946 -0.0212 -0.3640 -0.3699
10441TIP3    H152814   5.795   4.243  14.921 -0.1001  1.2710 -0.5569
10441TIP3    H252815   5.905   4.166  14.991 -2.2459  0.2261  1.8201
10442TIP3   OH252816   0.101   1.276   2.593 -0.5144  0.6236 -0.3197
10442TIP3    H152817   0.103   1.349   2.656 -1.4161  0.6264 -0.2806
10442TIP3    H252818   0.189   1.275   2.555 -0.4527  1.6624 -0.2418
10443TIP3   OH252819   5.401   6.184   4.274 -0.5484 -0.1888  0.3186
10443TIP3    H152820   5.370   6.094   4.269  3.2060 -1.6651  0.4075
10443TIP3    H252821   5.419   6.209   4.184 -1.6600  0.5638  0.2841
10444TIP3   OH252822   4.192   4.240   3.267  0.1786 -0.1127 -0.0562
10444TIP3    H152823   4.233   4.314   3.222  1.0816 -0.3688  0.3241
10444TIP3    H252824   4.115   4.277   3.309  0.4785  0.5649 -0.0917
10445TIP3   OH252825   5.514   1.001   1.944  0.3236 -0.0532 -0.3923
10445TIP3    H152826   5.534   1.020   2.035 -0.2133  2.2554 -0.7092
10445TIP3    H252827   5.588   1.035   1.895 -0.1000  0.1325 -0.9181
10446TIP3   OH252828   0.466   4.484   2.555 -0.4489  0.5796 -0.1789
10446TIP3    H152829   0.454   4.466   2.462 -2.1931  0.3451  0.0576
10446TIP3    H252830   0.378   4.480   2.592  0.4207 -2.2386  2.0164
10447TIP3   OH252831   6.177   6.033   2.320 -0.1114  0.1367  0.0735
10447TIP3    H152832   6.120   6.109   2.332 -1.8182 -1.1945  0.6736
10447TIP3    H252833   6.120   5.964   2.287  0.9429 -1.5021  1.4805
10448TIP3   OH252834   3.293   0.997  12.399 -0.0524  0.3605 -0.4264
10448TIP3    H152835   3.198   0.994  12.389  0.0157 -0.2712 -0.9762
10448TIP3    H252836   3.307   1.041  12.482 -0.8361  0.1240 -0.1594
10449TIP3   OH252837   0.259   6.087   5.836  0.5308 -0.0834  0.2792
10449TIP3    H152838   0.267   6.007   5.784  1.4914  0.6482 -0.7518
10449TIP3    H252839   0.251   6.157   5.771  0.7332  0.7620  1.1433
10450TIP3   OH252840   4.573   3.634   4.706  0.2262  0.0289 -0.1506
10450TIP3    H152841   4.639   3.598   4.647  0.3103  1.5943 -1.0865
10450TIP3    H252842   4.497   3.577   4.695  1.3175 -1.6738  0.7756
10451TIP3   OH252843   6.125   6.250   6.360 -0.5912 -0.3031  0.2747
10451TIP3    H152844   6.075   6.322   6.322  1.9205  1.7787  0.6439
10451TIP3    H252845   6.195   6.293   6.410  3.5472 -2.7569 -2.6871
10452TIP3   OH252846   0.152   1.457   0.190  0.2409  0.3944 -0.2829
10452TIP3    H152847   0.203   1.442   0.269  0.1472 -1.4985 -0.5372
10452TIP3    H252848   0.213   1.443   0.118  0.8395  3.9860 -0.6487
10453TIP3   OH252849   0.701   2.535   5.074  0.3146 -0.5226  0.1654
10453TIP3    H152850   0.638   2.538   5.002  0.2716 -0.4572  0.2061
10453TIP3    H252851   0.650   2.552   5.153 -0.0184 -2.6337  0.4588
10454TIP3   OH252852   2.391   3.980   2.867 -0.0611 -0.2587 -0.2317
10454TIP3    H152853   2.430   4.013   2.786 -3.2510 -0.1325 -1.8581
10454TIP3    H252854   2.340   3.904   2.840 -2.2578  0.5425  1.3711
10455TIP3   OH252855   4.139   0.265   1.718  0.0012  0.0774  0.3008
10455TIP3    H152856   4.054   0.220   1.717  0.8807 -1.6898 -1.7548
10455TIP3    H252857   4.145   0.306   1.631  2.1217 -1.6799 -0.4589
10456TIP3   OH252858   0.611   2.930  17.250 -0.0882  0.3280  0.1161
10456TIP3    H152859   0.579   3.019  17.242 -2.0860 -0.4934 -2.2871
10456TIP3    H252860   0.675   2.921  17.179 -0.8273 -0.4796 -0.4662
10457TIP3   OH252861   5.506   2.630   1.411  0.1346 -0.2866  0.2796
10457TIP3    H152862   5.499   2.638   1.507 -1.4653 -0.7862  0.2322
10457TIP3    H252863   5.538   2.716   1.383 -2.3474  1.0072  1.0498
10458TIP3   OH252864   3.384   4.561  14.754  0.4719  0.1422 -0.1524
10458TIP3    H152865   3.318   4.513  14.702  0.2300  0.4055 -0.0887
10458TIP3    H252866   3.372   4.529  14.843  0.7207 -0.1271 -0.2126
10459TIP3   OH252867   6.302   4.786   1.441  0.1145 -0.1463  0.2748
10459TIP3    H152868   6.356   4.718   1.481 -1.0943 -0.2292  1.8470
10459TIP3    H252869   6.295   4.854   1.509 -1.3774  0.0500 -0.0518
10460TIP3   OH252870   0.719   0.200   3.405 -0.1359 -0.3476  0.1434
10460TIP3    H152871   0.690   0.207   3.496  1.7873  0.8025  0.7129
10460TIP3    H252872   0.813   0.188   3.410  0.6115  3.3300 -1.6737
10461TIP3   OH252873   2.670   2.006  15.358  0.0074  0.1362  0.1195
10461TIP3    H152874   2.744   1.974  15.410 -0.3908  0.0387  0.6374
10461TIP3    H252875   2.691   2.097  15.340  0.3224  0.0694  0.1385
10462TIP3   OH252876   2.472   5.731  13.171  0.1517 -0.3409 -0.5762
10462TIP3    H152877   2.556   5.776  13.158  0.1215 -0.0969  0.0209
10462TIP3    H252878   2.471   5.663  13.104 -0.0626  0.9192 -1.8957
10463TIP3   OH252879   6.630   4.045  15.891 -0.8640 -0.5450  0.2267
10463TIP3    H152880   6.612   4.098  15.969 -0.8996  0.0150 -0.1533
10463TIP3    H252881   6.559   4.067  15.831 -0.1900 -0.0584 -0.4161
10464TIP3   OH252882   0.355   1.939  11.789 -0.2155  0.5484  0.6547
10464TIP3    H152883   0.428   1.983  11.745 -3.3310  3.6512 -2.0468
10464TIP3    H252884   0.339   1.860  11.736  1.7474 -0.8125  1.9702
10465TIP3   OH252885   1.043   1.709   0.354  0.2268 -0.5802  0.2426
10465TIP3    H152886   0.977   1.777   0.344 -0.4656 -1.1138  1.0385
10465TIP3    H252887   1.045   1.666   0.268  1.9493  1.5188 -0.8477
10466TIP3   OH252888   5.895   6.471  15.586  0.2493 -0.5589 -0.1905
10466TIP3    H152889   5.891   6.557  15.546  0.7716 -0.2350  0.4304
10466TIP3    H252890   5.830   6.419  15.539  0.5879 -0.0907 -1.1857
10467TIP3   OH252891   3.538   3.569  13.919  0.1070 -0.5009  0.3978
10467TIP3    H152892   3.478   3.642  13.905  0.8758  0.2624  0.9770
10467TIP3    H252893   3.589   3.564  13.838  2.6886  2.1500  1.6742
10468TIP3   OH252894   3.556   4.324  12.904 -0.0447 -0.6067 -0.1248
10468TIP3    H152895   3.568   4.346  12.996 -1.4796  0.2650 -0.1232
10468TIP3    H252896   3.536   4.231  12.904 -1.0177 -0.4123  0.5553
10469TIP3   OH252897   6.347   6.723   2.184 -0.1014  0.3304  0.2274
10469TIP3    H152898   6.324   6.647   2.237 -1.6697  0.2944 -0.4456
10469TIP3    H252899   6.387   6.687   2.105 -1.2994  0.1429 -0.3173
10470TIP3   OH252900   5.423   5.479  16.588  0.3721  0.3166 -0.8866
10470TIP3    H152901   5.358   5.495  16.656 -0.0961  0.9503 -1.4662
10470TIP3    H252902   5.425   5.560  16.537  1.8515  0.4205 -0.6944
10471TIP3   OH252903   1.773   1.732  15.981 -0.3688 -0.3286  0.6661
10471TIP3    H152904   1.739   1.667  15.920  0.3555  0.6315 -0.8013
10471TIP3    H252905   1.716   1.724  16.058  0.2495 -3.2863  0.9182
10472TIP3   OH252906   5.228   3.695   4.631 -0.2031 -0.0446 -0.3854
10472TIP3    H152907   5.185   3.773   4.595 -0.9509 -0.1727  0.2071
10472TIP3    H252908   5.295   3.673   4.567 -1.1555  0.0455 -1.4418
10473TIP3   OH252909   1.359   5.108   5.035  0.3122 -0.4071 -0.2313
10473TIP3    H152910   1.306   5.079   4.961 -0.8688  2.2352 -0.5604
10473TIP3    H252911   1.313   5.075   5.112 -0.9821  0.4858 -0.5790
10474TIP3   OH252912   1.126   1.415   0.760  0.1252 -0.5577  0.6136
10474TIP3    H152913   1.096   1.505   0.770  1.4659 -0.1835  1.5047
10474TIP3    H252914   1.144   1.405   0.666  0.2128  0.1736  0.5513
10475TIP3   OH252915   2.533   0.988   5.322 -0.0521 -0.1313  0.1953
10475TIP3    H152916   2.510   0.895   5.330 -1.1977  0.0141 -1.1041
10475TIP3    H252917   2.555   1.000   5.230  0.0207  0.9031  0.3370
10476TIP3   OH252918   1.397   5.837  12.002 -0.3919 -0.3420  0.3113
10476TIP3    H152919   1.450   5.902  12.048 -0.8817 -0.0940  0.5285
10476TIP3    H252920   1.419   5.754  12.045 -0.5806 -0.1613  0.7633
10477TIP3   OH252921   4.191   1.840  15.978  0.3228  0.4843  0.0969
10477TIP3    H152922   4.151   1.911  15.928 -1.0170 -0.4575 -0.2467
10477TIP3    H252923   4.117   1.800  16.025  1.3544  0.5696  1.8677
10478TIP3   OH252924   0.197   2.804   3.390 -0.3387 -0.1455 -0.0053
10478TIP3    H152925   0.266   2.858   3.350  0.9971 -2.2168 -0.6656
10478TIP3    H252926   0.208   2.718   3.349 -1.3330 -1.3654  2.1677
10479TIP3   OH252927   4.669   5.025  12.468 -0.3940 -0.4527 -0.2404
10479TIP3    H152928   4.690   4.935  12.443 -2.4841 -1.6384  1.8606
10479TIP3    H252929   4.617   5.058  12.395  0.7982 -0.7165 -1.2530
10480TIP3   OH252930   1.007   0.332   0.185 -0.2873  0.3487 -0.3075
10480TIP3    H152931   0.917   0.300   0.189 -0.3832  0.6603  0.0395
10480TIP3    H252932   1.004   0.419   0.225  0.1553  0.3860 -0.3481
10481TIP3   OH252933   4.139   1.905  10.696 -0.1400  0.2011 -0.3450
10481TIP3    H152934   4.190   1.829  10.726 -1.2718 -0.9140 -1.1416
10481TIP3    H252935   4.187   1.938  10.620 -0.2265 -0.4331 -0.6839
10482TIP3   OH252936   3.575   5.829   3.090 -0.3635 -0.0728 -0.0035
10482TIP3    H152937   3.551   5.909   3.043  0.2298  1.2048  1.7351
10482TIP3    H252938   3.562   5.759   3.027 -3.1293  1.1229 -0.9059
10483TIP3   OH252939   1.057   6.285   2.225 -0.0061  0.2094  0.1497
10483TIP3    H152940   0.976   6.335   2.225 -0.2292 -0.1376 -0.7354
10483TIP3    H252941   1.044   6.218   2.158  0.8056 -0.1864  0.3730
10484TIP3   OH252942   2.841   4.518   2.819 -0.8254 -0.0236  0.1610
10484TIP3    H152943   2.902   4.485   2.885  0.8718  1.2831 -0.6756
10484TIP3    H252944   2.787   4.582   2.866 -1.2882 -0.8700  0.8100
10485TIP3   OH252945   1.351   0.571   1.435  0.0134  0.1853  0.0009
10485TIP3    H152946   1.405   0.557   1.358 -0.1125  0.5313 -0.1511
10485TIP3    H252947   1.298   0.492   1.442  0.9871 -0.4460  0.5203
10486TIP3   OH252948   2.669   3.662  15.212 -0.6883 -0.2321  0.7779
10486TIP3    H152949   2.693   3.584  15.160 -0.1258  1.5547 -1.8415
10486TIP3    H252950   2.725   3.656  15.290 -1.9864 -3.3382  1.6399
10487TIP3   OH252951   4.106   6.522   3.548  0.1082  0.2773  0.3017
10487TIP3    H152952   4.129   6.458   3.480  0.1971  1.5655 -0.9147
10487TIP3    H252953   4.015   6.500   3.571  0.2788 -0.5454  0.2145
10488TIP3   OH252954   5.646   5.035  12.035  0.4765  0.7864  0.0264
10488TIP3    H152955   5.671   5.126  12.051  0.3108  0.7905  0.2760
10488TIP3    H252956   5.728   4.986  12.036  0.4497  0.7338  1.2781
10489TIP3   OH252957   4.246   3.545   5.400 -0.2803  0.3104 -0.0075
10489TIP3    H152958   4.185   3.564   5.329 -0.1962  2.5124  0.4565
10489TIP3    H252959   4.202   3.576   5.479  1.5061  2.2410  0.3091
10490TIP3   OH252960   2.234   6.495  16.441  0.2553  0.5820  0.0039
10490TIP3    H152961   2.253   6.584  16.411 -0.9675  0.8536  0.0042
10490TIP3    H252962   2.312   6.445  16.417  0.4926  1.4100 -1.0176
10491TIP3   OH252963   0.493   1.300   0.937 -0.1595  0.0121  0.2825
10491TIP3    H152964   0.566   1.309   0.875  0.3888 -0.6744  0.8186
10491TIP3    H252965   0.446   1.223   0.907 -1.0667  0.8218 -0.4472
10492TIP3   OH252966   4.689   4.711   1.912  0.2934  0.3271 -0.7356
10492TIP3    H152967   4.639   4.705   1.993  0.3914 -0.7076 -0.7360
10492TIP3    H252968   4.777   4.680   1.935  0.5240  0.7074 -1.0744
10493TIP3   OH252969   4.552   4.612  15.545  0.1071  0.0496  0.3868
10493TIP3    H152970   4.572   4.658  15.626 -3.3160 -0.3377  1.5941
10493TIP3    H252971   4.499   4.673  15.495 -1.0507 -1.0748  0.1964
10494TIP3   OH252972   6.636   5.087   0.427  0.1943  0.3336 -0.0632
10494TIP3    H152973   6.638   5.012   0.367 -0.7440  1.0887 -1.0932
10494TIP3    H252974   6.627   5.163   0.369 -1.6032  1.0289  1.0369
10495TIP3   OH252975   4.646   3.054   2.758  0.5319 -0.4891  0.3293
10495TIP3    H152976   4.590   3.057   2.836  1.8599 -0.5566  1.3107
10495TIP3    H252977   4.645   2.962   2.731  0.7561 -0.6297  0.7914
10496TIP3   OH252978   6.050   2.344  16.865 -0.4117 -0.6198  0.1628
10496TIP3    H152979   6.044   2.274  16.930  0.1304 -0.1125  0.7697
10496TIP3    H252980   6.128   2.322  16.813  1.6444  1.1250  2.3211
10497TIP3   OH252981   1.425   0.823  13.504 -0.5078  0.0121 -0.0262
10497TIP3    H152982   1.444   0.821  13.597  1.0571  0.7784 -0.2974
10497TIP3    H252983   1.330   0.812  13.498 -0.3813 -2.4725  1.5141
10498TIP3   OH252984   5.891   3.303   5.379  0.4177 -0.0138  0.2201
10498TIP3    H152985   5.889   3.372   5.314  0.3045  0.3791  0.6341
10498TIP3    H252986   5.930   3.343   5.456 -2.3405  0.4967  1.4707
10499TIP3   OH252987   3.204   4.332   5.566 -0.1379  0.1814  0.7264
10499TIP3    H152988   3.163   4.324   5.653 -1.1106 -0.8631  0.2041
10499TIP3    H252989   3.225   4.242   5.542  1.7350  0.6207  0.6028
10500TIP3   OH252990   2.548   6.756   5.639 -0.2877 -0.4624  0.0670
10500TIP3    H152991   2.621   6.805   5.603 -0.5870  0.3539  0.5536
10500TIP3    H252992   2.473   6.779   5.583 -0.2006 -1.2357 -0.3832
10501TIP3   OH252993   1.063   4.538  14.993 -0.4062 -0.1527 -0.2380
10501TIP3    H152994   1.156   4.542  15.017  0.3410  1.3151 -2.9563
10501TIP3    H252995   1.063   4.548  14.898 -3.4559  1.8286 -0.1458
10502TIP3   OH252996   2.505   3.484  16.031  0.1272  0.1719  0.0655
10502TIP3    H152997   2.453   3.501  15.952  0.6220  2.9013  0.2086
10502TIP3    H252998   2.563   3.412  16.006 -0.2812  0.4256 -1.7974
10503TIP3   OH252999   2.474   6.524  13.813  0.1415  0.7722 -0.1328
10503TIP3    H153000   2.437   6.449  13.768  2.3973 -1.5700  1.6155
10503TIP3    H253001   2.537   6.561  13.751 -0.9981  1.2764 -1.0114
10504TIP3   OH253002   4.279   0.252   0.067 -0.3023  0.0586  0.8897
10504TIP3    H153003   4.225   0.331   0.066  1.0294  1.0159 -0.1559
10504TIP3    H253004   4.223   0.184   0.030 -0.6739  1.1261 -0.5956
10505TIP3   OH253005   3.862   0.641   0.194  0.0131 -0.1159  0.1766
10505TIP3    H153006   3.835   0.732   0.179 -2.3590 -0.8079 -0.1800
10505TIP3    H253007   3.849   0.598   0.110 -0.2394 -1.0806  0.7001
10506TIP3   OH253008   2.166   6.170  11.892 -0.2025  0.6389  0.0168
10506TIP3    H153009   2.114   6.090  11.878 -0.0605  0.3962  0.7985
10506TIP3    H253010   2.116   6.239  11.849 -0.6028  0.2223 -0.2031
10507TIP3   OH253011   2.850   2.641   4.689  0.1014 -0.1019 -0.4345
10507TIP3    H153012   2.895   2.567   4.730  1.4193  0.6676 -0.4258
10507TIP3    H253013   2.850   2.620   4.596 -0.1502 -0.4298 -0.3628
10508TIP3   OH253014   6.386   1.656  16.448 -0.0350  0.2459  0.0717
10508TIP3    H153015   6.458   1.614  16.495  0.0098 -0.1518 -0.3523
10508TIP3    H253016   6.356   1.725  16.508  1.7266  1.4890 -0.3909
10509TIP3   OH253017   2.583   2.465  15.414  0.2921 -0.3487  0.2063
10509TIP3    H153018   2.528   2.537  15.444  0.7413  0.1645 -0.1877
10509TIP3    H253019   2.536   2.386  15.440 -1.3317  0.0512 -1.3896
10510TIP3   OH253020   5.726   4.934   3.611  0.0153 -0.1252 -1.0768
10510TIP3    H153021   5.700   5.004   3.671  0.3887 -0.2501 -0.7610
10510TIP3    H253022   5.649   4.876   3.607  0.2311 -0.5007 -0.1394
10511TIP3   OH253023   2.307   2.680  11.663  0.1075 -0.6494  0.1168
10511TIP3    H153024   2.273   2.595  11.636  1.2894 -1.6522  1.6950
10511TIP3    H253025   2.242   2.713  11.725 -2.0144  1.1421 -2.7876
10512TIP3   OH253026   2.070   4.246   0.909 -0.1496  0.4449  0.2380
10512TIP3    H153027   2.074   4.253   1.005 -2.9912 -0.5899  0.5480
10512TIP3    H253028   2.106   4.329   0.878  3.8405 -0.4148  1.9900
10513TIP3   OH253029   6.363   0.542  17.176 -0.0173  0.2098 -0.1585
10513TIP3    H153030   6.340   0.458  17.216  0.9082 -0.2794 -0.6259
10513TIP3    H253031   6.392   0.597  17.249 -2.9893  1.0329  0.5585
10514TIP3   OH253032   6.040   6.581  13.538  0.2874  0.3328 -0.2448
10514TIP3    H153033   5.945   6.588  13.527  0.5324  1.3658 -2.0988
10514TIP3    H253034   6.055   6.488  13.556 -0.9888 -0.0346 -0.9564
10515TIP3   OH253035   6.187   6.600  12.038 -0.5341 -0.1915 -0.5005
10515TIP3    H153036   6.265   6.548  12.060 -0.6708 -0.8181 -1.4635
10515TIP3    H253037   6.184   6.600  11.943 -1.1325  0.7151 -0.4892
10516TIP3   OH253038   2.803   2.089   0.120  0.1200 -0.3152 -0.0264
10516TIP3    H153039   2.864   2.091   0.047  1.1398  0.2241  0.8130
10516TIP3    H253040   2.718   2.072   0.080  0.2603  2.2753 -1.6228
10517TIP3   OH253041   4.854   3.363   0.691 -0.4833 -0.1062 -0.0383
10517TIP3    H153042   4.762   3.373   0.668 -0.1338 -0.1571 -1.5778
10517TIP3    H253043   4.873   3.437   0.748 -1.4961 -0.1823  0.4208
10518TIP3   OH253044   3.083   1.455  12.885 -0.3896  0.7431  0.2460
10518TIP3    H153045   3.029   1.517  12.835 -1.3284  0.0883  0.4373
10518TIP3    H253046   3.042   1.370  12.871  1.7718 -0.1662 -1.3161
10519TIP3   OH253047   6.609   4.759   1.375 -0.4504  0.1636  0.0003
10519TIP3    H153048   6.602   4.763   1.279  1.1830  0.3921 -0.1476
10519TIP3    H253049   6.588   4.847   1.404 -1.0196  0.0762 -0.1378
10520TIP3   OH253050   3.222   6.776   3.592 -1.1035 -0.2098 -0.3200
10520TIP3    H153051   3.141   6.827   3.593 -0.9540  0.0507  1.5995
10520TIP3    H253052   3.225   6.733   3.677  1.8873  1.5839  0.6221
10521TIP3   OH253053   4.184   5.278  11.713  0.5965  0.4750 -0.2433
10521TIP3    H153054   4.140   5.362  11.698  0.9136  0.4854 -1.2003
10521TIP3    H253055   4.151   5.221  11.644 -1.4714 -0.9773  1.7998
10522TIP3   OH253056   4.443   3.991   2.811 -0.1777  0.6742  0.0833
10522TIP3    H153057   4.356   3.953   2.813  1.2671 -2.9721  1.4066
10522TIP3    H253058   4.479   3.964   2.726  0.7003 -0.5714  0.8302
10523TIP3   OH253059   5.854   1.303   4.933  0.0274 -0.2467  0.4127
10523TIP3    H153060   5.931   1.259   4.896  0.4995  0.6069  0.3626
10523TIP3    H253061   5.786   1.236   4.931  0.9150 -1.2044  0.9935
10524TIP3   OH253062   1.642   5.454   0.177 -0.5774  0.3076  0.3455
10524TIP3    H153063   1.548   5.473   0.180 -0.6301  0.1008  0.0443
10524TIP3    H253064   1.649   5.379   0.117 -0.1545  0.7288 -0.1381
10525TIP3   OH253065   0.938   0.470  14.943  1.1353 -0.5052  0.2326
10525TIP3    H153066   0.988   0.449  15.022  1.0743  0.1478  0.4451
10525TIP3    H253067   0.961   0.561  14.923  1.0886 -0.6364 -0.4578
10526TIP3   OH253068   4.580   1.555   1.075 -0.0490 -0.4804  0.4747
10526TIP3    H153069   4.649   1.492   1.057 -0.5096 -1.4138  1.7983
10526TIP3    H253070   4.571   1.605   0.994  2.0888 -0.3999  0.2370
10527TIP3   OH253071   5.019   4.929  16.816  0.2909 -0.2570 -0.3513
10527TIP3    H153072   4.987   4.906  16.729  0.5963  0.3467 -0.6339
10527TIP3    H253073   4.942   4.926  16.872  0.4109 -2.4682 -0.2458
10528TIP3   OH253074   2.232   0.227  11.051 -0.1896 -0.2430 -0.0003
10528TIP3    H153075   2.166   0.246  10.984 -0.3449  2.4255  0.7794
10528TIP3    H253076   2.315   0.227  11.003 -0.3667  0.9185 -0.3610
10529TIP3   OH253077   4.055   2.120  15.094  0.1094  0.3213 -0.1521
10529TIP3    H153078   4.136   2.084  15.060  0.9889  1.4367  0.7081
10529TIP3    H253079   4.023   2.178  15.025 -0.3179 -0.5980 -0.7513
10530TIP3   OH253080   4.269   2.423   1.968 -0.0312  0.0167  0.1983
10530TIP3    H153081   4.219   2.487   2.019  0.3155 -0.6507  1.3949
10530TIP3    H253082   4.270   2.344   2.022 -0.3114 -0.9663 -1.1862
10531TIP3   OH253083   5.661   2.518  13.883 -0.3625  0.3030  0.0791
10531TIP3    H153084   5.589   2.568  13.920  0.9573  0.5504  2.4556
10531TIP3    H253085   5.675   2.446  13.945  0.7885 -0.3428 -0.8809
10532TIP3   OH253086   4.988   2.241   3.371 -0.1200  0.2668 -0.2696
10532TIP3    H153087   5.028   2.154   3.369 -1.5798 -0.4328 -1.5627
10532TIP3    H253088   4.894   2.223   3.372 -0.4419  1.8457  1.5359
10533TIP3   OH253089   4.680   1.656   5.080  0.1978 -0.6521  0.6843
10533TIP3    H153090   4.725   1.715   5.140 -0.7778 -0.1850  0.9645
10533TIP3    H253091   4.587   1.674   5.093 -0.0753 -1.4997  0.0060
10534TIP3   OH253092   1.041   0.569  11.017  0.0193 -0.7118  0.4482
10534TIP3    H153093   0.979   0.584  11.088 -1.2570  0.5681 -0.8580
10534TIP3    H253094   1.045   0.652  10.970 -0.3529 -1.8939 -1.8510
10535TIP3   OH253095   4.730   3.352  11.006  0.1456 -0.1221 -0.1452
10535TIP3    H153096   4.793   3.392  10.947  0.5987  1.0985  1.1169
10535TIP3    H253097   4.658   3.324  10.949  0.9280  0.2656 -1.3592
10536TIP3   OH253098   4.835   2.878  13.096 -0.0245  0.9207 -0.0065
10536TIP3    H153099   4.870   2.876  13.007 -0.4835  2.4451 -0.2544
10536TIP3    H253100   4.846   2.789  13.128 -0.5209  0.1464 -1.8469
10537TIP3   OH253101   5.140   5.365   3.931 -0.1559 -0.2271 -0.3989
10537TIP3    H153102   5.232   5.339   3.931 -0.4856 -1.4440 -0.3051
10537TIP3    H253103   5.109   5.348   4.020  0.0464  2.1952  0.1934
10538TIP3   OH253104   6.591   0.971  13.485 -0.7331 -0.4688  0.0253
10538TIP3    H153105   6.564   1.062  13.472  1.5793  0.1937 -0.5785
10538TIP3    H253106   6.523   0.934  13.541 -2.7503  1.0535 -1.2764
10539TIP3   OH253107   3.533   5.890   4.354 -0.0679  0.3991 -0.0374
10539TIP3    H153108   3.575   5.904   4.439  0.5341 -1.7687  0.0884
10539TIP3    H253109   3.521   5.977   4.319 -1.1251  1.4489  2.6427
10540TIP3   OH253110   5.972   0.389   2.129  0.0797  0.2377  0.2214
10540TIP3    H153111   6.003   0.299   2.139  2.4793  0.7460 -1.6598
10540TIP3    H253112   6.001   0.415   2.042 -1.8557  2.3825  0.1132
10541TIP3   OH253113   3.529   1.412   2.570  0.2127 -0.5140 -0.0067
10541TIP3    H153114   3.441   1.376   2.577  0.0271 -0.5451 -2.0306
10541TIP3    H253115   3.516   1.507   2.569  0.1226 -0.5319 -1.0552
10542TIP3   OH253116   1.320   3.995  15.109 -0.0412  0.3889  0.0584
10542TIP3    H153117   1.255   4.053  15.150 -1.2519 -0.8367 -0.0649
10542TIP3    H253118   1.396   4.001  15.166  0.5296  3.3566 -0.8205
10543TIP3   OH253119   3.703   2.754  12.413  0.3262 -0.5067  0.4602
10543TIP3    H153120   3.703   2.765  12.508 -1.9720  1.8049  0.3164
10543TIP3    H253121   3.775   2.694  12.396  0.6695 -1.2049  3.6614
10544TIP3   OH253122   6.378   3.982  14.016 -0.1417 -0.1737 -1.0754
10544TIP3    H153123   6.313   3.983  13.945 -0.9303 -1.8227 -0.4440
10544TIP3    H253124   6.365   3.897  14.057  1.4849  0.0635 -0.0271
10545TIP3   OH253125   2.983   3.972  12.855  0.3298 -0.0579 -0.1329
10545TIP3    H153126   2.989   3.897  12.796  0.7761 -0.6990  0.7054
10545TIP3    H253127   3.060   3.965  12.911  0.2268  0.8732  0.1474
10546TIP3   OH253128   2.073   5.430  12.695 -0.3472  0.0003  0.3511
10546TIP3    H153129   2.112   5.502  12.645 -0.8694 -0.5231 -0.8581
10546TIP3    H253130   2.140   5.406  12.759  0.5742  0.3328 -0.4614
10547TIP3   OH253131   1.039   4.532   4.711 -0.7135  0.1534  0.0098
10547TIP3    H153132   1.035   4.624   4.686  1.6467  0.2862 -0.1084
10547TIP3    H253133   1.015   4.484   4.632 -0.9253  0.6625 -0.2369
10548TIP3   OH253134   3.460   4.310   2.807 -0.0280  0.1370 -0.4870
10548TIP3    H153135   3.382   4.263   2.776  0.8161 -1.0448 -0.9143
10548TIP3    H253136   3.493   4.256   2.879  0.7865  0.2530 -0.7683
10549TIP3   OH253137   1.993   2.206   0.441 -0.3344  0.0052 -0.3103
10549TIP3    H153138   1.944   2.282   0.469 -1.4192  0.4641 -3.1144
10549TIP3    H253139   2.024   2.165   0.522  1.6265  4.1693  1.3330
10550TIP3   OH253140   3.809   3.638   6.169  0.0500 -0.9931 -0.2599
10550TIP3    H153141   3.832   3.554   6.209  0.3538 -1.4265 -1.3085
10550TIP3    H253142   3.797   3.697   6.243  2.0215 -1.3943  0.4512
10551TIP3   OH253143   4.196   4.684  17.045  0.4979  0.1295 -0.1962
10551TIP3    H153144   4.197   4.611  17.106  0.5606 -0.6725 -1.1234
10551TIP3    H253145   4.261   4.660  16.978  3.1126  2.6089  1.2274
10552TIP3   OH253146   5.102   1.041   3.258 -0.2866 -0.6683  0.4581
10552TIP3    H153147   5.035   1.004   3.200  0.1818  1.3356 -1.5025
10552TIP3    H253148   5.161   0.968   3.275 -0.6631 -1.4512 -1.2961
10553TIP3   OH253149   1.775   4.756  12.792 -0.8449 -0.3904 -0.2259
10553TIP3    H153150   1.862   4.793  12.808 -0.6913 -1.2916  1.1774
10553TIP3    H253151   1.720   4.792  12.861 -1.5548  0.0090 -0.9837
10554TIP3   OH253152   0.593   4.636  15.752 -0.2160 -0.0922 -0.3280
10554TIP3    H153153   0.628   4.630  15.663 -1.2340 -0.4391 -0.7112
10554TIP3    H253154   0.597   4.729  15.773 -0.2185  0.0258 -0.8342
10555TIP3   OH253155   6.536   1.263   4.639 -0.0881 -0.0229  0.2985
10555TIP3    H153156   6.518   1.223   4.724 -2.3147 -1.1132 -0.6195
10555TIP3    H253157   6.495   1.205   4.576 -1.8939  2.7302 -1.2659
10556TIP3   OH253158   0.254   2.395  16.058  0.4643 -0.1635  0.4637
10556TIP3    H153159   0.270   2.449  16.135 -0.8785 -1.0757  1.4343
10556TIP3    H253160   0.199   2.324  16.090  0.8408 -1.2129 -1.1102
10557TIP3   OH253161   2.319   5.998   5.402  0.3512  0.0240  0.4340
10557TIP3    H153162   2.317   5.971   5.311 -0.4312  1.7719 -0.1078
10557TIP3    H253163   2.405   5.969   5.434  0.9786  0.1077 -1.0993
10558TIP3   OH253164   1.482   5.162   1.161 -0.2573 -0.0700  0.5908
10558TIP3    H153165   1.479   5.101   1.088  1.1860 -2.2818  2.2529
10558TIP3    H253166   1.408   5.136   1.217 -1.8469  2.1157 -0.3525
10559TIP3   OH253167   3.848   1.974  11.151 -0.4826 -0.1917 -0.3436
10559TIP3    H153168   3.894   2.037  11.206 -1.1156  0.0898 -0.1350
10559TIP3    H253169   3.756   1.998  11.158 -0.4190  1.6908 -3.7608
10560TIP3   OH253170   0.955   5.006  12.295 -0.0314 -0.4978 -0.2924
10560TIP3    H153171   0.901   4.940  12.339 -2.4465  1.0248 -0.7978
10560TIP3    H253172   0.973   5.071  12.364  1.1491 -0.9363 -0.1561
10561TIP3   OH253173   1.956   3.910   6.049  0.1013 -0.0558  0.0097
10561TIP3    H153174   2.012   3.901   5.972 -0.6519  3.2633 -1.0961
10561TIP3    H253175   1.881   3.853   6.031 -0.7269  1.6119 -2.5141
10562TIP3   OH253176   2.805   6.682  17.288 -0.5582 -0.2239 -0.6038
10562TIP3    H153177   2.861   6.650  17.217 -1.7363  0.8656 -2.1090
10562TIP3    H253178   2.756   6.605  17.317 -0.1115 -0.6759 -1.0410
10563TIP3   OH253179   6.790   4.987   1.767 -0.1936 -0.1171 -0.0490
10563TIP3    H153180   6.832   5.053   1.822 -0.9972  0.9752 -0.7054
10563TIP3    H253181   6.819   4.903   1.804 -0.4225  0.5688  1.8005
10564TIP3   OH253182   5.600   1.095   3.352 -0.1301 -0.1933 -0.0794
10564TIP3    H153183   5.525   1.140   3.390 -1.1535 -1.7104 -0.2262
10564TIP3    H253184   5.597   1.115   3.259 -0.1152  0.0654 -0.0241
10565TIP3   OH253185   0.067   2.047  11.229  0.0015 -0.2479  0.0833
10565TIP3    H153186   0.043   1.954  11.231 -0.7304 -0.0558  1.1960
10565TIP3    H253187   0.087   2.069  11.320  0.3777  0.6341 -0.2028
10566TIP3   OH253188   2.170   5.307   2.116  0.1896 -0.2126 -0.1521
10566TIP3    H153189   2.151   5.252   2.040 -0.4439 -0.3121  0.0763
10566TIP3    H253190   2.178   5.395   2.081 -0.3400 -0.2233 -0.3078
10567TIP3   OH253191   0.702   1.615  12.318  0.3447 -0.4108  0.4105
10567TIP3    H153192   0.797   1.627  12.325  0.2183  2.4581 -1.3639
10567TIP3    H253193   0.671   1.625  12.408  1.6272 -0.0333  0.8411
10568TIP3   OH253194   5.059   0.093  16.281  0.2851  0.4706 -0.5196
10568TIP3    H153195   5.002   0.019  16.262  0.2952  0.1744  0.5099
10568TIP3    H253196   4.999   0.167  16.289 -0.0249  0.1024  0.8696
10569TIP3   OH253197   6.559   0.896  15.581  0.1594  0.0342  0.0600
10569TIP3    H153198   6.612   0.951  15.523  0.0163 -0.8614 -0.9311
10569TIP3    H253199   6.621   0.832  15.616 -0.2154 -0.8748 -0.9238
10570TIP3   OH253200   3.744   2.376   4.544  1.0612  0.0744  0.6910
10570TIP3    H153201   3.768   2.287   4.517  2.5281  0.4785  0.5450
10570TIP3    H253202   3.794   2.433   4.484  0.8666  0.9847  1.3794
10571TIP3   OH253203   2.341   1.133  13.722  0.2117  0.8200 -0.3602
10571TIP3    H153204   2.275   1.155  13.787 -1.3248  1.6771 -2.1033
10571TIP3    H253205   2.362   1.216  13.680  1.4448  0.3527 -0.7206
10572TIP3   OH253206   0.272   0.323   5.525  0.3176  0.3239 -0.1035
10572TIP3    H153207   0.310   0.398   5.479  0.5889  0.7127  0.7449
10572TIP3    H253208   0.316   0.247   5.487  0.8732  0.6728 -0.1728
10573TIP3   OH253209   6.760   2.917   3.234  0.2602  0.6613  0.5975
10573TIP3    H153210   6.830   2.887   3.292 -1.1269 -2.7189  0.7577
10573TIP3    H253211   6.797   2.907   3.146  0.6610  0.8149  0.7476
10574TIP3   OH253212   5.310   0.434  12.038  0.2486  0.1805  0.3431
10574TIP3    H153213   5.222   0.430  12.000 -0.4595 -0.0731  1.9404
10574TIP3    H253214   5.344   0.345  12.030 -1.2685 -0.7996  3.2971
10575TIP3   OH253215   3.315   1.787   5.913 -0.0953 -0.1817 -0.3969
10575TIP3    H153216   3.267   1.858   5.956  1.1891  0.6999 -0.3549
10575TIP3    H253217   3.259   1.711   5.924 -0.8093  0.4879  0.9448
10576TIP3   OH253218   0.268   1.803  13.374 -0.0563 -0.2053  0.0856
10576TIP3    H153219   0.310   1.717  13.366  0.7162  0.2551 -0.8632
10576TIP3    H253220   0.243   1.827  13.285  0.2645  0.8144  0.2552
10577TIP3   OH253221   4.470   2.533   4.452  0.2980  0.0859  0.2219
10577TIP3    H153222   4.421   2.460   4.413  3.1731 -2.0564  0.2399
10577TIP3    H253223   4.494   2.501   4.539  0.7544  1.5118  0.6387
10578TIP3   OH253224   3.990   4.308   4.283 -0.1760  0.3858  0.3978
10578TIP3    H153225   3.962   4.217   4.296  2.5559 -0.5548  0.3329
10578TIP3    H253226   4.062   4.303   4.220  0.1000  2.5979  0.4388
10579TIP3   OH253227   2.116   4.043   5.695  0.1477 -0.1870 -0.4092
10579TIP3    H153228   2.124   4.007   5.607  0.0567 -0.9033 -0.1312
10579TIP3    H253229   2.078   4.130   5.682 -0.0446 -0.3633 -1.0616
10580TIP3   OH253230   0.292   1.745  17.207 -0.0243  0.7450 -0.3024
10580TIP3    H153231   0.273   1.825  17.158 -1.2683  0.5815 -0.1191
10580TIP3    H253232   0.260   1.762  17.295 -0.7175 -0.1019 -0.3717
10581TIP3   OH253233   2.969   4.390   1.001 -0.8746  0.1888  0.2178
10581TIP3    H153234   3.034   4.379   0.932 -1.5821 -1.1634 -0.2656
10581TIP3    H253235   2.914   4.463   0.971 -0.0468  0.8488  0.2814
10582TIP3   OH253236   0.885   0.005   4.215  0.5619 -0.0018  0.5084
10582TIP3    H153237   0.907  -0.082   4.182 -1.7640 -0.6268  0.3881
10582TIP3    H253238   0.834  -0.012   4.295  0.5530  1.2641  0.7907
10583TIP3   OH253239   5.796   1.888   4.889  0.0520  0.3634 -0.5534
10583TIP3    H153240   5.869   1.830   4.911 -0.4170 -0.5279 -1.2760
10583TIP3    H253241   5.725   1.859   4.945 -0.6522 -0.8369 -1.9742
10584TIP3   OH253242   6.685   3.122  13.103  0.1955 -0.0198 -0.6083
10584TIP3    H153243   6.589   3.119  13.097  0.0991  1.0544  0.0226
10584TIP3    H253244   6.715   3.095  13.017 -0.6784 -0.3055 -0.8389
10585TIP3   OH253245   0.576   4.379   0.502  0.0233  0.4327 -0.2830
10585TIP3    H153246   0.503   4.363   0.562  0.2531  0.9174  0.1391
10585TIP3    H253247   0.630   4.443   0.548  0.5374  0.3279 -0.7412
10586TIP3   OH253248   6.479   2.740   4.353  0.5994 -0.2027 -0.1483
10586TIP3    H153249   6.438   2.799   4.415  2.5987 -0.5514  1.6254
10586TIP3    H253250   6.434   2.657   4.365  0.4156 -0.0506  0.2178
10587TIP3   OH253251   4.841   2.993   3.851 -0.2985  0.3617  0.1465
10587TIP3    H153252   4.784   2.974   3.925  0.0158  1.9396  0.8416
10587TIP3    H253253   4.781   3.002   3.776 -0.9296  1.3994  0.7504
10588TIP3   OH253254   4.340   5.418   3.071 -0.2418  0.4224  0.1944
10588TIP3    H153255   4.398   5.482   3.029  0.8691 -0.1137  0.8565
10588TIP3    H253256   4.262   5.468   3.094 -1.3462  0.5534 -3.2664
10589TIP3   OH253257   4.833   2.538  14.616 -0.4588 -0.7251 -0.5447
10589TIP3    H153258   4.826   2.445  14.596 -0.3029 -1.1123  1.0948
10589TIP3    H253259   4.750   2.561  14.657  0.2856 -0.6898  1.0272
10590TIP3   OH253260   4.160   3.004   5.819 -0.1379  0.2359 -0.2489
10590TIP3    H153261   4.186   3.061   5.747 -0.0460  0.7688  0.1998
10590TIP3    H253262   4.152   2.917   5.780  2.9413 -0.1110 -0.3066
10591TIP3   OH253263   1.319   0.300  16.962 -0.7552  0.0770 -0.0679
10591TIP3    H153264   1.359   0.221  16.999  1.3631  0.9065 -0.4541
10591TIP3    H253265   1.332   0.368  17.028  1.5809  1.1685 -1.5297
10592TIP3   OH253266   1.012   4.653   3.115 -0.6543 -0.5448 -0.1546
10592TIP3    H153267   1.039   4.721   3.176 -3.5121  0.0921  0.5546
10592TIP3    H253268   1.028   4.571   3.163 -0.5662 -0.1858  0.4419
10593TIP3   OH253269   4.826   5.504   0.279 -0.1336  0.1692 -0.7687
10593TIP3    H153270   4.879   5.467   0.208  1.6661  1.4244 -0.1692
10593TIP3    H253271   4.823   5.436   0.346  1.3125  0.2762 -0.5611
10594TIP3   OH253272   4.806   5.958   2.904  0.4717  0.2837  0.0334
10594TIP3    H153273   4.831   5.898   2.974  0.1965 -1.3477 -1.1992
10594TIP3    H253274   4.842   6.042   2.930 -0.9570  0.1367  2.9162
10595TIP3   OH253275   4.847   1.836   0.235  0.0290 -0.1599  0.7037
10595TIP3    H153276   4.788   1.891   0.287  1.1222  1.3647  0.4046
10595TIP3    H253277   4.844   1.875   0.147  0.0627 -1.2158  0.2244
10596TIP3   OH253278   3.927   3.743   2.388  0.0472  0.3980 -0.1820
10596TIP3    H153279   3.955   3.724   2.299  1.8875  1.2717  0.1668
10596TIP3    H253280   3.883   3.663   2.417 -0.3105  0.0027 -1.7539
10597TIP3   OH253281   6.381   6.710  14.105  0.6987  0.8762  0.1146
10597TIP3    H153282   6.359   6.766  14.180  1.8605  0.0823  1.0713
10597TIP3    H253283   6.464   6.744  14.073  2.0225 -0.9421  1.4254
10598TIP3   OH253284   3.297   0.081  14.284  0.2210  0.1025 -0.2518
10598TIP3    H153285   3.321   0.075  14.376 -1.2540  1.1957  0.2488
10598TIP3    H253286   3.374   0.050  14.237  0.8097 -1.0131  1.3493
10599TIP3   OH253287   1.181   2.963   3.102 -0.3935  0.1610  0.5020
10599TIP3    H153288   1.220   2.888   3.147  0.6662 -0.1810 -0.9075
10599TIP3    H253289   1.255   3.011   3.066 -1.1864 -0.0551 -1.5614
10600TIP3   OH253290   6.689   1.933  16.908 -0.1247  0.0514 -0.1350
10600TIP3    H153291   6.651   1.999  16.966 -1.1072 -0.5056 -0.1156
10600TIP3    H253292   6.620   1.867  16.899  0.1681 -0.0702 -1.6234
10601TIP3   OH253293   2.385   2.685  16.082 -0.3986  0.0790  0.2503
10601TIP3    H153294   2.406   2.592  16.078  0.1991  0.2515 -1.3355
10601TIP3    H253295   2.373   2.712  15.991  0.6446  1.8150  0.5669
10602TIP3   OH253296   4.970   6.497  13.810  0.1340  0.1331  0.6466
10602TIP3    H153297   5.020   6.503  13.729  0.9448 -1.8183  0.9597
10602TIP3    H253298   5.031   6.525  13.878 -0.0078  0.1606  0.7630
10603TIP3   OH253299   5.727   3.453   1.949  0.4629  0.0159  0.2603
10603TIP3    H153300   5.692   3.454   2.038 -2.2963 -1.2429 -0.6754
10603TIP3    H253301   5.790   3.525   1.946 -1.6404  2.1277  2.3943
10604TIP3   OH253302   6.148   2.992  11.691  0.4017 -0.3274 -0.2059
10604TIP3    H153303   6.137   3.081  11.660  0.3262 -0.0847  0.5002
10604TIP3    H253304   6.086   2.983  11.763 -0.2368 -1.2453 -0.8536
10605TIP3   OH253305   6.547   1.144  13.258 -0.2050  0.3567  0.1971
10605TIP3    H153306   6.572   1.186  13.175 -0.4996  0.4382  0.1480
10605TIP3    H253307   6.458   1.114  13.244 -0.0706 -0.1082  0.3053
10606TIP3   OH253308   2.707   0.181  16.385 -0.7596 -0.1602  0.6172
10606TIP3    H153309   2.800   0.178  16.407 -0.5415 -0.2252 -0.2740
10606TIP3    H253310   2.704   0.231  16.303 -1.3935 -1.0681  0.0756
10607TIP3   OH253311   6.597   0.109  16.640  0.2431  0.1233 -0.2711
10607TIP3    H153312   6.539   0.183  16.621 -0.2330 -0.1360  0.1358
10607TIP3    H253313   6.668   0.147  16.691  1.7888  0.9213 -2.8165
10608TIP3   OH253314   5.802   2.430  11.739 -0.5347  0.7197  0.5363
10608TIP3    H153315   5.830   2.457  11.826  1.8922 -0.2592  0.1674
10608TIP3    H253316   5.824   2.504  11.683  0.5038  0.3304  0.3977
10609TIP3   OH253317   1.781   3.720  14.352 -0.4848 -0.5565  0.1019
10609TIP3    H153318   1.764   3.812  14.371 -0.3543 -0.6270  0.5683
10609TIP3    H253319   1.696   3.677  14.362 -0.7269 -0.3566 -0.9556
10610TIP3   OH253320   4.816   5.214   0.693 -0.3574 -0.1791 -0.1885
10610TIP3    H153321   4.869   5.138   0.717  1.1202  0.7323 -0.4238
10610TIP3    H253322   4.738   5.209   0.748  0.4055 -1.0696  0.8341
10611TIP3   OH253323   1.176   1.432   0.477 -0.2414 -0.2408  0.3887
10611TIP3    H153324   1.122   1.437   0.398 -1.1307 -0.5989  0.9582
10611TIP3    H253325   1.260   1.398   0.447 -0.2528  0.5341 -0.5476
10612TIP3   OH253326   5.315   0.184  14.205 -0.3330 -0.1001 -0.8242
10612TIP3    H153327   5.243   0.178  14.142 -1.3185 -2.3744  0.3992
10612TIP3    H253328   5.394   0.183  14.151 -1.1805 -0.3165 -2.1033
10613TIP3   OH253329   5.098   4.719   4.299 -0.4344 -0.1751  0.8307
10613TIP3    H153330   5.183   4.701   4.258 -0.1130  1.9437  0.4514
10613TIP3    H253331   5.120   4.770   4.377 -1.3861  1.8645 -0.1598
10614TIP3   OH253332   4.105   3.975  16.843 -0.3747 -0.1290  0.0589
10614TIP3    H153333   4.062   4.040  16.787 -0.4024  0.5159  0.8115
10614TIP3    H253334   4.112   3.897  16.788 -0.3693  0.4972 -0.8484
10615TIP3   OH253335   1.816   3.084  12.142  0.3446  0.0241  0.1465
10615TIP3    H153336   1.767   3.069  12.223  1.4708 -0.0825  0.8293
10615TIP3    H253337   1.840   2.997  12.111  0.8101  0.1010  0.2743
10616TIP3   OH253338   1.443   5.481   2.081 -0.4700  0.1813  0.8269
10616TIP3    H153339   1.484   5.549   2.135 -0.3969 -0.4112  1.5397
10616TIP3    H253340   1.440   5.404   2.138 -0.4059 -0.4624 -0.0199
10617TIP3   OH253341   4.948   6.179  11.985  0.0780  0.2939  0.4226
10617TIP3    H153342   4.979   6.099  12.027 -1.1403 -0.3527  0.1243
10617TIP3    H253343   4.974   6.249  12.046 -0.3770 -0.4854  1.5413
10618TIP3   OH253344   4.909   4.539   0.488 -0.1442  0.3833 -0.1906
10618TIP3    H153345   4.942   4.495   0.409 -1.1899 -0.8482  0.0403
10618TIP3    H253346   4.852   4.475   0.530 -0.2627  1.3190  1.1452
10619TIP3   OH253347   6.243   2.864  13.540  0.2853 -0.8215 -0.0489
10619TIP3    H153348   6.209   2.860  13.630 -0.2016 -3.7607 -0.2413
10619TIP3    H253349   6.336   2.844  13.549  0.2192 -1.2011 -0.1790
10620TIP3   OH253350   4.021   5.898   5.660  0.2583 -0.3639 -0.0775
10620TIP3    H153351   3.930   5.910   5.686  0.7082  0.7601  1.0743
10620TIP3    H253352   4.062   5.856   5.735  0.5391 -1.5669 -0.8864
10621TIP3   OH253353   1.209   2.266   3.729  0.1918  0.1264 -0.0362
10621TIP3    H153354   1.258   2.274   3.647  0.7663 -3.2802 -0.1986
10621TIP3    H253355   1.123   2.233   3.703  0.6927 -1.9278  0.6694
10622TIP3   OH253356   5.698   3.302   2.223  0.6776 -0.3262 -0.0807
10622TIP3    H153357   5.672   3.365   2.289 -0.2689 -0.3412 -0.4275
10622TIP3    H253358   5.776   3.259   2.259  0.8252  0.4386  0.5217
10623TIP3   OH253359   2.096   3.630  15.746  0.0239 -0.3110  0.2606
10623TIP3    H153360   2.160   3.643  15.817 -0.0589 -2.2874  0.7499
10623TIP3    H253361   2.085   3.535  15.741 -1.6280 -0.0886 -0.9521
10624TIP3   OH253362   3.784   4.775   5.721  0.9984  0.0818 -1.1640
10624TIP3    H153363   3.760   4.684   5.703 -1.7866  0.5351 -0.2716
10624TIP3    H253364   3.766   4.786   5.814 -4.5169  2.8936 -2.1345
10625TIP3   OH253365   5.155   3.351   0.049  0.2327  0.1734 -0.3836
10625TIP3    H153366   5.115   3.303  -0.024 -0.0496 -0.7394  0.3543
10625TIP3    H253367   5.082   3.376   0.104  0.5392 -0.2134  0.2122
10626TIP3   OH253368   3.941   4.639  12.513 -0.6595 -0.1380  0.1173
10626TIP3    H153369   3.993   4.565  12.546  0.0556  0.2240 -0.1845
10626TIP3    H253370   3.959   4.710  12.575  1.3927  0.8218 -1.4638
10627TIP3   OH253371   5.909   3.588   1.386  0.2346  0.5563 -0.1637
10627TIP3    H153372   5.824   3.544   1.389  0.2732  0.2888 -1.7469
10627TIP3    H253373   5.923   3.620   1.475 -0.6116 -1.0894  0.6027
10628TIP3   OH253374   3.951   3.302  11.342  0.3128 -0.1969 -0.0807
10628TIP3    H153375   4.037   3.269  11.369  0.7961 -1.0705 -2.4651
10628TIP3    H253376   3.891   3.269  11.409  1.6375 -0.6949  0.9091
10629TIP3   OH253377   4.538   1.051  12.948  0.2288  0.9145 -0.4440
10629TIP3    H153378   4.554   0.963  12.914  3.1281  1.5255 -0.9615
10629TIP3    H253379   4.466   1.041  13.009  1.2243 -2.0591  0.3811
10630TIP3   OH253380   1.160   6.067  14.000  0.4374  0.1268 -0.3438
10630TIP3    H153381   1.084   6.023  13.963  0.6757 -0.2246 -0.4262
10630TIP3    H253382   1.216   5.995  14.031 -0.0357  0.4306  1.2793
10631TIP3   OH253383   2.686   2.208   3.212  0.1503 -0.3116 -0.0449
10631TIP3    H153384   2.723   2.248   3.290 -0.1959  0.3697 -0.2222
10631TIP3    H253385   2.621   2.146   3.246  0.9392 -0.9898  0.2404
10632TIP3   OH253386   4.685   2.036  14.373  0.1721  0.0679  0.5011
10632TIP3    H153387   4.653   1.954  14.336 -0.1479  0.8899 -1.1517
10632TIP3    H253388   4.659   2.103  14.309  0.1071  1.5097  1.9577
10633TIP3   OH253389   1.534   0.108   5.948 -0.0571 -0.0364 -0.8707
10633TIP3    H153390   1.485   0.156   6.015  0.5792  0.6005 -0.8518
10633TIP3    H253391   1.467   0.062   5.897 -0.5254 -1.2411  0.7305
10634TIP3   OH253392   1.537   6.729   0.889  0.7528  0.4097 -0.2232
10634TIP3    H153393   1.464   6.788   0.872  1.0083  0.3286 -1.6825
10634TIP3    H253394   1.609   6.786   0.916  0.8832  0.7371 -1.2468
10635TIP3   OH253395   3.454   2.371   6.210  0.4300 -0.1315 -0.8261
10635TIP3    H153396   3.452   2.327   6.295 -0.2808  0.1219 -0.7070
10635TIP3    H253397   3.490   2.457   6.228 -0.8185  0.3612 -0.5584
10636TIP3   OH253398   4.912   0.511   1.967  0.2556 -0.0507 -0.4228
10636TIP3    H153399   4.950   0.472   2.046  1.2935 -0.5071 -1.1237
10636TIP3    H253400   4.883   0.435   1.915 -1.3618  0.2704 -0.0604
10637TIP3   OH253401   4.163   2.919   2.578  0.3394  0.6121  0.0738
10637TIP3    H153402   4.223   2.984   2.542 -0.1506  0.7243 -0.5489
10637TIP3    H253403   4.078   2.943   2.542 -0.2989  1.1378  1.8376
10638TIP3   OH253404   5.912   1.089   5.442  0.2128 -0.3296  0.0451
10638TIP3    H153405   5.935   1.008   5.396  1.0244 -0.4525  0.6419
10638TIP3    H253406   5.951   1.159   5.390  0.0744 -0.3783 -0.1214
10639TIP3   OH253407   0.898   5.084   4.026  0.6611  0.2342 -0.2482
10639TIP3    H153408   0.926   5.068   4.116  0.0962 -2.1580 -0.4272
10639TIP3    H253409   0.831   5.152   4.033 -0.7905 -1.2842  1.3953
10640TIP3   OH253410   1.960   4.724   0.429 -0.0505  0.5780  0.6888
10640TIP3    H153411   1.869   4.726   0.397 -0.1778  1.0129  1.0693
10640TIP3    H253412   1.952   4.731   0.524  0.2909 -1.4937  0.9143
10641TIP3   OH253413   4.585   0.956   3.674  0.1002 -0.1686 -0.0198
10641TIP3    H153414   4.621   0.977   3.760 -1.5254  0.3480  0.5823
10641TIP3    H253415   4.624   1.020   3.614 -1.7740  2.1742  1.0827
10642TIP3   OH253416   1.564   1.986  10.613  0.1623  0.3985 -0.3918
10642TIP3    H153417   1.638   2.012  10.557 -0.9160  1.8269 -1.2259
10642TIP3    H253418   1.517   2.068  10.630 -0.4447 -0.2704  1.3050
10643TIP3   OH253419   6.795   5.801  12.053  0.3013 -0.1987  1.1775
10643TIP3    H153420   6.865   5.827  11.994 -0.2320  0.1019  0.6700
10643TIP3    H253421   6.728   5.762  11.996 -1.4751  2.5721  1.1462
10644TIP3   OH253422   2.704   5.509   5.257  0.1858  0.1548  0.7891
10644TIP3    H153423   2.723   5.420   5.226 -2.6498 -0.4351  0.5341
10644TIP3    H253424   2.787   5.556   5.246  1.3865 -2.0810 -0.3849
10645TIP3   OH253425   2.939   0.420   4.297 -0.1876  0.0029 -0.3849
10645TIP3    H153426   2.926   0.486   4.229  1.2926 -0.0343 -0.7342
10645TIP3    H253427   2.909   0.338   4.257  0.3043  0.0483 -0.8565
10646TIP3   OH253428   0.063   1.091  13.050 -0.3326 -0.1887  0.8360
10646TIP3    H153429   0.095   1.124  12.966 -2.9489  0.6219  0.0885
10646TIP3    H253430  -0.020   1.049  13.030 -1.0553  0.0488  3.0366
10647TIP3   OH253431   6.373   6.346  15.210 -0.2742 -0.0635 -0.4563
10647TIP3    H153432   6.385   6.439  15.231  0.2394 -0.1966 -0.1642
10647TIP3    H253433   6.355   6.304  15.294  1.5649 -0.5547 -0.2604
10648TIP3   OH253434   2.370   6.708  16.340 -0.3221 -0.7392 -0.0308
10648TIP3    H153435   2.426   6.741  16.269 -0.6322  0.5659  0.3192
10648TIP3    H253436   2.431   6.674  16.405  0.1782  1.7086  0.8679
10649TIP3   OH253437   2.525   0.902  13.690  0.2807  0.2366 -0.4744
10649TIP3    H153438   2.466   0.972  13.719  0.3185 -0.2544  0.8570
10649TIP3    H253439   2.530   0.843  13.764 -0.9385 -2.0202 -2.0820
10650TIP3   OH253440   2.711   5.529  16.271  0.0690  0.2387  0.1285
10650TIP3    H153441   2.699   5.492  16.183 -1.2702  1.1350 -0.0781
10650TIP3    H253442   2.732   5.621  16.255  0.9936  0.1408  0.7268
10651TIP3   OH253443   6.048   0.975  16.832 -0.2727 -0.2161 -1.1005
10651TIP3    H153444   6.143   0.965  16.840 -0.3746  0.0230  1.2546
10651TIP3    H253445   6.035   1.068  16.813 -0.0338 -0.3348 -1.8658
10652TIP3   OH253446   1.281   0.856   2.539  0.2505 -0.3636  0.2612
10652TIP3    H153447   1.187   0.853   2.560  0.4400 -0.8973  1.0841
10652TIP3    H253448   1.286   0.907   2.458 -0.7035  0.0973  0.4804
10653TIP3   OH253449   5.393   2.525   5.825  0.1560  0.2840 -0.8153
10653TIP3    H153450   5.298   2.535   5.822  0.2829  2.3061  0.1713
10653TIP3    H253451   5.408   2.461   5.896 -0.4456  1.0889  0.0634
10654TIP3   OH253452   2.224   2.000   5.410 -0.6826 -0.3207  0.3234
10654TIP3    H153453   2.148   1.983   5.353  0.2561  0.5393 -1.2594
10654TIP3    H253454   2.299   1.999   5.351  0.9777 -3.7988  2.2121
10655TIP3   OH253455   6.594   6.576   5.223 -0.6273  0.0949  0.4616
10655TIP3    H153456   6.602   6.485   5.193  1.0431  0.0115  1.0810
10655TIP3    H253457   6.539   6.618   5.157 -2.0708 -1.5284  0.5570
10656TIP3   OH253458   2.426   3.022  15.024  0.0233 -0.4620 -0.2036
10656TIP3    H153459   2.422   3.001  14.930 -0.0683 -0.7276 -0.1404
10656TIP3    H253460   2.429   3.118  15.026  0.7203 -0.4704 -0.5018
10657TIP3   OH253461   2.365   2.626   0.224 -0.2200 -0.0244  0.5962
10657TIP3    H153462   2.383   2.630   0.318  1.4379 -0.2711  0.3218
10657TIP3    H253463   2.406   2.544   0.196  0.4401  0.6661 -0.5507
10658TIP3   OH253464   5.109   2.039   3.777  0.5120  0.0002 -0.0787
10658TIP3    H153465   5.086   2.126   3.744  0.9855 -0.4227 -1.5522
10658TIP3    H253466   5.144   2.056   3.865 -0.1245  1.2111 -0.0350
10659TIP3   OH253467   4.412   3.945  11.230  0.3443 -0.8430  0.1303
10659TIP3    H153468   4.506   3.930  11.214  0.3907 -0.6016  0.1722
10659TIP3    H253469   4.398   3.916  11.320 -0.3709 -4.3141 -0.9603
10660TIP3   OH253470   2.285   3.945   3.258 -0.2696  0.6565  0.0421
10660TIP3    H153471   2.232   3.910   3.187  1.8952 -1.0482 -0.8350
10660TIP3    H253472   2.272   3.883   3.330  1.0306 -0.2397 -0.4396
10661TIP3   OH253473   3.964   4.003  13.666  0.3080 -0.3997  0.0416
10661TIP3    H153474   3.981   4.097  13.657  0.4354 -0.4246  0.0088
10661TIP3    H253475   3.872   3.993  13.646  0.0508 -0.1432  1.0072
10662TIP3   OH253476   0.784   1.524   1.759 -0.2538  0.0039 -0.0038
10662TIP3    H153477   0.755   1.521   1.667  0.6364  0.3681 -0.3105
10662TIP3    H253478   0.868   1.571   1.755 -0.5909  0.7222  1.0960
10663TIP3   OH253479   6.367   0.329   3.670 -0.5453  0.1205  0.9009
10663TIP3    H153480   6.320   0.272   3.730  0.3589 -0.4929  1.0492
10663TIP3    H253481   6.451   0.285   3.655 -0.9998 -0.0996 -1.3643
10664TIP3   OH253482   2.553   0.633  11.853  0.3197 -0.0681  0.1624
10664TIP3    H153483   2.588   0.722  11.862 -2.2579  1.0664 -0.1895
10664TIP3    H253484   2.602   0.595  11.780  1.8122  0.8419  0.6508
10665TIP3   OH253485   4.548   6.470   2.109  0.1076  0.7197 -0.0214
10665TIP3    H153486   4.603   6.394   2.130 -1.1464 -0.4624 -0.8796
10665TIP3    H253487   4.480   6.471   2.176 -0.9564 -0.0573 -1.0484
10666TIP3   OH253488   4.603   5.350  11.155  0.3621 -0.9581 -0.3101
10666TIP3    H153489   4.530   5.380  11.209  0.7736  2.1448 -1.2848
10666TIP3    H253490   4.617   5.260  11.183 -1.9938 -0.7817  1.8906
10667TIP3   OH253491   2.549   6.227  12.929  0.7570  0.1726 -0.3791
10667TIP3    H153492   2.473   6.191  12.884 -0.1069 -0.4951  1.5206
10667TIP3    H253493   2.616   6.159  12.921  0.5511 -0.0210 -0.4768
10668TIP3   OH253494   5.951   5.850  15.118  0.1969  0.3331 -0.2366
10668TIP3    H153495   5.964   5.918  15.051  0.6626  0.2959 -0.1866
10668TIP3    H253496   5.912   5.777  15.071  0.2834  0.4014 -0.4145
10669TIP3   OH253497   0.966   5.336  14.956 -0.5044 -0.7650  0.5499
10669TIP3    H153498   0.956   5.299  15.043 -0.0207 -0.5058  0.7205
10669TIP3    H253499   0.904   5.410  14.954 -1.0130 -1.1899  0.4261
10670TIP3   OH253500   1.548   4.860  15.203 -0.1554 -0.0714 -0.8166
10670TIP3    H153501   1.504   4.909  15.273  2.4935  1.3608 -0.0057
10670TIP3    H253502   1.478   4.815  15.158 -2.2285  0.6231  1.4706
10671TIP3   OH253503   0.835   1.490   3.497 -0.0888  0.8138 -0.1011
10671TIP3    H153504   0.831   1.509   3.403  1.0462 -2.7284 -1.0423
10671TIP3    H253505   0.888   1.561   3.534  0.0580  1.9139 -2.2554
10672TIP3   OH253506   3.988   1.058  16.891 -0.7508 -0.1335 -0.3236
10672TIP3    H153507   4.056   1.007  16.935 -1.4418 -1.8278 -1.1650
10672TIP3    H253508   3.985   1.140  16.941  0.5487 -0.7868  0.9256
10673TIP3   OH253509   4.684   1.234   4.984 -0.0357 -0.2609  0.0422
10673TIP3    H153510   4.694   1.152   5.033 -4.2982  0.1658  2.0953
10673TIP3    H253511   4.741   1.296   5.030  1.6532 -1.5247 -0.2584
10674TIP3   OH253512   4.954   3.533  11.554 -0.0715 -0.6841 -0.2893
10674TIP3    H153513   4.899   3.462  11.523 -0.0649 -1.5416  1.5676
10674TIP3    H253514   5.043   3.496  11.556  0.0483 -0.3950 -0.0438
10675TIP3   OH253515   2.321   3.755   1.963  0.2721 -0.5806  0.7053
10675TIP3    H153516   2.384   3.685   1.983 -0.0117 -0.7234  1.1219
10675TIP3    H253517   2.273   3.768   2.045 -1.7566 -2.0176 -0.1682
10676TIP3   OH253518   1.609   6.237  12.284  0.2094 -0.2606 -0.8720
10676TIP3    H153519   1.534   6.236  12.343  0.0717 -0.2483 -1.0442
10676TIP3    H253520   1.684   6.212  12.339  0.5954  2.5106  0.0076
10677TIP3   OH253521   3.259   0.462  15.440  0.3186 -0.7701 -0.0091
10677TIP3    H153522   3.218   0.376  15.429  0.0437 -0.6764  0.2691
10677TIP3    H253523   3.328   0.464  15.373 -1.1042 -0.3262 -1.5278
10678TIP3   OH253524   4.943   4.247   0.715 -0.0104  0.6769  0.4885
10678TIP3    H153525   4.887   4.243   0.638 -0.7016  1.8588  0.9001
10678TIP3    H253526   4.996   4.326   0.701 -0.1706  0.9230  1.2251
10679TIP3   OH253527   0.243   4.442   4.500  0.1723 -0.2230  0.3811
10679TIP3    H153528   0.264   4.399   4.417 -0.6809  0.7940 -0.3972
10679TIP3    H253529   0.147   4.440   4.504  0.1748  0.4819  0.9304
10680TIP3   OH253530   0.820   5.873  13.462 -0.1907 -0.5474 -0.1065
10680TIP3    H153531   0.773   5.953  13.437  1.7251  0.5749 -0.3164
10680TIP3    H253532   0.901   5.905  13.503  1.2519 -2.3654 -1.3985
10681TIP3   OH253533   1.109   1.365  11.738 -0.3181 -0.8613  0.1175
10681TIP3    H153534   1.048   1.319  11.796 -0.6429  0.5442  0.9480
10681TIP3    H253535   1.065   1.448  11.719  0.3937 -0.7424 -1.0664
10682TIP3   OH253536   2.789   6.574  16.233  0.2756  0.1216  0.4153
10682TIP3    H153537   2.742   6.587  16.315 -1.0927  0.5784 -0.4003
10682TIP3    H253538   2.859   6.512  16.254  0.8458  1.2865  2.2261
10683TIP3   OH253539   4.654   4.734   0.952 -0.4430  0.3208  0.0563
10683TIP3    H153540   4.570   4.696   0.928  0.6095 -1.2911 -1.2740
10683TIP3    H253541   4.650   4.745   1.047 -1.7235 -0.7544  0.1451
10684TIP3   OH253542   4.598   1.419  12.141 -0.2796 -0.3735  0.2943
10684TIP3    H153543   4.543   1.359  12.091  0.8520 -2.2509  1.2006
10684TIP3    H253544   4.537   1.486  12.174 -1.2486  0.1790 -2.3984
10685TIP3   OH253545   1.987   4.326  11.810  0.0547  0.0533 -0.0973
10685TIP3    H153546   2.014   4.285  11.892  0.8747 -0.0776 -0.4142
10685TIP3    H253547   2.018   4.266  11.742  0.6468  0.8420 -0.5411
10686TIP3   OH253548   6.154   6.091  15.307  0.8734  0.2490 -0.2278
10686TIP3    H153549   6.120   6.099  15.218  1.0157 -0.4011 -0.3479
10686TIP3    H253550   6.170   6.181  15.335 -0.5967  0.5459 -0.2938
10687TIP3   OH253551   5.447   6.787  15.798  0.0059  0.8153 -0.5555
10687TIP3    H153552   5.484   6.715  15.747 -0.0530 -0.5853  1.2677
10687TIP3    H253553   5.523   6.830  15.837  0.0509  1.8826 -1.7683
10688TIP3   OH253554   5.534   0.989  13.199 -0.3122  0.4679  0.0118
10688TIP3    H153555   5.460   0.970  13.141 -0.3037 -0.2935  0.2383
10688TIP3    H253556   5.545   1.084  13.193 -0.5408  0.4461 -0.9414
10689TIP3   OH253557   3.330   4.596   2.218  0.0671  0.0380 -0.1163
10689TIP3    H153558   3.244   4.581   2.257 -0.0189  2.5930  0.9350
10689TIP3    H253559   3.381   4.519   2.241 -1.1916 -0.3447  1.5960
10690TIP3   OH253560   2.858   2.754   0.451  0.5122 -0.3597 -0.0490
10690TIP3    H153561   2.848   2.660   0.434 -1.3931 -0.6483  2.2492
10690TIP3    H253562   2.781   2.794   0.411  0.9368  0.1710 -0.3592
10691TIP3   OH253563   1.682   1.375  16.871 -0.0005 -0.5739 -0.6344
10691TIP3    H153564   1.737   1.438  16.824 -0.9596 -0.2819 -1.3967
10691TIP3    H253565   1.686   1.295  16.817 -1.7192 -0.0009 -1.6861
10692TIP3   OH253566   0.927   0.958   2.338 -0.2718  0.0632  0.0475
10692TIP3    H153567   0.862   1.009   2.288 -0.2277  1.1346  1.0525
10692TIP3    H253568   0.876   0.889   2.380 -0.7587  0.7879  0.6793
10693TIP3   OH253569   1.955   1.746   5.674  0.4828 -0.5851  0.5872
10693TIP3    H153570   2.006   1.820   5.707  0.6858 -1.1747  1.6279
10693TIP3    H253571   2.008   1.710   5.602 -0.1650  0.9666 -0.7401
10694TIP3   OH253572   4.044   6.093   3.213  0.2040 -0.2889 -0.3023
10694TIP3    H153573   4.050   6.187   3.231  1.8824 -0.7834  2.1945
10694TIP3    H253574   4.130   6.069   3.179  0.1654 -1.1058  0.1470
10695TIP3   OH253575   2.885   4.070   1.090 -0.1846  0.3131  0.5064
10695TIP3    H153576   2.969   4.057   1.047 -0.8900 -0.7116 -0.6078
10695TIP3    H253577   2.901   4.140   1.154  1.1529  1.1592 -0.6984
10696TIP3   OH253578   6.370   5.418   5.371  0.0875  0.1135  0.0388
10696TIP3    H153579   6.367   5.427   5.276  1.8117 -0.5797 -0.1233
10696TIP3    H253580   6.282   5.391   5.396 -0.9750  2.2500 -1.1061
10697TIP3   OH253581   1.981   2.023   4.294 -0.5339  0.6386  0.5418
10697TIP3    H153582   2.000   1.951   4.354 -0.0727 -0.6736 -1.0989
10697TIP3    H253583   1.886   2.032   4.297 -0.8287 -1.4376 -0.6930
10698TIP3   OH253584   0.588   0.461  12.982 -0.4911 -0.2016 -0.0257
10698TIP3    H153585   0.541   0.390  12.939  1.4088 -0.3417 -2.0438
10698TIP3    H253586   0.630   0.509  12.911  0.4435  1.3534  1.4828
10699TIP3   OH253587   1.217   1.646   1.074  0.1279 -0.0431 -0.4198
10699TIP3    H153588   1.135   1.687   1.101  2.4069  2.6184  3.5964
10699TIP3    H253589   1.250   1.702   1.004  0.2442  1.2718  0.6477
10700TIP3   OH253590   1.068   6.059  16.751  0.1054 -0.3350  0.3036
10700TIP3    H153591   1.047   6.135  16.697  0.6971 -1.0989 -1.0358
10700TIP3    H253592   1.143   6.018  16.707 -0.2616 -1.7453  0.9451
10701TIP3   OH253593   3.587   0.133  15.027  0.7152 -0.4578  0.2236
10701TIP3    H153594   3.655   0.195  15.053  0.5905 -0.7050  1.1588
10701TIP3    H253595   3.526   0.132  15.100  0.8432 -1.8817  0.3375
10702TIP3   OH253596   5.217   3.302  16.199  0.4953 -0.0116 -0.3401
10702TIP3    H153597   5.169   3.223  16.226  0.0415 -0.1799 -1.5760
10702TIP3    H253598   5.255   3.335  16.280  1.9102 -2.2946  0.0376
10703TIP3   OH253599   1.120   2.689   3.964 -0.2285 -0.6036 -0.5352
10703TIP3    H153600   1.051   2.662   4.025 -1.3009 -0.9423 -1.8757
10703TIP3    H253601   1.085   2.671   3.877  0.5415  1.5387 -1.3675
10704TIP3   OH253602   4.306   3.599  11.777  0.1456  0.7260  0.2974
10704TIP3    H153603   4.304   3.567  11.687 -0.8580  1.0260  0.2061
10704TIP3    H253604   4.284   3.692  11.769  0.2736  0.8021  0.8309
10705TIP3   OH253605   4.599   3.567  11.411  0.3996  0.4357  0.4802
10705TIP3    H153606   4.656   3.622  11.358  0.2383  0.2322  0.0880
10705TIP3    H253607   4.551   3.514  11.347  0.4222 -0.0286  0.8377
10706TIP3   OH253608   0.641   5.488   4.307  0.8511  0.2535  0.4708
10706TIP3    H153609   0.720   5.541   4.319  2.9411 -1.5933 -3.2334
10706TIP3    H253610   0.571   5.551   4.292  1.4881  1.9442  3.6777
10707TIP3   OH253611   0.301   1.118   3.411  0.3142 -0.3705 -0.0120
10707TIP3    H153612   0.260   1.065   3.478 -0.0968 -1.2064 -0.9071
10707TIP3    H253613   0.229   1.165   3.369  0.5193 -0.1859 -0.1647
10708TIP3   OH253614   2.601   1.709  17.070  0.0089  0.0873 -0.5236
10708TIP3    H153615   2.662   1.718  16.997  2.3436 -0.0687  1.2972
10708TIP3    H253616   2.558   1.625  17.054  1.3831 -0.5403 -1.1339
10709TIP3   OH253617   0.758   5.607  16.357  0.3356  0.2625  0.0054
10709TIP3    H153618   0.824   5.589  16.424  1.7539  0.4118 -1.3073
10709TIP3    H253619   0.789   5.687  16.314  0.3866 -0.7295 -1.9193
10710TIP3   OH253620   2.654   2.393   2.527 -0.3413  0.2396  0.1243
10710TIP3    H153621   2.631   2.301   2.538 -2.3439  0.7252  0.3833
10710TIP3    H253622   2.624   2.435   2.607  0.2221  1.1896 -0.1460
10711TIP3   OH253623   4.051   5.311   5.199 -0.4590  0.2943 -0.2783
10711TIP3    H153624   4.006   5.383   5.243  0.6973  0.8652 -0.0037
10711TIP3    H253625   4.105   5.271   5.267 -0.8174 -0.6263 -0.5141
10712TIP3   OH253626   4.325   6.639   4.052  0.0842 -0.3103  0.3015
10712TIP3    H153627   4.335   6.603   3.963  3.1802 -0.8098  0.7204
10712TIP3    H253628   4.298   6.729   4.038  2.2595  0.1862 -1.3402
10713TIP3   OH253629   4.373   1.395   0.291  0.2827 -0.0433 -0.2069
10713TIP3    H153630   4.455   1.421   0.334  1.2169 -2.8661 -0.0197
10713TIP3    H253631   4.308   1.396   0.361  0.3487  1.3031 -0.1428
10714TIP3   OH253632   2.701   2.841  12.085  0.1160  0.4823  0.1962
10714TIP3    H153633   2.616   2.861  12.047 -0.1581  0.4454  0.7821
10714TIP3    H253634   2.735   2.925  12.115  0.4533  0.5533 -0.3575
10715TIP3   OH253635   5.679   0.013  11.598  0.0637  0.0666  0.3043
10715TIP3    H153636   5.742   0.057  11.540 -1.1934  0.6053 -0.6880
10715TIP3    H253637   5.611  -0.019  11.540 -0.1370 -1.3355  1.2697
10716TIP3   OH253638   4.145   0.203  12.228  0.3184 -0.4383 -0.2772
10716TIP3    H153639   4.115   0.153  12.153 -1.6710 -0.1014  0.2237
10716TIP3    H253640   4.071   0.200  12.290  0.9512  1.3168  0.6403
10717TIP3   OH253641   6.236   3.133   2.890 -0.2961  0.1295 -0.0863
10717TIP3    H153642   6.195   3.152   2.806  1.4150  1.1645 -0.7483
10717TIP3    H253643   6.240   3.218   2.935  2.2328  0.3859 -0.6233
10718TIP3   OH253644   4.317   4.844   3.994  0.2589  0.0045  0.0688
10718TIP3    H153645   4.399   4.878   3.961 -1.1732  2.0613 -1.6547
10718TIP3    H253646   4.299   4.895   4.073  0.3295  0.0031  0.0852
10719TIP3   OH253647   6.246   4.025   3.692  0.0143  0.1975 -0.3089
10719TIP3    H153648   6.206   4.106   3.725 -1.4256 -0.5499 -0.1122
10719TIP3    H253649   6.340   4.043   3.691 -0.2901  1.9593 -0.5411
10720TIP3   OH253650   6.781   0.846   0.100  0.2929  0.4591  0.1118
10720TIP3    H153651   6.697   0.818   0.135 -0.5556  1.2804 -1.1573
10720TIP3    H253652   6.759   0.893   0.019  2.1311 -2.2056 -2.1533
10721TIP3   OH253653   6.683   6.725  12.355 -0.4376 -0.5687  0.0953
10721TIP3    H153654   6.755   6.664  12.338 -0.4828 -0.6049  0.0313
10721TIP3    H253655   6.712   6.776  12.431 -0.5644 -0.9354  0.3920
10722TIP3   OH253656   6.550   5.460  10.724  0.1259 -0.4778 -0.0436
10722TIP3    H153657   6.571   5.536  10.670 -0.2406  1.3129  2.1565
10722TIP3    H253658   6.464   5.480  10.761  0.3379 -1.6285  1.1436
10723TIP3   OH253659   5.567   4.858  12.857 -0.1883 -0.4961  0.3144
10723TIP3    H153660   5.587   4.944  12.893  0.2211 -0.4588  0.0082
10723TIP3    H253661   5.552   4.873  12.764  0.2706 -0.8109  0.1870
10724TIP3   OH253662   3.411   2.360   3.996  0.1652 -0.8567  0.1532
10724TIP3    H153663   3.328   2.318   3.976  0.6825 -1.2830 -1.2045
10724TIP3    H253664   3.450   2.379   3.911  0.6679  0.9558  0.7390
10725TIP3   OH253665   5.830   3.079  16.735  0.8252  0.3519  0.5946
10725TIP3    H153666   5.752   3.125  16.764  0.8616  1.2609 -0.6640
10725TIP3    H253667   5.902   3.120  16.782  0.8117  1.3472 -0.2172
10726TIP3   OH253668   5.363   6.694  12.751 -0.1383 -0.3345 -0.3679
10726TIP3    H153669   5.385   6.601  12.754  0.2289 -0.2622 -0.7245
10726TIP3    H253670   5.446   6.738  12.733 -0.0035  0.2110  1.4530
10727TIP3   OH253671   4.790   5.202   5.253 -0.5334 -0.1425 -0.0596
10727TIP3    H153672   4.824   5.291   5.250  0.6130 -0.4921  1.2698
10727TIP3    H253673   4.816   5.163   5.169  2.2115 -0.2882  0.7451
10728TIP3   OH253674   1.588   1.602  15.359  0.6981  0.3727  0.0155
10728TIP3    H153675   1.657   1.622  15.422  1.7667 -0.8073 -0.7304
10728TIP3    H253676   1.540   1.530  15.399  0.0052  1.0658  0.4473
10729TIP3   OH253677   6.619   4.125   6.735  0.1383  0.6050  0.1122
10729TIP3    H153678   6.598   4.117   6.828  0.3917  1.8154  0.2890
10729TIP3    H253679   6.711   4.151   6.733  0.0112  1.0377 -0.4639
10730TIP3   OH253680   6.046   0.803   5.597 -0.1032  0.4318  0.0558
10730TIP3    H153681   5.968   0.751   5.617  1.1836 -0.8089  2.4211
10730TIP3    H253682   6.023   0.853   5.519 -2.9544 -0.4602  0.2095
10731TIP3   OH253683   6.694   0.327  11.641 -0.5384  0.1595  0.2693
10731TIP3    H153684   6.638   0.348  11.715  0.6280  1.3853  0.8386
10731TIP3    H253685   6.776   0.372  11.659  0.2683 -0.6989 -1.0744
10732TIP3   OH253686   2.072   6.400  13.177  0.0017  0.4782  0.3812
10732TIP3    H153687   2.135   6.468  13.156  1.2456 -0.9455 -0.7434
10732TIP3    H253688   2.081   6.336  13.106 -2.6822  0.1752  0.2185
10733TIP3   OH253689   2.445   2.025   0.164  0.2087  0.0788 -0.3062
10733TIP3    H153690   2.434   1.961   0.093  0.2178  0.0454 -0.2771
10733TIP3    H253691   2.396   2.102   0.133  1.0467  0.4269 -0.8066
10734TIP3   OH253692   6.216   3.579   3.762 -0.6179 -0.3051  0.4629
10734TIP3    H153693   6.234   3.485   3.770 -1.7236 -0.4558  1.5676
10734TIP3    H253694   6.187   3.605   3.850  1.4808  1.4926  0.7231
10735TIP3   OH253695   2.054   5.443  17.046 -0.2544 -0.1928 -0.3004
10735TIP3    H153696   2.075   5.434  16.953  2.9300 -0.7242  0.3263
10735TIP3    H253697   2.093   5.526  17.072 -1.0590 -0.0664  0.5798
10736TIP3   OH253698   5.693   1.892   2.076  0.1016 -0.1744 -0.3774
10736TIP3    H153699   5.712   1.799   2.089  0.7859  0.1164  0.9086
10736TIP3    H253700   5.778   1.931   2.056  0.1639  0.4524  0.9886
10737TIP3   OH253701   1.574   0.321   2.014 -0.3338 -0.0725 -0.4009
10737TIP3    H153702   1.488   0.336   2.054 -0.8922  0.1751 -1.6769
10737TIP3    H253703   1.602   0.236   2.050 -1.6529 -0.7429 -0.8970
10738TIP3   OH253704   3.692   5.976  11.692 -0.0020  0.8854 -0.1000
10738TIP3    H153705   3.660   5.889  11.714  1.3937  0.7086  1.3997
10738TIP3    H253706   3.646   6.034  11.752  0.8142  0.8832  0.5448
10739TIP3   OH253707   2.267   2.580   1.104  0.7214  0.0798  0.3611
10739TIP3    H153708   2.238   2.515   1.040 -0.0153 -0.9396  1.6630
10739TIP3    H253709   2.353   2.607   1.073  1.3716 -2.0566  0.1203
10740TIP3   OH253710   2.429   5.077  11.051 -0.8210  0.7740  0.2681
10740TIP3    H153711   2.482   5.035  10.984 -2.3557 -2.1718  0.7417
10740TIP3    H253712   2.492   5.116  11.112  0.8060 -1.6632  0.2608
10741TIP3   OH253713   4.156   2.019   1.300  0.1642  0.1235  0.6731
10741TIP3    H153714   4.156   1.991   1.392  0.0208 -1.1395  0.2935
10741TIP3    H253715   4.248   2.042   1.283  0.4323 -0.8511  0.7720
10742TIP3   OH253716   0.371   3.007  14.202 -0.7401  0.1304 -0.1263
10742TIP3    H153717   0.304   2.939  14.194  1.1023 -1.6815 -1.0114
10742TIP3    H253718   0.449   2.968  14.163  0.7413  2.3154  0.5014
10743TIP3   OH253719   3.065   5.667  12.718 -0.5921  0.8499 -0.3917
10743TIP3    H153720   3.117   5.660  12.637 -1.4252 -2.3519 -0.7711
10743TIP3    H253721   2.981   5.702  12.689 -1.3421 -1.4628 -1.2646
10744TIP3   OH253722   1.254   2.604   0.522 -0.0187  0.6240  0.5899
10744TIP3    H153723   1.268   2.691   0.558 -1.6219  0.9399  0.5520
10744TIP3    H253724   1.159   2.597   0.513  0.1374 -0.7396 -0.3781
10745TIP3   OH253725   0.324   0.945  11.598 -1.2468 -0.0819  0.0463
10745TIP3    H153726   0.299   0.909  11.683  0.0905  3.1282  1.9832
10745TIP3    H253727   0.250   1.000  11.573 -1.2240 -0.2460 -0.3788
10746TIP3   OH253728   3.102   5.680   5.897 -0.3729  0.3312  0.2953
10746TIP3    H153729   3.170   5.728   5.944  0.7463 -0.1964 -0.7552
10746TIP3    H253730   3.133   5.675   5.807 -2.2267  0.8673 -0.4328
10747TIP3   OH253731   2.942   1.879   1.327 -0.2643  0.1645  0.6586
10747TIP3    H153732   2.929   1.973   1.334 -1.9543  0.1435 -1.1786
10747TIP3    H253733   2.859   1.846   1.294  1.3795 -1.4819 -2.2439
10748TIP3   OH253734   2.591   3.883   3.518  0.3800  0.5023 -0.4791
10748TIP3    H153735   2.501   3.862   3.544  1.1719 -0.4366  1.7491
10748TIP3    H253736   2.639   3.893   3.600  3.0021 -2.1508 -1.4924
10749TIP3   OH253737   2.780   0.984   1.034  0.5244 -0.0784  0.3913
10749TIP3    H153738   2.717   0.930   1.083  2.0673 -1.7861  0.6051
10749TIP3    H253739   2.761   1.074   1.061 -1.4157 -0.5861  0.8897
10750TIP3   OH253740   6.530   5.754   0.579  0.0818  0.4080  0.3149
10750TIP3    H153741   6.535   5.707   0.662 -0.8425  0.2905  0.3146
10750TIP3    H253742   6.519   5.686   0.513  1.1090  0.4781  0.0436
10751TIP3   OH253743   4.070   0.005  13.974  0.1627  0.2010 -0.1546
10751TIP3    H153744   4.133   0.068  14.008 -0.3661  0.4918  0.3059
10751TIP3    H253745   3.988   0.028  14.017 -0.0417 -0.8040  0.0156
10752TIP3   OH253746   5.164   4.273   3.759 -0.3675  0.7876  0.1693
10752TIP3    H153747   5.102   4.201   3.770  0.2605  0.3360  0.8472
10752TIP3    H253748   5.110   4.349   3.736 -1.0635  0.1765 -0.2423
10753TIP3   OH253749   2.472   0.043   0.420  0.3904  0.0624 -0.3454
10753TIP3    H153750   2.565   0.023   0.407  0.3664 -0.5651  0.4286
10753TIP3    H253751   2.443  -0.018   0.487 -0.3962  0.7721 -0.0202
10754TIP3   OH253752   6.102   2.045  12.386  0.1273 -0.5039  0.3250
10754TIP3    H153753   6.053   2.124  12.407  0.5236 -0.0158 -0.5393
10754TIP3    H253754   6.166   2.037  12.456  0.6391  0.4214 -0.0229
10755TIP3   OH253755   5.620   1.700   5.019  0.0726  0.2364 -0.5871
10755TIP3    H153756   5.614   1.631   4.954 -0.8319 -0.8204  0.5707
10755TIP3    H253757   5.604   1.657   5.102  0.6406  1.6459  0.3052
10756TIP3   OH253758   3.967   6.788   2.335 -0.1280 -0.4669  0.5814
10756TIP3    H153759   3.964   6.872   2.381 -1.0058 -0.3913  0.3886
10756TIP3    H253760   3.936   6.807   2.247 -0.3844 -1.0085  0.5521
10757TIP3   OH253761   4.148   4.304   4.062 -0.1194 -0.0480 -0.0653
10757TIP3    H153762   4.103   4.373   4.012  0.3445  1.2521  1.2650
10757TIP3    H253763   4.240   4.314   4.039 -0.1267 -0.7375 -0.4355
10758TIP3   OH253764   1.199   5.814  13.102 -1.0238  0.1589  0.5833
10758TIP3    H153765   1.243   5.763  13.170 -2.7707  0.6845  2.1778
10758TIP3    H253766   1.212   5.763  13.022  2.5557  0.3479  0.8485
10759TIP3   OH253767   1.910   1.752   1.726  0.5815 -0.2635 -0.1037
10759TIP3    H153768   1.947   1.724   1.642 -0.3933  0.8585 -0.9460
10759TIP3    H253769   1.823   1.713   1.727  1.1020 -1.4524  1.0654
10760TIP3   OH253770   0.888   5.808  11.323 -0.2848 -0.2611 -0.1308
10760TIP3    H153771   0.883   5.721  11.284  0.7887 -0.3007 -0.2109
10760TIP3    H253772   0.858   5.867  11.253  0.0819 -0.4727 -0.4704
10761TIP3   OH253773   1.508   6.538   5.836  0.6108 -0.0755 -0.4218
10761TIP3    H153774   1.439   6.474   5.815 -0.7517  1.1860 -0.0083
10761TIP3    H253775   1.588   6.500   5.801 -0.2182 -1.8171 -0.5303
10762TIP3   OH253776   4.724   2.341   1.661  0.0450 -0.0917 -0.1610
10762TIP3    H153777   4.694   2.314   1.574  0.6461  0.1275 -0.4455
10762TIP3    H253778   4.817   2.316   1.662  0.7575  2.2854 -0.5891
10763TIP3   OH253779   0.172   0.761   3.935  0.1833  0.3342  0.0843
10763TIP3    H153780   0.109   0.764   3.863  1.0404  1.8222 -0.6779
10763TIP3    H253781   0.240   0.701   3.905 -0.1781 -0.1878  0.3012
10764TIP3   OH253782   2.912   3.216  12.865 -0.3972  0.0393  0.1525
10764TIP3    H153783   2.819   3.195  12.862 -0.6773  0.9865  1.4822
10764TIP3    H253784   2.949   3.153  12.926 -0.0070 -0.7683 -0.8709
10765TIP3   OH253785   3.950   3.992   5.498 -0.3214  0.1291  0.4747
10765TIP3    H153786   3.941   3.897   5.499 -0.9423  0.1683 -0.5934
10765TIP3    H253787   3.876   4.024   5.549 -1.9186  0.1335 -1.7298
10766TIP3   OH253788   5.608   0.786   4.193 -0.1814 -0.3224  0.1711
10766TIP3    H153789   5.516   0.761   4.201 -0.3589  0.1772 -0.2399
10766TIP3    H253790   5.605   0.876   4.158  0.4692 -0.6129 -0.6657
10767TIP3   OH253791   0.565   6.550   5.850 -0.1126 -0.5043  0.8127
10767TIP3    H153792   0.636   6.572   5.909  1.6106  0.3566 -1.4275
10767TIP3    H253793   0.607   6.536   5.765 -2.7272  2.3576 -1.1950
10768TIP3   OH253794   2.202   4.932   4.520  0.4617 -0.1311  0.0154
10768TIP3    H153795   2.222   4.874   4.593 -1.4717 -0.5514  0.2531
10768TIP3    H253796   2.224   5.020   4.552 -1.2187 -0.1985  1.4758
10769TIP3   OH253797   1.068   3.349  15.802  0.5310  0.2197  0.4320
10769TIP3    H153798   1.001   3.418  15.802  2.3839  2.1249  1.4688
10769TIP3    H253799   1.027   3.276  15.847 -1.8222  0.2539 -1.4612
10770TIP3   OH253800   2.382   0.864   1.891 -0.1383 -1.0857  0.3056
10770TIP3    H153801   2.365   0.806   1.817 -0.3087 -0.7641  0.0865
10770TIP3    H253802   2.328   0.829   1.962 -1.4162 -0.3365 -0.2604
10771TIP3   OH253803   6.335   2.776  16.561  0.3994 -0.1901 -0.2802
10771TIP3    H153804   6.374   2.827  16.490  1.5945 -0.9373 -0.2093
10771TIP3    H253805   6.269   2.721  16.518 -1.0907  1.5402 -0.3120
10772TIP3   OH253806   6.392   5.865  15.697  0.3311 -0.6266  0.1891
10772TIP3    H153807   6.367   5.850  15.788 -0.3514 -0.0237  0.1076
10772TIP3    H253808   6.335   5.936  15.668 -0.0961 -1.4379 -0.9987
10773TIP3   OH253809   2.670   0.254   5.811 -0.2273  0.3226 -0.0541
10773TIP3    H153810   2.686   0.275   5.904 -0.4533  1.7462 -0.3080
10773TIP3    H253811   2.576   0.233   5.808 -0.2192  0.2704  0.0378
10774TIP3   OH253812   3.744   1.536  12.568  0.1346 -0.3497  0.0727
10774TIP3    H153813   3.707   1.624  12.572 -2.3231 -1.3252  0.4420
10774TIP3    H253814   3.707   1.491  12.643  0.9736 -1.8278 -0.3713
10775TIP3   OH253815   4.886   3.152   5.749  0.0825 -0.4497 -0.2237
10775TIP3    H153816   4.856   3.068   5.715  0.4526 -0.2995 -0.9641
10775TIP3    H253817   4.858   3.215   5.683 -0.5138  0.0614  0.5060
10776TIP3   OH253818   4.239   1.095   3.991 -0.5482  0.4549  0.0328
10776TIP3    H153819   4.208   1.186   3.997  1.0037  1.0094 -0.0344
10776TIP3    H253820   4.224   1.071   3.899 -4.2826 -0.6635  0.7368
10777TIP3   OH253821   5.776   3.281  15.313 -0.4213  0.2055 -0.3767
10777TIP3    H153822   5.846   3.232  15.357  1.1320  0.9236 -1.9219
10777TIP3    H253823   5.728   3.214  15.265 -0.0089 -0.1441 -0.3157
10778TIP3   OH253824   4.561   3.604  13.752  0.3779 -0.4094 -0.5566
10778TIP3    H153825   4.605   3.519  13.749  0.6028 -0.3117 -0.0726
10778TIP3    H253826   4.469   3.583  13.767  0.7206 -0.5029  1.6164
10779TIP3   OH253827   6.293   5.965   4.821 -0.3453  0.5063  0.5452
10779TIP3    H153828   6.332   5.908   4.886  0.8643  1.5765  0.7804
10779TIP3    H253829   6.364   6.022   4.792 -1.3278  1.3737 -0.2572
10780TIP3   OH253830   5.128   4.194   4.856 -0.5487 -0.0853  0.2019
10780TIP3    H153831   5.061   4.167   4.918 -1.2453  1.6604  0.2621
10780TIP3    H253832   5.108   4.285   4.837  2.0657  0.6711  0.5860
10781TIP3   OH253833   3.886   1.854   1.370  0.2842  0.2306  0.0924
10781TIP3    H153834   3.945   1.914   1.416  1.2939 -0.2561 -0.5216
10781TIP3    H253835   3.860   1.903   1.291 -0.0082  0.3815  0.2802
10782TIP3   OH253836   1.228   3.009  16.432  0.4524  0.0813  0.2821
10782TIP3    H153837   1.135   3.003  16.456 -0.1057  2.8857 -0.7186
10782TIP3    H253838   1.233   2.966  16.347  0.7115 -2.4648  1.4940
10783TIP3   OH253839   3.537   4.876   2.016  0.2331  0.2571 -0.3246
10783TIP3    H153840   3.528   4.848   1.925  0.8409  1.3092 -0.7252
10783TIP3    H253841   3.578   4.962   2.011  0.9148  0.0418  0.9764
10784TIP3   OH253842   2.208   5.072   3.421 -0.4267  0.2090 -0.0210
10784TIP3    H153843   2.201   5.029   3.336 -1.4105 -0.8375  0.5713
10784TIP3    H253844   2.290   5.040   3.458  0.5896  1.5350 -1.0135
10785TIP3   OH253845   0.085   0.774   3.182  0.2973 -0.5876  0.3790
10785TIP3    H153846   0.172   0.792   3.145 -0.6008  2.4512 -0.4615
10785TIP3    H253847   0.028   0.839   3.142 -1.9619 -1.0724  2.6005
10786TIP3   OH253848   1.171   4.950  16.300 -0.1163  0.1188  0.1566
10786TIP3    H153849   1.203   5.000  16.224  1.7569 -0.0666  0.7615
10786TIP3    H253850   1.144   4.866  16.264 -2.4226  1.1515 -0.7405
10787TIP3   OH253851   0.268   1.991   3.588  0.5212  0.4551 -0.3574
10787TIP3    H153852   0.330   1.920   3.571  0.8419  0.4435  0.7624
10787TIP3    H253853   0.200   1.981   3.521  0.3926 -1.1074 -0.0347
10788TIP3   OH253854   4.013   5.481  12.977  0.4216  0.0248 -0.5418
10788TIP3    H153855   3.953   5.445  12.912  0.9663  0.2211 -1.1642
10788TIP3    H253856   3.970   5.560  13.009 -0.1288 -0.4054 -0.2031
10789TIP3   OH253857   5.880   2.602   6.330  0.0245 -0.3189 -1.6025
10789TIP3    H153858   5.939   2.528   6.314  2.2283  0.8133  0.5941
10789TIP3    H253859   5.833   2.578   6.410  0.3526  0.3921 -1.1886
10790TIP3   OH253860   0.378   1.482   3.471 -0.3783 -0.4191 -0.6030
10790TIP3    H153861   0.363   1.496   3.565 -0.2718 -0.9469 -0.5084
10790TIP3    H253862   0.444   1.548   3.448 -0.5692 -0.1412 -0.3557
10791TIP3   OH253863   1.538   3.624  11.876  0.2339 -0.2512 -0.8045
10791TIP3    H153864   1.517   3.613  11.783 -3.3737  0.3841 -0.2319
10791TIP3    H253865   1.533   3.535  11.912  0.4700 -0.3482 -1.0079
10792TIP3   OH253866   0.445   3.119  15.422 -0.2201 -0.5622  0.0939
10792TIP3    H153867   0.425   3.051  15.357  0.4316  0.1587 -0.8860
10792TIP3    H253868   0.538   3.136  15.410  0.1439 -1.0861  1.8950
10793TIP3   OH253869   3.689   4.775  12.135 -0.3068  0.3537  1.0526
10793TIP3    H153870   3.609   4.732  12.104  1.0596 -0.0043 -2.4714
10793TIP3    H253871   3.752   4.763  12.064  2.2270  2.5374  2.7117
10794TIP3   OH253872   1.984   2.801  12.831  0.3208  0.1441  0.0202
10794TIP3    H153873   2.057   2.861  12.813  0.5016  0.4849  1.7101
10794TIP3    H253874   2.014   2.750  12.906 -1.3860  0.6499  1.0896
10795TIP3   OH253875   3.806   3.600   1.756 -0.1005  0.3192  0.5249
10795TIP3    H153876   3.728   3.604   1.701 -1.0020  1.3435  1.7904
10795TIP3    H253877   3.848   3.686   1.745 -0.3022  0.5428  1.4127
10796TIP3   OH253878   2.199   4.879  13.409 -0.2297  0.5021  0.4006
10796TIP3    H153879   2.143   4.957  13.414  0.3354  0.9162  0.3861
10796TIP3    H253880   2.288   4.914  13.409  0.0535 -0.1789  1.1395
10797TIP3   OH253881   5.257   2.919  11.962 -0.6384 -0.4325 -0.5043
10797TIP3    H153882   5.166   2.908  11.936 -1.1375 -1.0144  1.3558
10797TIP3    H253883   5.288   2.831  11.983  0.4581 -0.2802 -1.3491
10798TIP3   OH253884   2.197   6.323   4.582 -0.1615  0.4049  0.3624
10798TIP3    H153885   2.170   6.301   4.493  0.2426  0.2361  0.2786
10798TIP3    H253886   2.132   6.282   4.639  0.5142 -0.9295  0.2111
10799TIP3   OH253887   1.175   6.552   3.644  0.1931  0.1436  0.4186
10799TIP3    H153888   1.129   6.470   3.659 -1.5829  1.0480  0.2136
10799TIP3    H253889   1.203   6.581   3.731 -1.3201  0.4982  0.8056
10800TIP3   OH253890   0.909   0.938   3.724  0.0977  0.1444 -0.1547
10800TIP3    H153891   0.984   0.878   3.730 -0.6295 -0.6426  1.6893
10800TIP3    H253892   0.945   1.018   3.687  1.7769 -0.3439  0.3418
10801TIP3   OH253893   1.201   3.631  14.092 -0.4574  0.4136 -0.4223
10801TIP3    H153894   1.108   3.618  14.076 -0.3872  0.3938 -0.8046
10801TIP3    H253895   1.238   3.543  14.098 -0.1955  0.4119 -1.8119
10802TIP3   OH253896   2.912   4.103  13.786 -0.0271 -0.0841  0.2843
10802TIP3    H153897   2.889   4.101  13.693  1.2598  0.6770 -0.0807
10802TIP3    H253898   2.837   4.064  13.830 -0.3853 -1.0798 -1.1300
10803TIP3   OH253899   4.913   5.947  14.077  0.0449 -0.4879  0.4908
10803TIP3    H153900   4.861   6.007  14.131  0.3291  0.7157 -0.5547
10803TIP3    H253901   4.876   5.955  13.989  2.7269  1.3762 -0.5955
10804TIP3   OH253902   4.973   2.807  11.412  0.5426  0.3553  0.0869
10804TIP3    H153903   5.016   2.892  11.422  0.4895  0.3916  0.0045
10804TIP3    H253904   5.045   2.745  11.399  0.4880  0.7045 -2.2076
10805TIP3   OH253905   0.706   0.967   0.623 -0.2921  0.1064 -0.1622
10805TIP3    H153906   0.647   0.912   0.573 -1.1294 -0.0406  0.9450
10805TIP3    H253907   0.661   0.982   0.706  1.5185 -0.6091  1.0160
10806TIP3   OH253908   6.716   0.548  13.688 -0.0173  0.0802 -1.0071
10806TIP3    H153909   6.707   0.576  13.597 -1.6691  0.8930 -0.6323
10806TIP3    H253910   6.647   0.596  13.735 -0.3138 -1.6134  0.3785
10807TIP3   OH253911   4.405   3.361  15.140 -0.6152 -0.3323 -0.0289
10807TIP3    H153912   4.398   3.445  15.094 -1.1947  1.2442  2.6866
10807TIP3    H253913   4.414   3.296  15.070  2.3140  2.1548 -2.2633
10808TIP3   OH253914   6.244   4.648   2.714  0.6176  0.1372  0.2539
10808TIP3    H153915   6.275   4.718   2.771  1.6515  0.2235 -0.3880
10808TIP3    H253916   6.218   4.692   2.633  0.1799 -0.1010  0.2604
10809TIP3   OH253917   1.489   5.695   0.770 -0.2120  0.3831 -0.3123
10809TIP3    H153918   1.478   5.659   0.858  1.1364 -1.4239 -0.8144
10809TIP3    H253919   1.572   5.658   0.740 -0.6172  1.0000 -2.3290
10810TIP3   OH253920   0.698   3.822  15.990  0.1525 -0.0702 -0.0117
10810TIP3    H153921   0.677   3.904  16.036 -0.9450  0.7034 -1.7961
10810TIP3    H253922   0.705   3.847  15.898  0.2705 -1.9138 -0.5452
10811TIP3   OH253923   0.216   5.624  14.465 -0.4482  0.2058 -0.3930
10811TIP3    H153924   0.129   5.656  14.489 -1.5806 -0.7517 -2.8868
10811TIP3    H253925   0.272   5.701  14.469 -1.2344  0.7590  1.6875
10812TIP3   OH253926   2.193   0.383   3.977 -0.1604 -0.0316  0.0749
10812TIP3    H153927   2.122   0.447   3.980 -0.9438 -0.9003  0.3214
10812TIP3    H253928   2.202   0.361   3.885  1.8166  2.2639 -0.3825
10813TIP3   OH253929   2.252   2.480  13.444 -0.2370  0.2653  0.2325
10813TIP3    H153930   2.336   2.437  13.461 -0.0639  1.1637  1.9390
10813TIP3    H253931   2.196   2.450  13.515 -2.2084 -2.2203 -2.1687
10814TIP3   OH253932   3.468   3.001   4.593 -0.4558  0.8384  0.5001
10814TIP3    H153933   3.414   2.975   4.518 -1.0860  3.2960  0.0077
10814TIP3    H253934   3.438   2.945   4.665  0.7974 -2.2217 -1.1921
10815TIP3   OH253935   2.565   5.222  17.019 -0.0450 -0.0581 -0.5333
10815TIP3    H153936   2.512   5.300  17.037  2.0369  1.3826 -0.3389
10815TIP3    H253937   2.563   5.172  17.101 -2.7162 -1.1395 -1.1446
10816TIP3   OH253938   0.898   1.316  16.175 -0.3296  0.1648  0.2106
10816TIP3    H153939   0.926   1.225  16.170 -0.3969  0.0270  1.8399
10816TIP3    H253940   0.969   1.361  16.221  0.0762  1.1257 -1.2793
10817TIP3   OH253941   4.604   6.622  15.473 -0.5233  0.1227 -0.2703
10817TIP3    H153942   4.673   6.659  15.529 -0.3594  0.4664 -0.6990
10817TIP3    H253943   4.579   6.694  15.416 -2.7369  0.6693  1.2666
10818TIP3   OH253944   0.829   4.114   6.337 -0.2577  0.3864 -0.5430
10818TIP3    H153945   0.834   4.075   6.424 -1.5907 -1.5282 -1.2499
10818TIP3    H253946   0.764   4.184   6.346 -0.8412 -0.1930 -0.1039
10819TIP3   OH253947   0.994   2.687   5.467  0.0579 -0.4568 -0.3487
10819TIP3    H153948   1.001   2.614   5.406 -0.3080 -0.6040 -0.2198
10819TIP3    H253949   0.930   2.658   5.532  1.6379 -0.9947  1.0720
10820TIP3   OH253950   1.881   5.549  12.350  0.1289 -0.3883 -0.1028
10820TIP3    H153951   1.837   5.508  12.425 -0.2230  0.8943  0.4093
10820TIP3    H253952   1.964   5.502  12.343  0.1489 -0.5640  1.0537
10821TIP3   OH253953   5.352   3.744   5.496  0.6086  0.0511  0.3071
10821TIP3    H153954   5.378   3.662   5.455  0.5709  0.0577  0.2696
10821TIP3    H253955   5.318   3.798   5.424  2.7761  0.9987 -0.0613
10822TIP3   OH253956   5.135   2.769   0.055 -0.0700 -0.2414  0.6947
10822TIP3    H153957   5.209   2.757  -0.004 -0.2838 -2.9880  0.8784
10822TIP3    H253958   5.160   2.843   0.110  2.3351 -0.7978  0.4316
10823TIP3   OH253959   3.952   0.123  11.172 -0.1683  0.3981  0.2031
10823TIP3    H153960   4.036   0.143  11.129  0.0812 -1.0115 -0.0221
10823TIP3    H253961   3.896   0.093  11.100 -1.1939  2.1914  0.2033
10824TIP3   OH253962   4.337   4.434  15.169  0.4245 -0.3527 -0.4011
10824TIP3    H153963   4.282   4.447  15.092 -1.1566  0.0540  0.7377
10824TIP3    H253964   4.395   4.510  15.170  0.4466 -0.3526 -1.1644
10825TIP3   OH253965   2.924   1.239   6.100 -0.5093  0.4053  0.7024
10825TIP3    H153966   2.949   1.159   6.146 -0.0783  1.0322  1.5775
10825TIP3    H253967   2.870   1.287   6.162 -2.1543  0.0772 -0.3986
10826TIP3   OH253968   2.124   0.525  14.988  0.2301  0.1252  0.1228
10826TIP3    H153969   2.076   0.547  15.067 -0.8783  0.0544 -0.5122
10826TIP3    H253970   2.092   0.587  14.922 -0.6662 -1.3378 -0.8839
10827TIP3   OH253971   0.607   5.232   4.210  0.5868  0.1907  0.1221
10827TIP3    H153972   0.553   5.209   4.286  1.5379 -0.4735  0.6145
10827TIP3    H253973   0.637   5.321   4.227 -0.5045  0.6525 -0.2589
10828TIP3   OH253974   3.017   5.664   6.272  0.4683 -0.1768  0.0896
10828TIP3    H153975   2.969   5.644   6.192  0.0286  0.9288  0.0572
10828TIP3    H253976   3.059   5.582   6.296  2.3306 -0.0686 -2.4111
10829TIP3   OH253977   0.188   5.665   0.856  0.1729  0.1312 -0.1726
10829TIP3    H153978   0.258   5.618   0.901 -2.1888 -0.3578  3.4269
10829TIP3    H253979   0.163   5.609   0.783  1.8149 -0.8849  0.0117
10830TIP3   OH253980   3.763   2.220   5.164 -0.4608 -0.3560  0.1687
10830TIP3    H153981   3.693   2.202   5.101 -1.0786  1.8508  0.1365
10830TIP3    H253982   3.733   2.176   5.244 -2.2750  1.0278  0.3361
10831TIP3   OH253983   0.024   4.252  15.330  0.2285  0.1715 -0.0438
10831TIP3    H153984   0.039   4.203  15.249  0.0955  0.2967 -0.1467
10831TIP3    H253985   0.088   4.323  15.327  1.8573 -1.1653  1.1089
10832TIP3   OH253986   0.250   1.458   0.692 -0.1921  0.1342 -0.0642
10832TIP3    H153987   0.302   1.481   0.769  0.1901 -0.3294 -0.1795
10832TIP3    H253988   0.280   1.370   0.668 -1.7771 -0.5873  0.4847
10833TIP3   OH253989   2.355   5.295  15.593  0.1963  0.7153 -0.4940
10833TIP3    H153990   2.418   5.241  15.547 -1.2475  0.0873 -1.8283
10833TIP3    H253991   2.303   5.233  15.645 -0.1051  1.0717 -0.3610
10834TIP3   OH253992   5.012   2.184  14.884 -0.3840 -0.1023 -0.5757
10834TIP3    H153993   4.956   2.121  14.837 -2.3457  0.7679  0.4751
10834TIP3    H253994   5.027   2.144  14.969 -1.8293  0.8816  0.1811
10835TIP3   OH253995   2.578   3.464   4.834 -0.3104  0.1662 -0.1615
10835TIP3    H153996   2.591   3.493   4.924 -1.1695 -1.1421  0.4183
10835TIP3    H253997   2.538   3.377   4.842  2.4713 -1.4017 -1.7777
10836TIP3   OH253998   6.475   6.715  16.506  0.1624 -0.0198 -0.1716
10836TIP3    H153999   6.502   6.791  16.557 -0.2416 -0.1715  0.2717
10836TIP3    H254000   6.394   6.685  16.548 -1.9364  1.6641 -2.6731
10837TIP3   OH254001   6.764   1.177  16.244 -0.3573  0.7481 -0.2688
10837TIP3    H154002   6.725   1.097  16.280  0.3078  0.9439  0.9189
10837TIP3    H254003   6.737   1.177  16.152  0.6904 -1.5430 -0.6568
10838TIP3   OH254004   2.849   5.550   3.766  0.3120  0.3574  0.2239
10838TIP3    H154005   2.872   5.637   3.736  2.4880 -0.1316  0.3181
10838TIP3    H254006   2.765   5.531   3.723  1.2950  1.2729 -2.2684
10839TIP3   OH254007   1.799   0.421  17.099 -0.5205  0.3159 -0.1907
10839TIP3    H154008   1.765   0.492  17.045  0.4441  0.6393 -0.3948
10839TIP3    H254009   1.728   0.402  17.161 -0.8568  1.3446 -0.2361
10840TIP3   OH254010   4.308   1.710   5.968  0.0139 -0.2418 -0.3920
10840TIP3    H154011   4.255   1.687   5.892 -0.3754 -1.7860  0.2980
10840TIP3    H254012   4.397   1.717   5.933 -0.0741 -1.4712 -0.9301
10841TIP3   OH254013   4.525   3.065   5.546  0.1239  0.3988  0.0248
10841TIP3    H154014   4.454   3.006   5.521 -0.8424  0.8357  1.5430
10841TIP3    H254015   4.489   3.115   5.620  1.9772  0.6973  0.7870
10842TIP3   OH254016   0.931   0.469  17.060  0.0278  0.1218 -0.4657
10842TIP3    H154017   0.985   0.497  17.134 -0.0480  0.6870 -0.6184
10842TIP3    H254018   0.928   0.374  17.067  3.6552 -0.3080 -2.1870
10843TIP3   OH254019   1.393   6.256  15.393 -0.0399  0.0342  0.0222
10843TIP3    H154020   1.300   6.266  15.375 -0.3591 -0.4090  1.2971
10843TIP3    H254021   1.397   6.229  15.485  1.2792 -1.1252 -0.3255
10844TIP3   OH254022   6.605   0.617   1.499 -0.3425  0.6435  0.0317
10844TIP3    H154023   6.608   0.533   1.543 -1.0201  0.1499 -0.8253
10844TIP3    H254024   6.519   0.653   1.520 -0.0468  1.1528  0.4201
10845TIP3   OH254025   0.304   0.575   3.728  0.1345  0.2551  0.2849
10845TIP3    H154026   0.383   0.545   3.773 -0.3466 -0.0466  0.9445
10845TIP3    H254027   0.335   0.604   3.642  0.8656 -0.4952  0.2811
10846TIP3   OH254028   4.092   1.225   2.694 -0.5877 -0.0034 -0.1831
10846TIP3    H154029   4.021   1.288   2.704 -0.7562 -0.2830  0.4331
10846TIP3    H254030   4.141   1.255   2.617  0.8887  2.4059  1.5437
10847TIP3   OH254031   0.606   3.465  11.876 -0.8963  0.3131  0.0975
10847TIP3    H154032   0.682   3.435  11.925 -1.0984  0.7170  0.6680
10847TIP3    H254033   0.619   3.431  11.787  0.5731  1.4425 -0.1504
10848TIP3   OH254034   1.523   2.054  15.783  0.2331  0.1929  0.1736
10848TIP3    H154035   1.611   2.091  15.773  1.1951 -1.6465  1.2397
10848TIP3    H254036   1.468   2.106  15.724  1.8324  2.0005  0.1810
10849TIP3   OH254037   5.194   5.786   6.225  0.2597  0.3711  0.4175
10849TIP3    H154038   5.276   5.780   6.175  0.3200 -0.1757  0.5741
10849TIP3    H254039   5.150   5.703   6.208 -0.7459  1.0583 -0.4870
10850TIP3   OH254040   1.922   4.990   0.339 -0.0056 -0.4852 -0.2219
10850TIP3    H154041   1.954   4.910   0.380 -0.9150 -0.3134  0.8563
10850TIP3    H254042   1.995   5.052   0.348  0.3774 -0.9189 -0.2746
10851TIP3   OH254043   2.039   0.220  12.964  0.4695  0.2671 -0.2407
10851TIP3    H154044   2.078   0.308  12.960  0.9596  0.0378 -0.6467
10851TIP3    H254045   2.030   0.203  13.058  0.4321  0.7231 -0.1573
10852TIP3   OH254046   4.659   6.778  12.638 -0.3996  0.3339 -0.4444
10852TIP3    H154047   4.624   6.850  12.689 -0.2165 -0.3752  0.7078
10852TIP3    H254048   4.582   6.737  12.598 -0.7828 -0.3927  0.9848
10853TIP3   OH254049   6.213   1.060  15.437 -0.1242 -0.3928 -0.3093
10853TIP3    H154050   6.265   1.120  15.385 -0.4444  0.6291  0.5183
10853TIP3    H254051   6.123   1.093  15.431 -0.2858 -0.7135  0.2536
10854TIP3   OH254052   3.606   5.738  16.491 -0.4165 -0.7376 -0.0235
10854TIP3    H154053   3.653   5.657  16.470 -1.6532 -1.6378  0.5539
10854TIP3    H254054   3.653   5.806  16.442 -0.1603 -1.9919 -1.6167
10855TIP3   OH254055   4.569   6.119  16.597  0.1887  1.1159  0.7898
10855TIP3    H154056   4.614   6.047  16.641 -1.1124 -1.7193 -2.1483
10855TIP3    H254057   4.634   6.190  16.595  2.2470 -0.5978  2.1201
10856TIP3   OH254058   3.956   0.314   0.172  0.1988  0.3671  0.0369
10856TIP3    H154059   3.967   0.219   0.173 -0.0085  0.3435  0.6257
10856TIP3    H254060   4.020   0.347   0.235 -1.7225  0.3599  2.1474
10857TIP3   OH254061   5.384   6.656  12.386  0.3255  0.1551  0.3300
10857TIP3    H154062   5.402   6.569  12.350  1.1656 -0.5477  2.2553
10857TIP3    H254063   5.289   6.658  12.398 -0.2069  1.0313 -3.2062
10858TIP3   OH254064   0.482   1.121   4.681 -0.5417 -0.1424  0.3954
10858TIP3    H154065   0.449   1.033   4.695 -2.5149  0.5330  0.2935
10858TIP3    H254066   0.470   1.137   4.587 -3.4812  1.3834  0.9106
10859TIP3   OH254067   4.246   4.962   4.863  0.0614 -0.0757 -0.3047
10859TIP3    H154068   4.235   4.957   4.768  2.3983 -3.1090 -0.5809
10859TIP3    H254069   4.232   4.872   4.894  2.2586  0.1726  1.7704
10860TIP3   OH254070   2.155   3.887  15.886 -0.1206  0.1293 -0.1491
10860TIP3    H154071   2.065   3.885  15.920 -0.6704  1.1190 -1.4490
10860TIP3    H254072   2.157   3.964  15.829  2.4789  2.0297  2.2462
10861TIP3   OH254073   6.183   0.598   0.189 -0.1295 -0.5885 -0.0963
10861TIP3    H154074   6.165   0.671   0.130  0.8796 -0.0837  0.2055
10861TIP3    H254075   6.206   0.638   0.272 -0.0548 -1.2581  0.2138
10862TIP3   OH254076   1.512   4.476  12.699 -0.1571  0.1306  0.0282
10862TIP3    H154077   1.453   4.430  12.640  0.0187 -0.5473  0.3700
10862TIP3    H254078   1.538   4.410  12.763 -0.1580  0.7920  0.7252
10863TIP3   OH254079   2.597   6.464  11.639 -0.1267  0.9354  0.0657
10863TIP3    H154080   2.680   6.505  11.613  0.2971 -0.5486 -1.0440
10863TIP3    H254081   2.530   6.526  11.612  0.4568  0.6681 -2.1552
10864TIP3   OH254082   0.005   1.479  11.765 -0.0079  0.5729  0.1924
10864TIP3    H154083   0.077   1.427  11.729  0.6922  1.9016 -0.3991
10864TIP3    H254084   0.017   1.474  11.860 -1.2921 -2.1520  0.2986
10865TIP3   OH254085   6.132   3.732  15.044 -0.6284 -0.4601  0.1525
10865TIP3    H154086   6.057   3.756  15.098 -0.7938  0.3390 -0.4051
10865TIP3    H254087   6.111   3.768  14.957  0.1453 -0.7179 -0.1478
10866TIP3   OH254088   5.444   4.077  13.344  0.6573  0.4965  0.1885
10866TIP3    H154089   5.484   4.049  13.427 -1.1835 -1.3826  0.5370
10866TIP3    H254090   5.384   4.148  13.369  1.4439  1.1941  0.1431
10867TIP3   OH254091   1.356   2.707  11.506  0.1441  0.3642 -0.3920
10867TIP3    H154092   1.290   2.775  11.512 -1.4656 -1.2253  1.1422
10867TIP3    H254093   1.309   2.626  11.525  2.3395 -0.9658 -0.2605
10868TIP3   OH254094   1.742   6.622   3.579  0.0083  0.3658 -0.1285
10868TIP3    H154095   1.795   6.643   3.503  0.0037  0.3955 -0.1236
10868TIP3    H254096   1.703   6.536   3.559 -1.6897  1.3106 -1.0728
10869TIP3   OH254097   4.308   5.925  13.761  0.1040 -0.6023  0.0103
10869TIP3    H154098   4.257   5.878  13.827 -0.3914  0.1703  0.1865
10869TIP3    H254099   4.259   5.913  13.680 -0.6691  0.5610  0.2714
10870TIP3   OH254100   2.971   4.485  15.917  0.4530  0.9678  0.3557
10870TIP3    H154101   2.911   4.537  15.970 -0.7964  0.9965 -1.0289
10870TIP3    H254102   3.002   4.545  15.849  0.3264  0.3729 -0.2383
10871TIP3   OH254103   0.080   0.571   2.980 -0.0066 -0.1515  0.3027
10871TIP3    H154104   0.025   0.643   3.013 -0.2940  0.3701 -1.2416
10871TIP3    H254105   0.097   0.517   3.057 -0.1180  1.3481  1.4329
10872TIP3   OH254106   5.627   6.687   0.769  0.4284 -0.2345 -0.3869
10872TIP3    H154107   5.654   6.712   0.857  1.1227 -0.7381 -0.4480
10872TIP3    H254108   5.572   6.610   0.781  1.5958 -1.1076 -0.4664
10873TIP3   OH254109   3.013   5.987   1.839 -0.1517  0.3102  0.1375
10873TIP3    H154110   2.970   5.918   1.888  0.4020 -0.1324  0.0069
10873TIP3    H254111   2.959   5.999   1.761  0.2498 -0.6336 -0.3034
10874TIP3   OH254112   4.532   1.125   3.093 -0.2348  0.2838  0.0608
10874TIP3    H154113   4.627   1.130   3.085 -0.0361 -2.3272 -0.2842
10874TIP3    H254114   4.515   1.136   3.187  0.5635 -0.5219  0.3164
10875TIP3   OH254115   2.762   1.971   2.125 -0.1141 -0.0299 -0.1800
10875TIP3    H154116   2.667   1.974   2.129 -0.0574  1.0876  1.7360
10875TIP3    H254117   2.782   1.921   2.046 -2.2782 -0.8875 -0.2353
10876TIP3   OH254118   6.494   2.429   2.118 -0.0844 -0.1752 -0.6511
10876TIP3    H154119   6.505   2.358   2.054  0.9179 -1.6407  1.0309
10876TIP3    H254120   6.429   2.396   2.179  1.0193 -0.0336  0.6363
10877TIP3   OH254121   1.196   4.384  15.891  0.5295 -0.0876 -0.5661
10877TIP3    H154122   1.229   4.467  15.924  1.0116 -0.2997 -0.5090
10877TIP3    H254123   1.109   4.375  15.930  0.5586  0.2900 -0.4108
10878TIP3   OH254124   4.869   0.177   3.144  0.5187 -0.4369 -0.0764
10878TIP3    H154125   4.935   0.181   3.213  2.3511 -2.5647 -1.5890
10878TIP3    H254126   4.872   0.263   3.102  0.9547  0.1112  1.0325
10879TIP3   OH254127   4.838   6.271   3.966 -0.0221 -0.0109 -0.4278
10879TIP3    H154128   4.844   6.363   3.944  1.6827 -0.5168 -2.3046
10879TIP3    H254129   4.927   6.245   3.988 -0.7088 -0.9185  1.5170
10880TIP3   OH254130   4.929   6.290  14.677  0.4805 -0.1317  0.3992
10880TIP3    H154131   4.904   6.235  14.752 -0.6629 -0.3654 -0.1413
10880TIP3    H254132   4.939   6.229  14.604  0.1781  0.2589  0.0258
10881TIP3   OH254133   1.730   1.984   1.017  0.0215 -0.1267  0.1966
10881TIP3    H154134   1.665   2.020   1.077 -0.7694 -1.3083  0.0875
10881TIP3    H254135   1.682   1.967   0.936  0.8312  0.4356 -0.4163
10882TIP3   OH254136   3.755   0.136  14.304 -0.2982 -0.0358  0.3497
10882TIP3    H154137   3.841   0.114  14.337  0.3525  0.8721 -0.6613
10882TIP3    H254138   3.763   0.227  14.275 -0.8384 -0.6757 -2.0998
10883TIP3   OH254139   4.810   5.426   6.252  0.2770 -0.2035  0.2088
10883TIP3    H154140   4.818   5.388   6.339  1.0520 -0.7977 -0.1108
10883TIP3    H254141   4.901   5.444   6.226  0.0290  0.2731 -0.3424
10884TIP3   OH254142   2.897   0.257   0.204  0.4162  0.2346  0.2201
10884TIP3    H154143   2.904   0.252   0.108  0.6780 -2.4780  0.2905
10884TIP3    H254144   2.978   0.301   0.231  1.6010 -1.2394 -0.7225
10885TIP3   OH254145   2.374   3.274  13.594 -0.2127  0.0468  0.1992
10885TIP3    H154146   2.295   3.327  13.600 -0.0871  1.1765 -4.5060
10885TIP3    H254147   2.442   3.329  13.633 -1.0377  0.8599  0.5233
10886TIP3   OH254148   3.471   1.414   0.065  0.2235  0.5456  0.1771
10886TIP3    H154149   3.421   1.334   0.047 -0.7019  0.4088  2.8836
10886TIP3    H254150   3.560   1.392   0.039 -0.3436 -0.7322 -0.7960
10887TIP3   OH254151   1.617   0.003   3.980  0.1519 -0.0244  0.1830
10887TIP3    H154152   1.610  -0.063   3.911  1.2031  0.6766 -0.6413
10887TIP3    H254153   1.662   0.077   3.938 -0.4863  1.0023  1.2262
10888TIP3   OH254154   6.385   0.292  16.570 -0.0977  0.5163  0.0684
10888TIP3    H154155   6.359   0.374  16.611 -0.9542  0.6095 -0.6366
10888TIP3    H254156   6.432   0.318  16.491 -0.2408  0.3253 -0.0791
10889TIP3   OH254157   0.382   5.638   1.882 -0.4789  0.2421 -0.0709
10889TIP3    H154158   0.423   5.722   1.904  0.0424  0.1752 -0.7631
10889TIP3    H254159   0.452   5.586   1.844 -0.8214 -0.4862  0.2738
10890TIP3   OH254160   6.192   4.043   1.074  0.1513  0.5254  0.6240
10890TIP3    H154161   6.207   4.135   1.055  0.1769  0.2570 -0.7510
10890TIP3    H254162   6.277   4.011   1.106  0.3649  0.7945  0.3296
10891TIP3   OH254163   2.010   1.790  16.145  1.0595  0.2690  0.0504
10891TIP3    H154164   2.019   1.883  16.123  1.8884  0.1920  0.0357
10891TIP3    H254165   1.927   1.764  16.105  1.2043  0.8108 -0.6250
10892TIP3   OH254166   2.434   1.710  13.769  0.3258  0.2476 -0.5694
10892TIP3    H154167   2.479   1.646  13.714 -2.1183 -1.3637 -0.8383
10892TIP3    H254168   2.426   1.787  13.713 -0.7178 -0.8180 -1.9945
10893TIP3   OH254169   3.962   3.462  17.178 -0.8164  0.1113  0.0462
10893TIP3    H154170   3.979   3.373  17.207 -0.2736 -0.3071 -1.4638
10893TIP3    H254171   3.875   3.459  17.139 -0.5738  0.1107 -0.4993
10894TIP3   OH254172   5.005   1.770  14.857 -0.1151 -0.2755 -0.1793
10894TIP3    H154173   4.999   1.706  14.786  0.5731  0.5076 -0.9614
10894TIP3    H254174   4.980   1.721  14.936 -0.8792 -1.1630 -0.9473
10895TIP3   OH254175   6.641   6.743  15.093  0.2087 -0.4883  0.1954
10895TIP3    H154176   6.715   6.691  15.126 -0.3009 -1.5685 -0.3324
10895TIP3    H254177   6.645   6.734  14.998 -1.3480 -1.6567  0.2011
10896TIP3   OH254178   0.738   1.708  12.914  0.1742 -0.2442 -0.5674
10896TIP3    H154179   0.815   1.764  12.908  0.3070 -0.4984 -1.4654
10896TIP3    H254180   0.672   1.755  12.862 -0.2123 -0.1290  0.0251
10897TIP3   OH254181   0.939   6.075  15.470 -0.0922 -0.3113  0.3494
10897TIP3    H154182   0.981   6.147  15.422 -0.0423 -0.4832  0.1289
10897TIP3    H254183   0.852   6.067  15.431 -0.2911 -0.0259  0.7324
10898TIP3   OH254184   5.017   3.906  14.647 -0.1933 -0.2282  0.1151
10898TIP3    H154185   4.943   3.885  14.704 -0.8842  3.3939  0.8231
10898TIP3    H254186   5.008   3.846  14.573 -3.2331 -0.6528  0.6852
10899TIP3   OH254187   3.306   3.958  13.678  0.1202  0.2257 -0.5734
10899TIP3    H154188   3.340   3.878  13.637 -0.0604 -1.3012  2.0807
10899TIP3    H254189   3.213   3.942  13.689 -0.0785  1.1821 -0.7328
10900TIP3   OH254190   3.047   0.566  15.830 -0.4402  0.0263 -0.3284
10900TIP3    H154191   3.003   0.536  15.750  0.7015  0.9072 -1.3101
10900TIP3    H254192   3.130   0.603  15.800  0.5034 -0.5901  1.3752
10901TIP3   OH254193   2.441   4.159   4.264 -0.3196  0.2123 -1.0197
10901TIP3    H154194   2.445   4.063   4.268  0.1765  0.2397 -0.6527
10901TIP3    H254195   2.458   4.180   4.172 -2.0701 -0.1051 -1.4365
10902TIP3   OH254196   0.374   4.944  11.417  0.5923  0.2949 -0.1273
10902TIP3    H154197   0.374   5.035  11.448 -1.1695 -0.0791  1.1136
10902TIP3    H254198   0.284   4.915  11.427  1.2570 -1.8506  0.2183
10903TIP3   OH254199   4.119   6.111  14.884  0.0917  0.9770  0.1576
10903TIP3    H154200   4.183   6.042  14.901 -2.8090 -1.7133  1.0292
10903TIP3    H254201   4.104   6.107  14.789 -0.1247  0.3369  0.2156
10904TIP3   OH254202   5.284   0.373   6.600 -0.4926 -0.0771 -0.3461
10904TIP3    H154203   5.223   0.394   6.671  0.4826 -0.0778  0.5077
10904TIP3    H254204   5.329   0.294   6.629  1.4140  1.0948  0.0226
10905TIP3   OH254205   2.688   4.159  14.503  0.0891  0.1059  0.0202
10905TIP3    H154206   2.739   4.183  14.581  1.4856 -2.4404  0.0037
10905TIP3    H254207   2.753   4.134  14.438 -1.1300 -0.2900 -1.1002
10906TIP3   OH254208   3.050   5.542   3.955  0.0884 -0.0644  0.1464
10906TIP3    H154209   2.972   5.539   3.900  0.5449  0.3679 -0.5282
10906TIP3    H254210   3.120   5.506   3.901  0.5635  0.4536  0.3997
10907TIP3   OH254211   1.781   6.210  14.563 -0.9459  0.1128  0.1286
10907TIP3    H154212   1.779   6.305  14.570  2.2051  0.2397  0.5262
10907TIP3    H254213   1.716   6.180  14.627 -2.2476  1.9325 -0.2481
10908TIP3   OH254214   3.438   6.684  13.070 -0.5327  0.2639  0.0888
10908TIP3    H154215   3.429   6.589  13.063 -1.5060  0.4867 -2.9653
10908TIP3    H254216   3.361   6.711  13.121 -1.7769 -0.4000 -1.3488
10909TIP3   OH254217   2.944   2.586  17.239 -1.1449  0.0499 -0.1914
10909TIP3    H154218   2.876   2.646  17.270 -0.0951  1.8053 -1.1071
10909TIP3    H254219   3.020   2.642  17.224 -0.1313 -1.5146 -1.1904
10910TIP3   OH254220   3.273   5.128   3.939 -0.0116  0.2113 -0.5521
10910TIP3    H154221   3.242   5.116   4.029  0.9207  1.5686 -0.0165
10910TIP3    H254222   3.360   5.088   3.939  0.1658  0.5942 -0.7277
10911TIP3   OH254223   4.823   4.129  14.912  0.5004  0.1928  0.1321
10911TIP3    H154224   4.744   4.077  14.894  1.3550 -0.1380 -3.3254
10911TIP3    H254225   4.794   4.196  14.974 -2.0466 -0.9402  0.2831
10912TIP3   OH254226   0.234   3.977  13.834 -0.4750 -0.1464 -0.3703
10912TIP3    H154227   0.245   4.019  13.749 -0.7070 -0.9636 -0.8118
10912TIP3    H254228   0.171   4.033  13.880  1.4206  1.6600  0.2171
10913TIP3   OH254229   6.322   0.207   6.262  0.0399  0.2086 -0.1233
10913TIP3    H154230   6.404   0.177   6.222  2.0475  0.7685  3.1083
10913TIP3    H254231   6.270   0.127   6.273  1.7322 -0.8221  0.8860
10914TIP3   OH254232   6.288   0.131   0.263  0.3690 -0.4040 -0.6827
10914TIP3    H154233   6.202   0.130   0.306  0.4932  0.3677 -0.4091
10914TIP3    H254234   6.305   0.039   0.244  0.6269 -0.8949  1.5582
10915TIP3   OH254235   0.764   6.125  16.017 -0.1418  0.2447 -0.0471
10915TIP3    H154236   0.786   6.116  15.925 -0.2033  0.0430 -0.0413
10915TIP3    H254237   0.701   6.197  16.020  0.4222  0.7471 -0.0734
10916TIP3   OH254238   2.800   1.357   3.074  0.0088 -0.4713  0.0466
10916TIP3    H154239   2.848   1.294   3.127  1.9908 -0.2393 -1.3491
10916TIP3    H254240   2.715   1.316   3.058  0.5214 -1.8778  0.8390
10917TIP3   OH254241   1.456   5.087  11.908  0.3628 -0.9349 -0.4734
10917TIP3    H154242   1.381   5.028  11.917  0.1517 -0.6446 -0.3053
10917TIP3    H254243   1.444   5.129  11.823 -0.7029  0.5198  0.3423
10918TIP3   OH254244   5.196   6.129  16.820 -0.2006 -0.1743  0.1442
10918TIP3    H154245   5.106   6.161  16.824  0.0082  0.3467  0.7336
10918TIP3    H254246   5.247   6.191  16.872  0.2441 -1.3614  1.1833
10919TIP3   OH254247   6.437   2.977   2.959 -0.0105 -0.3773 -0.1457
10919TIP3    H154248   6.458   2.998   3.050  0.5801  0.9218 -0.5597
10919TIP3    H254249   6.353   3.020   2.944  0.5634  0.5916 -0.6139
10920TIP3   OH254250   1.183   1.907  13.110 -0.1147  0.4310 -0.5029
10920TIP3    H154251   1.232   1.919  13.029  2.4456 -0.5406  0.7691
10920TIP3    H254252   1.223   1.969  13.171  1.3685 -2.0696  1.2639
10921TIP3   OH254253   5.522   4.635  14.625 -0.3847  0.0979 -0.5230
10921TIP3    H154254   5.506   4.715  14.575  1.8887  1.4223  0.6807
10921TIP3    H254255   5.615   4.616  14.609 -0.0791 -0.4779  1.6788
10922TIP3   OH254256   0.226   1.819   1.365  0.2280  0.2482  0.0639
10922TIP3    H154257   0.216   1.757   1.292  0.5594 -1.1700  1.1754
10922TIP3    H254258   0.154   1.881   1.354 -0.7016 -0.9076 -0.5668
10923TIP3   OH254259   0.445   3.215   0.678  0.2559 -0.3165  0.4097
10923TIP3    H154260   0.392   3.187   0.753 -0.0310 -0.4772  0.1483
10923TIP3    H254261   0.533   3.227   0.714 -0.0357  0.3380  0.9345
10924TIP3   OH254262   2.653   5.992   1.145 -0.0561 -0.2156 -0.2941
10924TIP3    H154263   2.708   6.064   1.176 -1.0321  0.3360  0.2383
10924TIP3    H254264   2.571   6.034   1.120 -0.2985 -1.0317 -0.9292
10925TIP3   OH254265   4.481   0.493  15.781 -0.0993 -0.1796 -0.1982
10925TIP3    H154266   4.398   0.535  15.762 -0.2678 -0.2620  0.3369
10925TIP3    H254267   4.460   0.401  15.793  0.2582 -0.4192 -1.3018
10926TIP3   OH254268   0.122   5.986  13.390 -0.5115  0.1814 -0.1130
10926TIP3    H154269   0.197   6.045  13.393  1.3082 -2.0073  2.6604
10926TIP3    H254270   0.152   5.909  13.343 -0.9471 -0.7175  1.0027
10927TIP3   OH254271   0.784   1.013   5.388  0.0865 -0.1337 -0.1000
10927TIP3    H154272   0.857   1.061   5.426  0.8013 -0.3973 -1.1050
10927TIP3    H254273   0.824   0.938   5.345 -0.8272 -0.5650 -0.2347
10928TIP3   OH254274   3.772   2.050  14.422 -0.2867 -0.1880 -0.1309
10928TIP3    H154275   3.695   2.004  14.457  0.0883 -0.8056 -0.0986
10928TIP3    H254276   3.826   2.069  14.498 -0.6432  0.7107 -0.0937
10929TIP3   OH254277   2.026   2.654   3.659  0.3582  0.0595  0.1940
10929TIP3    H154278   2.105   2.600   3.663  1.8975  2.2284  3.3043
10929TIP3    H254279   1.963   2.609   3.714  0.5548 -0.1052  0.2847
10930TIP3   OH254280   5.011   3.228  12.206  0.8133 -0.4932  0.3322
10930TIP3    H154281   5.056   3.159  12.254  1.6977  0.1509  0.4584
10930TIP3    H254282   4.922   3.230  12.242  1.4532 -0.0201  1.9640
10931TIP3   OH254283   2.727   2.374  16.717 -0.1304 -0.5831  0.3932
10931TIP3    H154284   2.779   2.422  16.782 -1.4025 -0.2400  1.1903
10931TIP3    H254285   2.656   2.335  16.768 -2.1689  1.1095 -0.9884
10932TIP3   OH254286   0.242   2.730   0.361 -0.1081 -0.3386 -0.4355
10932TIP3    H154287   0.303   2.685   0.303  0.3777 -1.7299  1.0765
10932TIP3    H254288   0.156   2.699   0.334  0.0241 -0.1501 -1.0876
10933TIP3   OH254289   1.479   3.824  15.541 -0.0624 -0.6225 -0.2983
10933TIP3    H154290   1.472   3.902  15.597  0.2922 -0.5130 -0.4043
10933TIP3    H254291   1.520   3.759  15.597  0.6201 -0.4025 -0.5428
10934TIP3   OH254292   5.165   2.211   0.270  0.3148  0.2517  0.5609
10934TIP3    H154293   5.223   2.160   0.214 -3.1575 -0.4944 -2.8366
10934TIP3    H254294   5.172   2.301   0.237  0.3754  0.3706  0.8971
10935TIP3   OH254295   6.070   6.007  11.234  0.0948 -0.0520  0.3848
10935TIP3    H154296   6.112   5.970  11.156  0.4276  0.0741  0.5049
10935TIP3    H254297   6.129   5.986  11.306 -1.0780 -1.7776  0.9089
10936TIP3   OH254298   0.782   4.336   1.780  0.2334 -0.5761  0.3442
10936TIP3    H154299   0.855   4.283   1.811 -0.3582 -1.2694  0.5902
10936TIP3    H254300   0.710   4.316   1.841 -1.0238 -2.0934 -1.5138
10937TIP3   OH254301   0.677   3.665  13.535 -0.6528 -0.0265 -0.0680
10937TIP3    H154302   0.665   3.731  13.604  0.7915 -1.0520  1.2289
10937TIP3    H254303   0.727   3.710  13.467 -0.0266  0.3578  0.6304
10938TIP3   OH254304   4.956   1.297   3.222 -0.2272 -0.1663  0.3292
10938TIP3    H154305   5.021   1.227   3.217  0.8853  0.6660  1.8684
10938TIP3    H254306   4.945   1.312   3.316 -0.0262  2.0642  0.0490
10939TIP3   OH254307   0.216   4.319  13.471 -0.3198 -0.1165 -0.4288
10939TIP3    H154308   0.216   4.251  13.403 -0.2662  0.7335 -1.3033
10939TIP3    H254309   0.270   4.389  13.434 -3.1572  1.8681 -1.0762
10940TIP3   OH254310   4.965   3.748   2.335 -0.9408 -0.0455  0.4520
10940TIP3    H154311   4.985   3.680   2.399 -0.0192 -0.8117 -0.5982
10940TIP3    H254312   4.945   3.700   2.255 -1.5381  0.8997  0.0135
10941TIP3   OH254313   0.560   3.276  15.742  0.2901 -0.8626 -0.5796
10941TIP3    H154314   0.651   3.281  15.712 -0.2448  0.3441 -2.1361
10941TIP3    H254315   0.520   3.208  15.688  0.1336 -1.0355 -0.2528
10942TIP3   OH254316   2.225   0.403   4.772  0.0013 -0.2860  0.3760
10942TIP3    H154317   2.262   0.331   4.823  1.0890 -1.5748 -2.0447
10942TIP3    H254318   2.301   0.455   4.745 -0.2274 -0.8554 -1.5791
10943TIP3   OH254319   3.999   5.670  17.184 -0.4727  0.2893 -0.2202
10943TIP3    H154320   3.929   5.661  17.249 -1.5015  0.1645 -1.3079
10943TIP3    H254321   4.080   5.658  17.233 -1.2856 -1.6465  0.7164
10944TIP3   OH254322   0.684   4.506  13.884 -0.1151  0.6425 -0.4388
10944TIP3    H154323   0.612   4.526  13.824 -0.9930  0.1274  0.4042
10944TIP3    H254324   0.641   4.491  13.968  1.0562  1.0108  0.2475
10945TIP3   OH254325   2.389   5.831   1.205 -0.1188 -1.0707  0.1128
10945TIP3    H154326   2.441   5.792   1.275  0.3267 -0.7523 -0.0355
10945TIP3    H254327   2.383   5.924   1.229 -1.8044 -1.3374  0.8584
10946TIP3   OH254328   5.763   2.521   1.455 -0.7085 -0.2396  0.3055
10946TIP3    H154329   5.792   2.544   1.367 -1.6817 -0.7380 -0.1535
10946TIP3    H254330   5.667   2.526   1.451 -0.7580 -0.1493  1.3634
10947TIP3   OH254331   2.246   2.980  11.264  0.7591  0.8477 -0.1116
10947TIP3    H154332   2.260   2.952  11.173 -1.1117  0.8927 -0.4544
10947TIP3    H254333   2.335   2.992  11.299  1.5282  1.5372 -2.1353
10948TIP3   OH254334   3.768   3.985  14.510  0.5021  0.0261  0.3345
10948TIP3    H154335   3.825   3.999  14.434  1.4495  0.4936  1.0980
10948TIP3    H254336   3.816   3.921  14.564  2.1928  3.0215  2.7497
10949TIP3   OH254337   0.747   0.539  10.333  0.0689  0.1735 -0.3684
10949TIP3    H154338   0.803   0.605  10.290  0.6467  0.4021  0.7023
10949TIP3    H254339   0.713   0.583  10.411 -0.7574 -0.3193 -0.4383
10950TIP3   OH254340   4.157   5.743   0.511 -0.4447  0.5235 -0.1063
10950TIP3    H154341   4.136   5.741   0.605 -1.5454  0.8761 -0.3258
10950TIP3    H254342   4.240   5.790   0.506  0.4491 -0.8715  0.8109
10951TIP3   OH254343   0.940   4.648   5.175  0.1597 -0.1516  0.0063
10951TIP3    H154344   0.934   4.646   5.080 -1.5147  1.0898  0.0264
10951TIP3    H254345   0.854   4.618   5.205  0.8743 -1.1220  1.1519
10952TIP3   OH254346   6.268   4.917  13.414 -0.5856  0.1968 -0.1544
10952TIP3    H154347   6.345   4.917  13.358  0.1332 -0.6747  0.8057
10952TIP3    H254348   6.213   4.846  13.380 -1.4598  1.4558 -1.4599
10953TIP3   OH254349   3.695   4.871   1.374  0.2920 -0.8753  0.3848
10953TIP3    H154350   3.624   4.891   1.435  0.7844  0.4788  0.5374
10953TIP3    H254351   3.690   4.776   1.362 -0.7966 -0.9531  1.3096
10954TIP3   OH254352   0.223   4.109   0.925 -0.6468 -0.2521 -0.1692
10954TIP3    H154353   0.295   4.122   0.987 -2.0978  0.5868  1.4275
10954TIP3    H254354   0.204   4.196   0.891 -1.5328 -0.2924  0.1861
10955TIP3   OH254355   1.185   5.359   2.518 -0.0949 -0.0097 -0.6589
10955TIP3    H154356   1.136   5.338   2.439 -2.2115 -0.6777  0.7561
10955TIP3    H254357   1.144   5.308   2.587  1.0593  1.2714  1.0826
10956TIP3   OH254358   6.704   5.612   2.834  0.2930  0.3167 -1.0266
10956TIP3    H154359   6.694   5.697   2.876  0.6724 -0.5051  0.8284
10956TIP3    H254360   6.769   5.566   2.887  0.0566 -1.1548 -1.9389
10957TIP3   OH254361   2.070   1.634   1.549 -0.0080  1.0508  0.1493
10957TIP3    H154362   2.165   1.626   1.540 -0.0177  0.8984  0.1770
10957TIP3    H254363   2.041   1.664   1.463 -0.1684 -1.0040 -0.5914
10958TIP3   OH254364   1.037   6.217  10.882  0.0198 -0.1391  0.4716
10958TIP3    H154365   1.065   6.180  10.799  0.6340 -0.9415  1.0222
10958TIP3    H254366   0.957   6.168  10.904  0.1245 -0.2596  0.5844
10959TIP3   OH254367   2.233   5.081  11.240  0.0025 -0.2563  0.7262
10959TIP3    H154368   2.194   5.167  11.227 -1.1434 -0.6372  1.4336
10959TIP3    H254369   2.312   5.081  11.187 -0.8422  0.6429 -0.5672
10960TIP3   OH254370   4.814   0.760  13.858 -0.3945 -0.0196 -0.2042
10960TIP3    H154371   4.879   0.774  13.926  0.5534 -0.1760 -1.0670
10960TIP3    H254372   4.806   0.845  13.814  0.1594 -0.3290 -0.9073
10961TIP3   OH254373   5.531   4.124  16.996 -0.1201  0.0254  0.4573
10961TIP3    H154374   5.559   4.064  16.927  0.3059  0.3371  0.3582
10961TIP3    H254375   5.489   4.068  17.061 -0.4287 -0.2825 -0.0072
10962TIP3   OH254376   6.130   2.766  15.260  0.3020 -0.2945 -0.3148
10962TIP3    H154377   6.161   2.851  15.232 -1.9250  1.2688  1.5046
10962TIP3    H254378   6.160   2.758  15.351  0.1673 -1.2966 -0.3410
10963TIP3   OH254379   1.999   1.063  15.435  0.1169 -0.2270 -0.2577
10963TIP3    H154380   2.014   1.022  15.520 -0.4275 -3.6288 -1.6449
10963TIP3    H254381   2.086   1.070  15.396  0.1313 -1.5225 -0.5319
10964TIP3   OH254382   3.646   4.424  12.106  0.2597 -0.0506  0.2698
10964TIP3    H154383   3.662   4.330  12.117 -0.1726 -0.3900 -1.6806
10964TIP3    H254384   3.566   4.441  12.155 -0.4483 -1.0039 -0.5405
10965TIP3   OH254385   6.088   1.746   0.265  0.5080  0.3216  0.0665
10965TIP3    H154386   6.175   1.726   0.300  0.8591  1.6834  0.0007
10965TIP3    H254387   6.078   1.686   0.191  1.3061  0.0136  0.2014
10966TIP3   OH254388   2.730   1.002   6.548  0.3446  0.0835  0.1124
10966TIP3    H154389   2.800   1.062   6.572 -0.3000  1.0779 -0.4508
10966TIP3    H254390   2.769   0.947   6.479  0.9428 -0.1861  0.6487
10967TIP3   OH254391   0.144   2.536   3.243  0.4135  0.3808 -0.3118
10967TIP3    H154392   0.072   2.486   3.282  1.0748  1.3009  2.2738
10967TIP3    H254393   0.220   2.479   3.250  0.2075 -0.2275 -2.2170
10968TIP3   OH254394   2.894   4.812  15.412  0.3281  0.0124  0.2941
10968TIP3    H154395   2.944   4.878  15.461  2.1615 -1.8103  1.0678
10968TIP3    H254396   2.837   4.772  15.477  0.5616 -0.3628  0.2764
10969TIP3   OH254397   2.294   0.667  11.967 -0.1461  0.0263  0.3041
10969TIP3    H154398   2.381   0.666  11.927  1.1497 -0.7155  2.9349
10969TIP3    H254399   2.243   0.604  11.915  0.4411  1.3382 -2.0128
10970TIP3   OH254400   4.100   4.450   2.685  0.3010 -0.5928  0.1805
10970TIP3    H154401   4.017   4.484   2.650  0.6801  0.9218  0.7253
10970TIP3    H254402   4.161   4.456   2.612 -0.1526 -2.2392 -0.4016
10971TIP3   OH254403   4.820   2.914   0.451  0.2582  0.2828  0.5077
10971TIP3    H154404   4.742   2.868   0.421  0.4094 -0.0754  0.6467
10971TIP3    H254405   4.888   2.846   0.454  0.9286  0.8621 -0.9352
10972TIP3   OH254406   6.019   0.420  14.390 -0.1657 -0.4255 -0.4573
10972TIP3    H154407   5.985   0.352  14.447 -1.1796  0.2437 -0.2355
10972TIP3    H254408   6.084   0.466  14.443 -0.4304 -0.3954 -0.1589
10973TIP3   OH254409   4.123   3.720   5.115  0.6650 -0.5274 -0.5180
10973TIP3    H154410   4.190   3.683   5.058 -0.3166 -0.4091 -1.8011
10973TIP3    H254411   4.040   3.696   5.073 -0.0633  3.1505 -1.5616
10974TIP3   OH254412   4.429   4.585  14.834  0.9804 -0.2846 -0.2236
10974TIP3    H154413   4.478   4.644  14.890 -0.7337 -0.1764  1.2602
10974TIP3    H254414   4.471   4.500  14.845  3.7477  0.6153 -2.7240
10975TIP3   OH254415   6.418   2.949  15.255 -0.0150 -0.0876  0.6015
10975TIP3    H154416   6.450   2.985  15.173 -0.3524  0.3419  0.6518
10975TIP3    H254417   6.446   2.858  15.254 -1.3355 -0.5320 -0.7121
10976TIP3   OH254418   6.769   3.674   1.575  0.1932  0.3496  0.3437
10976TIP3    H154419   6.697   3.616   1.548  1.2375  0.0311 -2.0326
10976TIP3    H254420   6.731   3.762   1.573 -0.5060  0.0581  0.5804
10977TIP3   OH254421   5.014   3.607   5.750  0.1037 -0.1020 -0.2776
10977TIP3    H154422   4.953   3.660   5.699 -1.6085  0.2815  2.0515
10977TIP3    H254423   4.974   3.520   5.752 -0.2103  0.0587  0.9482
10978TIP3   OH254424   5.858   2.393  16.220 -0.2172 -0.0525  0.4272
10978TIP3    H154425   5.828   2.465  16.276 -0.0264  0.6152 -0.3117
10978TIP3    H254426   5.778   2.347  16.196 -0.2349 -0.8331  1.8756
10979TIP3   OH254427   1.484   3.229   6.171  0.1379  0.3416 -0.5294
10979TIP3    H154428   1.560   3.185   6.208  1.2566  1.5068 -1.3149
10979TIP3    H254429   1.486   3.317   6.209 -0.3927  0.6159 -1.0970
10980TIP3   OH254430   2.172   4.541   4.736 -0.1356  0.4376  0.5689
10980TIP3    H154431   2.167   4.447   4.754 -1.3674  0.3859  0.0445
10980TIP3    H254432   2.101   4.557   4.674  0.6531  1.5552 -0.0689
10981TIP3   OH254433   6.300   4.268  11.776 -0.4680 -0.4215 -0.1745
10981TIP3    H154434   6.334   4.296  11.861  0.2493 -0.7662 -0.3486
10981TIP3    H254435   6.229   4.330  11.757  0.2859  0.5106  0.0253
10982TIP3   OH254436   5.662   3.124  16.450  0.4990 -0.4418 -0.0122
10982TIP3    H154437   5.715   3.188  16.497 -1.8034  0.6201  1.2910
10982TIP3    H254438   5.625   3.068  16.518 -0.3745 -0.8807 -0.8161
10983TIP3   OH254439   0.161   5.499  13.088  0.2303  0.1885  0.3750
10983TIP3    H154440   0.155   5.559  13.013  4.0212 -0.3227 -0.5095
10983TIP3    H254441   0.157   5.556  13.165  1.6934  1.4166 -0.4011
10984TIP3   OH254442   5.892   6.598  11.963  0.3793 -0.5804 -0.0299
10984TIP3    H154443   5.919   6.592  11.871  2.0009 -0.3000  0.4122
10984TIP3    H254444   5.940   6.672  11.998 -1.6945  0.5427  0.5902
10985TIP3   OH254445   1.222   0.253  14.037  0.2143  0.3876 -0.2983
10985TIP3    H154446   1.139   0.290  14.006 -1.0581 -1.9788  0.0325
10985TIP3    H254447   1.279   0.329  14.048 -1.9334  2.1358 -0.4160
10986TIP3   OH254448   2.752   6.599  15.686 -0.3155 -0.0521 -0.0161
10986TIP3    H154449   2.667   6.624  15.650  1.6307  4.5410 -2.2541
10986TIP3    H254450   2.749   6.628  15.778 -1.1110  0.3287 -0.1545
10987TIP3   OH254451   4.758   5.827   1.463 -0.0040  0.2804  0.8702
10987TIP3    H154452   4.820   5.781   1.520 -0.2591 -0.6604  0.4109
10987TIP3    H254453   4.725   5.900   1.516 -1.3798 -1.4318  2.4986
10988TIP3   OH254454   5.743   5.434   0.346 -0.1536 -0.1721 -0.3837
10988TIP3    H154455   5.719   5.416   0.255  2.9841  0.6784 -1.4927
10988TIP3    H254456   5.760   5.528   0.348  1.1015 -0.4055  0.7408
10989TIP3   OH254457   6.246   5.309  12.617  0.1111  0.3449 -0.2621
10989TIP3    H154458   6.322   5.250  12.620  0.7727  1.2171  1.7385
10989TIP3    H254459   6.199   5.291  12.699 -1.6073  0.1686 -1.2433
10990TIP3   OH254460   5.303   1.676   4.637  0.3355  0.4172  0.2754
10990TIP3    H154461   5.363   1.750   4.633  0.3430  0.4299  0.6219
10990TIP3    H254462   5.354   1.601   4.607  0.4731  0.4609  0.4019
10991TIP3   OH254463   4.316   0.904   3.343 -0.1205 -0.3508 -0.1776
10991TIP3    H154464   4.265   0.925   3.265 -0.3941  0.0630  0.1113
10991TIP3    H254465   4.268   0.832   3.384 -0.2984 -0.1691 -0.0706
10992TIP3   OH254466   6.466   3.442   2.981  0.0820  0.1767 -0.2305
10992TIP3    H154467   6.456   3.509   2.913  0.1932  0.8276  0.3870
10992TIP3    H254468   6.377   3.427   3.014  0.0069 -0.2429 -0.6008
10993TIP3   OH254469   0.429   4.653   3.866 -1.0129 -0.3563  0.1789
10993TIP3    H154470   0.509   4.695   3.835  0.3320 -0.7670  2.8183
10993TIP3    H254471   0.371   4.726   3.889 -0.7019 -0.0307 -0.0595
10994TIP3   OH254472   1.833   5.169  14.398  0.8882  0.2754 -0.5151
10994TIP3    H154473   1.757   5.182  14.454  1.2629 -1.3275  0.4321
10994TIP3    H254474   1.800   5.184  14.309 -0.3746  0.2550 -0.0745
10995TIP3   OH254475   2.249   3.532  11.521 -0.3222 -0.2723 -0.2117
10995TIP3    H154476   2.228   3.625  11.522 -0.5746 -0.3313  0.2126
10995TIP3    H254477   2.170   3.489  11.487 -0.0722 -0.3020 -0.7671
10996TIP3   OH254478   0.936   3.611  14.768 -0.7285  0.0049 -0.0398
10996TIP3    H154479   0.870   3.672  14.735 -1.7568 -0.8579  0.3763
10996TIP3    H254480   0.999   3.667  14.813 -0.8332  0.9082 -0.9719
10997TIP3   OH254481   0.262   0.443  15.239  0.1088 -0.4285  0.5342
10997TIP3    H154482   0.279   0.367  15.183  1.4792  1.5744 -1.9939
10997TIP3    H254483   0.167   0.449  15.242 -0.0143 -1.7742  0.1161
10998TIP3   OH254484   0.998   2.881   0.602  0.3226  0.0206 -0.1246
10998TIP3    H154485   1.000   2.845   0.691 -1.2611 -0.1453 -0.1233
10998TIP3    H254486   1.001   2.976   0.613  1.0522 -0.0169  0.0460
10999TIP3   OH254487   3.692   0.464  13.219  0.0397  0.6847 -0.7622
10999TIP3    H154488   3.663   0.443  13.130 -0.4275  0.3822 -0.5454
10999TIP3    H254489   3.785   0.445  13.219 -0.5759 -3.4316 -0.0668
11000TIP3   OH254490   4.863   1.533  12.891  0.2897  0.4173 -0.9876
11000TIP3    H154491   4.950   1.530  12.850  0.3941  0.9868 -0.8145
11000TIP3    H254492   4.824   1.448  12.870  0.7180  0.3260 -1.4412
11001TIP3   OH254493   1.942   4.398  17.132 -0.3042 -0.3264 -0.0051
11001TIP3    H154494   2.013   4.358  17.182 -0.5136 -0.8956 -0.1563
11001TIP3    H254495   1.986   4.440  17.058 -0.0992 -0.4189  0.0609
11002TIP3   OH254496   5.176   6.028  14.697  0.7432 -0.1151  0.6014
11002TIP3    H154497   5.221   5.944  14.707 -1.5036 -1.5528 -0.4630
11002TIP3    H254498   5.104   6.024  14.759 -0.0865  0.5062 -0.2961
11003TIP3   OH254499   3.059   4.423   0.263  0.6795  0.0042 -0.0429
11003TIP3    H154500   3.069   4.356   0.331 -0.2613 -1.5079 -1.3031
11003TIP3    H254501   3.128   4.402   0.200  1.2871  1.1375  0.2300
11004TIP3   OH254502   1.609   4.913   2.659  0.2943  0.0968 -0.5969
11004TIP3    H154503   1.580   4.837   2.608  0.2986 -0.4206  0.1569
11004TIP3    H254504   1.625   4.981   2.593  0.3027 -0.5561 -1.2862
11005TIP3   OH254505   5.488   2.932   3.844  0.2474 -0.1256  0.0915
11005TIP3    H154506   5.494   2.992   3.770 -0.2021 -1.0973 -0.7569
11005TIP3    H254507   5.490   2.989   3.921  1.3042  0.8696 -0.6353
11006TIP3   OH254508   1.434   4.031  16.039 -0.0911 -0.3866 -0.1290
11006TIP3    H154509   1.423   4.096  16.108  1.6545  1.6149 -1.6043
11006TIP3    H254510   1.352   3.980  16.041 -1.1349  1.2146  1.7235
11007TIP3   OH254511   4.126   3.565   6.103  0.8183  0.1452  0.1221
11007TIP3    H154512   4.133   3.534   6.193 -1.8279  1.2371  0.8225
11007TIP3    H254513   4.164   3.653   6.105  1.0901  0.0274  0.0916
11008TIP3   OH254514   6.761   5.520   5.388  0.1799  0.1051  0.2230
11008TIP3    H154515   6.768   5.480   5.475 -1.5762 -1.1369 -0.1599
11008TIP3    H254516   6.687   5.581   5.395 -0.3277 -0.4100 -0.5361
11009TIP3   OH254517   1.709   3.069  15.340  0.4533  0.3066 -0.3436
11009TIP3    H154518   1.759   3.133  15.289 -1.0587  0.9437 -1.0851
11009TIP3    H254519   1.658   3.021  15.276 -1.0808  0.7494  0.4982
11010TIP3   OH254520   5.020   1.560  15.482 -0.5686 -0.1303  0.4029
11010TIP3    H154521   5.070   1.615  15.422 -0.1251 -1.8586 -0.9211
11010TIP3    H254522   5.071   1.561  15.563  0.0027  0.5192  0.0478
11011TIP3   OH254523   1.697   6.572   2.019 -0.1025  0.1457 -0.0454
11011TIP3    H154524   1.651   6.587   2.102 -0.1515  0.0676 -0.0579
11011TIP3    H254525   1.628   6.569   1.953 -0.0947 -0.1317 -0.0430
11012TIP3   OH254526   3.413   2.270   2.989  0.2201  0.3191 -0.5251
11012TIP3    H154527   3.404   2.267   3.084  1.1686 -0.2727 -0.4386
11012TIP3    H254528   3.365   2.349   2.962 -0.5679  0.1577  0.3715
11013TIP3   OH254529   3.253   1.218   6.003 -0.3294 -0.1649 -0.4003
11013TIP3    H154530   3.187   1.225   6.073  0.2408  0.1514  0.1177
11013TIP3    H254531   3.280   1.126   6.005 -1.0580 -0.3940 -0.8997
11014TIP3   OH254532   1.980   1.762   2.879 -0.5140 -0.4779 -0.3519
11014TIP3    H154533   2.016   1.737   2.794  0.1927  3.5711 -1.4892
11014TIP3    H254534   2.042   1.827   2.913 -3.1934  1.6274  0.8815
11015TIP3   OH254535   4.894   1.327  15.412  0.3153 -0.2762  0.1290
11015TIP3    H154536   4.915   1.416  15.440 -0.5173  0.6360 -1.9448
11015TIP3    H254537   4.948   1.271  15.468  1.2253  1.5387  1.1654
11016TIP3   OH254538   2.521   4.180  13.480  0.6556 -0.6523  0.1429
11016TIP3    H154539   2.576   4.252  13.512  0.5068 -1.5010  2.5030
11016TIP3    H254540   2.488   4.139  13.559 -1.2095 -1.8545 -1.1917
11017TIP3   OH254541   4.652   2.569  11.284  0.7078 -0.1302 -0.2073
11017TIP3    H154542   4.666   2.522  11.201 -0.6591 -1.2258  0.1430
11017TIP3    H254543   4.568   2.535  11.316 -0.3376  2.5045  0.1120
11018TIP3   OH254544   5.186   0.208   6.423  0.1621 -0.0580  0.3219
11018TIP3    H154545   5.206   0.269   6.495  0.3983 -0.8539  0.9473
11018TIP3    H254546   5.095   0.228   6.400  0.3194  0.7021  0.3466
11019TIP3   OH254547   4.064   5.042   2.746  0.8152  0.2105  0.1755
11019TIP3    H154548   4.063   5.037   2.650  0.5157  0.4935  0.1618
11019TIP3    H254549   4.141   5.096   2.766  2.9650 -2.6931  0.2542
11020TIP3   OH254550   1.144   6.427  13.000 -0.3996 -0.8213  0.0303
11020TIP3    H154551   1.223   6.473  12.970 -0.0356 -0.4396  1.4976
11020TIP3    H254552   1.157   6.337  12.972 -0.5699 -0.3094 -1.8477
11021TIP3   OH254553   4.794   0.761  12.286 -0.2625 -0.2053  0.0724
11021TIP3    H154554   4.737   0.746  12.361 -0.4572 -0.5418 -0.1387
11021TIP3    H254555   4.826   0.674  12.263 -0.8218 -0.2119 -0.7186
11022TIP3   OH254556   0.302   0.087  14.386  0.1386  0.4628 -0.0299
11022TIP3    H154557   0.363   0.160  14.374  0.7635 -0.1199 -0.4319
11022TIP3    H254558   0.229   0.106  14.327 -0.6998  1.7998  1.3415
11023TIP3   OH254559   4.039   2.872   3.143 -0.3090 -0.1050 -0.5826
11023TIP3    H154560   3.972   2.804   3.135 -1.4616  1.0260 -0.8534
11023TIP3    H254561   4.003   2.948   3.096  0.7563  0.8337  0.0546
11024TIP3   OH254562   6.742   6.319  14.663 -0.6213  0.0799  0.0772
11024TIP3    H154563   6.834   6.339  14.681 -0.0148 -0.5362 -1.9799
11024TIP3    H254564   6.711   6.273  14.741  1.0149 -0.2545  0.5621
11025TIP3   OH254565   1.942   6.155  14.112  0.0075  0.1517 -0.1814
11025TIP3    H154566   1.942   6.089  14.182 -0.1598 -0.6388 -0.9171
11025TIP3    H254567   1.890   6.227  14.148  0.5856  0.1046  0.8183
11026TIP3   OH254568   3.885   5.613  15.721  0.1525 -0.0953  0.4444
11026TIP3    H154569   3.893   5.627  15.626  2.1279  1.2623  0.7534
11026TIP3    H254570   3.801   5.567  15.731 -1.4377  2.0514 -1.7322
11027TIP3   OH254571   5.597   5.117   2.063 -0.2234 -0.0098 -0.5438
11027TIP3    H154572   5.583   5.175   1.988  1.0165 -1.1978 -1.7329
11027TIP3    H254573   5.509   5.085   2.084 -0.5299 -0.0928 -1.8553
11028TIP3   OH254574   5.865   0.906   4.023 -0.1685 -0.1139  0.4270
11028TIP3    H154575   5.804   0.836   4.002  2.0685 -1.7939 -0.9096
11028TIP3    H254576   5.903   0.931   3.939  0.2936  1.5943  1.0933
11029TIP3   OH254577   5.303   0.048  16.777  0.1068 -0.4287  0.2233
11029TIP3    H154578   5.312   0.016  16.687 -0.8393  1.4258 -0.6039
11029TIP3    H254579   5.210   0.068  16.786  0.1461 -0.8365  1.7268
11030TIP3   OH254580   3.810   1.105   0.431  0.2499  0.1946  0.5303
11030TIP3    H154581   3.873   1.047   0.389  1.6901  1.0433  1.4384
11030TIP3    H254582   3.863   1.162   0.486 -1.2543  1.4351  0.7601
11031TIP3   OH254583   4.198   5.087  11.944  0.0734 -0.6170 -0.1011
11031TIP3    H154584   4.184   5.174  11.984  1.6807 -0.9730  1.3268
11031TIP3    H254585   4.219   5.106  11.852  1.6835  0.6242  0.4814
11032TIP3   OH254586   4.030   1.599   4.958  0.7789  0.0423 -0.2172
11032TIP3    H154587   3.957   1.547   4.925  0.8907 -0.7088  0.6737
11032TIP3    H254588   4.099   1.587   4.893 -0.7809  3.2022 -2.7155
11033TIP3   OH254589   5.219   5.497  16.071 -0.2332  0.4826 -0.0842
11033TIP3    H154590   5.288   5.559  16.094  1.5900 -0.9979 -1.2427
11033TIP3    H254591   5.142   5.551  16.058  0.4964  2.1372  1.9601
11034TIP3   OH254592   3.398   2.073  12.780  0.7482 -0.2829 -0.0458
11034TIP3    H154593   3.442   2.132  12.841  0.5419  0.0292 -0.1949
11034TIP3    H254594   3.380   1.994  12.831  3.9525 -1.5632 -0.6795
11035TIP3   OH254595   2.705   6.466  12.710  0.4680  0.6740 -0.2347
11035TIP3    H154596   2.669   6.419  12.635  0.8948  0.7606 -0.4951
11035TIP3    H254597   2.676   6.556  12.700  1.1411  0.8461 -0.7006
11036TIP3   OH254598   6.006   5.432  15.692  0.0600  0.2204 -0.1577
11036TIP3    H154599   6.086   5.485  15.685 -0.2287  0.7033  0.0960
11036TIP3    H254600   5.960   5.449  15.610  0.1874 -0.0083 -0.2771
11037TIP3   OH254601   6.680   0.347  15.204 -0.0861 -0.8343 -0.2068
11037TIP3    H154602   6.700   0.344  15.110 -1.5750 -0.1115 -0.5798
11037TIP3    H254603   6.682   0.441  15.225 -1.5619 -0.8344  0.0405
11038TIP3   OH254604   1.497   1.741  16.941  0.3298 -0.1379 -0.1168
11038TIP3    H154605   1.452   1.680  17.000 -1.2683  0.0057 -1.1162
11038TIP3    H254606   1.426   1.786  16.895  1.5156  0.2897 -1.6000
11039TIP3   OH254607   5.831   1.379   0.191  0.0530 -0.5442 -0.0302
11039TIP3    H154608   5.853   1.467   0.221 -1.6295 -0.1483  0.1170
11039TIP3    H254609   5.834   1.384   0.096 -0.1180 -0.3067 -0.0229
11040TIP3   OH254610   4.278   6.811   0.878 -0.5530 -0.7847 -0.3386
11040TIP3    H154611   4.357   6.765   0.849 -0.0635 -0.9491  1.1670
11040TIP3    H254612   4.248   6.761   0.954 -2.2275 -0.8262 -0.9832
11041TIP3   OH254613   0.071   1.460  16.956  0.5301 -0.0170 -0.6690
11041TIP3    H154614   0.151   1.514  16.954  1.1042 -0.7214  1.0374
11041TIP3    H254615   0.048   1.456  17.049 -1.2543 -0.2245 -1.0805
11042TIP3   OH254616   0.923   0.409  11.402  0.2319 -0.1962  0.1746
11042TIP3    H154617   1.010   0.373  11.417  0.0089 -0.2444  1.4330
11042TIP3    H254618   0.872   0.336  11.368  0.4070 -0.4391  0.4365
11043TIP3   OH254619   5.559   3.575   0.619 -0.5495 -0.3494  0.5470
11043TIP3    H154620   5.635   3.628   0.645  1.2505 -1.9774 -1.0080
11043TIP3    H254621   5.496   3.638   0.585  0.7442  0.9398  0.4179
11044TIP3   OH254622   3.762   4.321   4.744  0.0705  0.0552  0.9225
11044TIP3    H154623   3.725   4.409   4.744 -1.3465 -0.4407  3.4019
11044TIP3    H254624   3.768   4.298   4.836  0.9539 -2.2458  0.3566
11045TIP3   OH254625   4.184   0.341   1.469  0.2211 -0.2564 -0.3781
11045TIP3    H154626   4.247   0.413   1.469 -0.9174  0.7761 -1.0549
11045TIP3    H254627   4.223   0.275   1.411 -0.0926  1.1146 -2.2403
11046TIP3   OH254628   3.613   1.146   4.112 -0.9776  0.2189 -0.4625
11046TIP3    H154629   3.621   1.227   4.061 -4.2157 -0.4043 -2.1727
11046TIP3    H254630   3.591   1.176   4.200 -0.4115  1.2101 -0.6394
11047TIP3   OH254631   4.305   3.496   2.424 -0.2901  0.1627  0.4054
11047TIP3    H154632   4.247   3.560   2.467  0.4834  1.2644 -0.1299
11047TIP3    H254633   4.286   3.507   2.331  0.5022  0.2689  0.2543
11048TIP3   OH254634   1.739   2.581  16.192 -0.1280 -0.1299  0.3067
11048TIP3    H154635   1.715   2.489  16.198 -1.2175  0.1578  0.6233
11048TIP3    H254636   1.782   2.589  16.107  1.4504 -1.2307  0.9517
11049TIP3   OH254637   6.573   3.445   2.597 -0.1953  0.3309  0.1966
11049TIP3    H154638   6.619   3.522   2.563  2.7545 -1.7094 -0.8992
11049TIP3    H254639   6.536   3.474   2.680  1.2238  2.7838  0.0823
11050TIP3   OH254640   4.590   3.886   3.652  0.5767  0.1772  0.2273
11050TIP3    H154641   4.615   3.916   3.564  1.8294 -0.5801  0.3071
11050TIP3    H254642   4.557   3.964   3.695 -0.7386  0.4256 -1.1386
11051TIP3   OH254643   1.282   4.668   2.125  0.0013 -0.0523  0.0981
11051TIP3    H154644   1.219   4.615   2.175 -0.9165  0.1626 -0.7914
11051TIP3    H254645   1.353   4.686   2.187 -0.6945 -0.5167  1.0587
11052TIP3   OH254646   4.378   4.990  15.665  0.4988 -0.3189 -0.3921
11052TIP3    H154647   4.375   5.057  15.596 -0.4075  0.1503  0.0850
11052TIP3    H254648   4.470   4.968  15.673  0.5929 -0.5666 -1.9322
11053TIP3   OH254649   2.619   4.553   0.209 -0.4772 -0.0982 -0.1259
11053TIP3    H154650   2.653   4.470   0.174  0.9673 -0.8908  2.8834
11053TIP3    H254651   2.525   4.538   0.217 -0.4711 -0.8143 -1.1585
11054TIP3   OH254652   6.407   5.770  16.501  0.7078  0.0023 -0.2487
11054TIP3    H154653   6.476   5.714  16.466  2.0642 -0.2928  2.6622
11054TIP3    H254654   6.438   5.860  16.486  0.9131 -0.0976 -0.4221
11055TIP3   OH254655   5.465   3.739   5.187 -0.0333 -0.3874 -0.8022
11055TIP3    H154656   5.413   3.767   5.111  0.0276 -0.7190 -0.9705
11055TIP3    H254657   5.555   3.760   5.163 -0.0815  0.1257 -0.5386
11056TIP3   OH254658   1.249   5.654  12.880 -0.2614  0.0500  0.0200
11056TIP3    H154659   1.217   5.566  12.898  1.0523 -0.6430 -0.7996
11056TIP3    H254660   1.247   5.661  12.784  1.0441  0.3202 -0.0112
11057TIP3   OH254661   2.079   1.415  14.255  0.3202  1.2660 -0.5118
11057TIP3    H154662   2.171   1.433  14.273  0.1596  2.3236 -0.7087
11057TIP3    H254663   2.065   1.326  14.288  1.3627  1.1627 -0.3228
11058TIP3   OH254664   4.878   3.395   1.676 -0.5996 -0.4974 -0.3724
11058TIP3    H154665   4.919   3.312   1.652  1.2250  0.5162 -0.9754
11058TIP3    H254666   4.825   3.419   1.600 -1.1854 -1.1406 -0.1679
11059TIP3   OH254667   3.175   3.926   3.150  0.3087  0.1955 -0.2699
11059TIP3    H154668   3.164   4.020   3.135 -1.3289 -0.1830 -1.7648
11059TIP3    H254669   3.143   3.885   3.070 -0.1864 -1.6800  0.8335
11060TIP3   OH254670   3.917   2.738  15.857 -0.1366 -0.9596  0.2158
11060TIP3    H154671   4.011   2.754  15.854 -0.4715  1.5094  0.4365
11060TIP3    H254672   3.898   2.690  15.777  0.9412  1.1584 -1.4095
11061TIP3   OH254673   1.914   0.888  13.226 -0.5195 -0.1411 -0.7386
11061TIP3    H154674   1.886   0.953  13.162  0.4087  0.4083 -0.6055
11061TIP3    H254675   1.935   0.811  13.173  0.1558  0.2807 -1.1019
11062TIP3   OH254676   2.404   0.906   4.191 -0.5644  0.5229  0.6350
11062TIP3    H154677   2.398   0.812   4.174 -0.7073  0.7552 -0.7029
11062TIP3    H254678   2.418   0.945   4.105  0.8695  1.6216  1.3089
11063TIP3   OH254679   3.767   4.046   3.017  0.0192  0.6478  0.0751
11063TIP3    H154680   3.827   3.973   3.032 -0.6503  0.2207  0.7085
11063TIP3    H254681   3.819   4.109   2.965  0.5340 -0.3557 -0.6699
11064TIP3   OH254682   5.378   2.317   2.308  0.1812  0.3808  0.4609
11064TIP3    H154683   5.369   2.411   2.323  2.8909  1.1715 -1.9432
11064TIP3    H254684   5.462   2.294   2.350  0.1201 -0.7124  0.0296
11065TIP3   OH254685   2.453   1.695   0.994  0.4113  0.1257 -0.3789
11065TIP3    H154686   2.446   1.599   0.992  0.1950  0.1574 -1.7110
11065TIP3    H254687   2.375   1.726   0.948  0.9777  0.9116 -0.8251
11066TIP3   OH254688   4.567   0.499  15.035 -0.2458  0.1680 -0.0269
11066TIP3    H154689   4.524   0.430  15.086  0.2846 -1.6612 -1.9356
11066TIP3    H254690   4.651   0.512  15.080 -0.2607 -0.5970  0.2423
11067TIP3   OH254691   2.335   1.760   2.355 -0.0412 -0.0957 -0.4952
11067TIP3    H154692   2.275   1.687   2.338 -0.4480  0.0864  0.1222
11067TIP3    H254693   2.413   1.719   2.392  0.4211 -0.3833 -1.7208
11068TIP3   OH254694   5.602   3.945  16.794 -0.5513 -0.2955 -0.2928
11068TIP3    H154695   5.651   3.902  16.725  1.8943  0.1752  1.0509
11068TIP3    H254696   5.611   3.887  16.870 -1.2021  0.3109  0.2647
11069TIP3   OH254697   5.109   3.567  12.124  0.0587  0.3941 -0.4555
11069TIP3    H154698   5.165   3.540  12.051  0.1890  0.7395 -0.4873
11069TIP3    H254699   5.070   3.486  12.156  0.8598  0.1044 -0.1963
11070TIP3   OH254700   5.101   5.490  14.484 -0.7504 -0.1093  0.5762
11070TIP3    H154701   5.044   5.450  14.419  0.3728  0.3893 -0.7605
11070TIP3    H254702   5.170   5.425  14.499 -1.1659 -0.3511  1.5286
11071TIP3   OH254703   0.945   6.171  16.235 -0.0019 -0.1288 -0.0041
11071TIP3    H154704   0.883   6.204  16.300 -0.3442  1.5955 -1.1620
11071TIP3    H254705   0.898   6.100  16.191 -0.6182  0.2240  0.0772
11072TIP3   OH254706   2.489   1.390   5.107  0.5341  0.2508 -0.3681
11072TIP3    H154707   2.580   1.394   5.135  0.7844  0.7706 -1.1957
11072TIP3    H254708   2.441   1.442   5.171  0.8735  0.2517 -0.1145
11073TIP3   OH254709   5.061   4.206   2.586 -0.5816 -0.2108  0.1134
11073TIP3    H154710   5.015   4.290   2.588 -0.7707 -0.3180  0.3938
11073TIP3    H254711   5.011   4.153   2.524 -1.6245 -0.7636  1.3793
11074TIP3   OH254712   6.165   5.010   5.665 -0.0911  0.3252  0.1570
11074TIP3    H154713   6.120   4.958   5.731 -0.0359  0.2318  0.1219
11074TIP3    H254714   6.197   4.946   5.601  0.3364  0.3642  0.3282
11075TIP3   OH254715   3.898   2.826   4.601 -0.2961 -0.4548 -0.1687
11075TIP3    H154716   3.882   2.920   4.596  1.7259  0.1319  2.3478
11075TIP3    H254717   3.958   2.807   4.529  0.2186  0.4160  0.0226
11076TIP3   OH254718   5.476   5.269  13.852  0.1712 -0.4690 -0.2733
11076TIP3    H154719   5.533   5.342  13.827 -0.3363 -1.0367 -3.5888
11076TIP3    H254720   5.391   5.290  13.813 -0.0179 -2.6934 -1.2408
11077TIP3   OH254721   3.091   5.061  14.547 -0.5245 -0.0968  0.5396
11077TIP3    H154722   3.167   5.114  14.522 -0.5018 -0.5717 -0.4209
11077TIP3    H254723   3.097   4.983  14.492 -1.1391 -0.6231  1.2044
11078TIP3   OH254724   0.645   1.845  14.587  0.1929 -0.3789 -0.1164
11078TIP3    H154725   0.589   1.771  14.565 -1.4920  0.2600  1.6663
11078TIP3    H254726   0.729   1.806  14.613  0.4963 -1.3908 -2.3877
11079TIP3   OH254727   3.997   0.784   1.548  0.2725  0.8803  0.5732
11079TIP3    H154728   4.030   0.868   1.580  0.9045  0.3737  1.2822
11079TIP3    H254729   4.017   0.721   1.618  0.5283 -0.0151 -0.2791
11080TIP3   OH254730   3.811   0.690   4.485  0.0436  0.2843  0.0464
11080TIP3    H154731   3.802   0.597   4.503  0.7007 -0.1639 -1.7092
11080TIP3    H254732   3.779   0.733   4.564 -1.7748 -1.3882  0.2884
11081TIP3   OH254733   3.422   4.090  13.339 -0.7779 -0.1329  0.1059
11081TIP3    H154734   3.391   4.155  13.403 -1.5771  0.3166 -0.7223
11081TIP3    H254735   3.350   4.027  13.332 -0.6402 -0.2475 -0.2656
11082TIP3   OH254736   6.721   1.318  13.097  0.4538  0.5280  0.1775
11082TIP3    H154737   6.796   1.261  13.111 -0.1871 -0.5455 -0.6016
11082TIP3    H254738   6.751   1.382  13.032  0.5204 -0.2594 -0.5795
11083TIP3   OH254739   5.844   3.772   4.503  0.5517 -0.0860  0.6394
11083TIP3    H154740   5.856   3.796   4.411  0.4111  0.8526  0.8611
11083TIP3    H254741   5.750   3.781   4.519  0.1302 -2.7602  0.2082
11084TIP3   OH254742   1.460   3.002   1.946 -0.1362  0.5765 -0.1157
11084TIP3    H154743   1.448   2.977   2.037 -0.3912  0.2706 -0.2316
11084TIP3    H254744   1.488   3.093   1.949  0.7675  0.2923  0.3114
11085TIP3   OH254745   2.958   3.131   5.018 -0.5416  0.0478 -0.0155
11085TIP3    H154746   2.884   3.130   4.957 -0.3882  0.8868 -0.2261
11085TIP3    H254747   3.028   3.086   4.971  0.0363  1.9560 -1.0837
11086TIP3   OH254748   2.933   2.176   2.124  0.6616 -0.0590  0.4857
11086TIP3    H154749   2.871   2.110   2.154 -1.0011  0.6125 -1.2962
11086TIP3    H254750   2.989   2.193   2.200 -0.9523 -1.1152  1.9688
11087TIP3   OH254751   3.760   1.984   2.963 -0.3420 -0.8486 -0.6806
11087TIP3    H154752   3.765   1.890   2.981  1.7474 -0.5141  0.8089
11087TIP3    H254753   3.830   2.000   2.900  0.8702  0.0315  0.8307
11088TIP3   OH254754   4.895   6.527  11.420 -0.0654  0.5642 -0.5893
11088TIP3    H154755   4.957   6.504  11.350 -1.6322 -1.7660 -1.3181
11088TIP3    H254756   4.810   6.528  11.377 -0.6943  2.9765  0.5502
11089TIP3   OH254757   1.573   0.261   0.848  0.3147  0.3118 -0.1196
11089TIP3    H154758   1.658   0.249   0.805 -0.4695  2.3719 -2.4703
11089TIP3    H254759   1.521   0.310   0.784 -2.6621 -0.8583  1.2496
11090TIP3   OH254760   0.683   3.813   2.070 -0.1971  0.3935  0.1747
11090TIP3    H154761   0.591   3.823   2.093  0.0679  1.2309  0.9060
11090TIP3    H254762   0.692   3.862   1.988 -0.7114 -0.9429 -0.7098
11091TIP3   OH254763   4.978   6.164  15.286 -0.0294 -0.5267  0.2010
11091TIP3    H154764   4.903   6.218  15.259  0.8730  0.4593 -0.4090
11091TIP3    H254765   5.016   6.134  15.203  0.5550 -0.5927  0.4950
11092TIP3   OH254766   3.224   6.001   2.408 -0.2654  0.0752 -0.2981
11092TIP3    H154767   3.213   5.906   2.398 -0.0507  0.0378 -0.1788
11092TIP3    H254768   3.215   6.016   2.502 -1.9338  0.3843 -0.4705
11093TIP3   OH254769   6.208   0.997  14.800  0.2321 -0.5017  0.6760
11093TIP3    H154770   6.123   1.023  14.834 -1.0380 -0.0534 -2.5266
11093TIP3    H254771   6.196   0.907  14.770  0.8910 -0.4458  0.2158
11094TIP3   OH254772   2.023   4.193  16.864  0.1153 -0.6252 -0.2045
11094TIP3    H154773   2.003   4.141  16.942  1.5066 -1.1298 -0.1613
11094TIP3    H254774   1.990   4.281  16.885 -0.5398 -1.0229  0.4855
11095TIP3   OH254775   0.216   2.497   2.964 -0.5097 -0.0159  0.2709
11095TIP3    H154776   0.273   2.548   3.021 -0.8215 -0.5487  1.0695
11095TIP3    H254777   0.216   2.408   3.001 -0.3930 -0.4784 -0.7864
11096TIP3   OH254778   3.773   3.632   4.705 -0.2326  0.4474 -1.3569
11096TIP3    H154779   3.750   3.583   4.626  0.5458 -1.3576 -0.5251
11096TIP3    H254780   3.713   3.707   4.705 -2.4277 -1.1826 -2.0267
11097TIP3   OH254781   3.882   0.535   1.692  0.1331  0.3975  0.1693
11097TIP3    H154782   3.915   0.494   1.612  1.9727  2.0660 -0.0166
11097TIP3    H254783   3.900   0.471   1.761 -1.2719 -0.9716 -0.6641
11098TIP3   OH254784   3.513   4.470  14.414 -0.2585 -0.2500  0.2356
11098TIP3    H154785   3.512   4.435  14.325 -1.0386  0.6496 -0.1256
11098TIP3    H254786   3.489   4.396  14.469  1.6503 -1.1992 -0.1294
11099TIP3   OH254787   1.643   6.245   4.014  0.7296  0.1714 -0.4247
11099TIP3    H154788   1.702   6.286   3.952  2.2138 -1.2101  0.0017
11099TIP3    H254789   1.698   6.220   4.088 -0.9574  1.7011  1.4810
11100TIP3   OH254790   4.081   1.667  15.252  0.4834 -0.0334  0.2543
11100TIP3    H154791   4.086   1.602  15.322 -2.1649 -1.7202 -0.9853
11100TIP3    H254792   4.141   1.634  15.184 -1.4232 -1.7701 -0.7034
11101TIP3   OH254793   4.858   6.814  12.461 -0.2184 -0.0714  0.1507
11101TIP3    H154794   4.806   6.800  12.540  1.0623 -1.3742  0.8230
11101TIP3    H254795   4.795   6.807  12.389 -1.2640  0.2610  1.0061
11102TIP3   OH254796   1.303   0.024  13.423 -0.5186 -0.5582 -0.2757
11102TIP3    H154797   1.279   0.072  13.502  0.6023  0.7788 -0.7045
11102TIP3    H254798   1.391  -0.009  13.440 -1.4458 -3.0597  0.2230
11103TIP3   OH254799   0.295   6.810   5.692  0.2139 -0.2536  0.0960
11103TIP3    H154800   0.287   6.714   5.698  3.1583 -0.5879 -0.0367
11103TIP3    H254801   0.342   6.835   5.772 -0.1188  1.0480 -0.0961
11104TIP3   OH254802   5.345   5.130  15.130 -0.1231  0.6063 -0.3242
11104TIP3    H154803   5.316   5.141  15.040 -0.3128  0.9612 -0.2223
11104TIP3    H254804   5.292   5.057  15.163  1.7812 -1.3513 -1.2782
11105TIP3   OH254805   6.109   2.574  13.973 -0.1665 -0.7360 -0.2098
11105TIP3    H154806   6.176   2.559  13.906  0.1363  0.5244 -0.2172
11105TIP3    H254807   6.146   2.643  14.028 -0.6334 -1.4023  0.9724
11106TIP3   OH254808   1.252   6.675   2.687 -0.3739  0.2233  0.1559
11106TIP3    H154809   1.183   6.609   2.685 -0.1006 -0.0536 -0.5871
11106TIP3    H254810   1.226   6.740   2.621 -0.7955  1.0325  1.0909
11107TIP3   OH254811   6.064   4.911  15.607  0.5100  0.4624  0.3210
11107TIP3    H154812   6.117   4.966  15.549 -1.4001  0.8359 -1.1781
11107TIP3    H254813   6.022   4.849  15.548 -0.4116 -0.0576  1.5016
11108TIP3   OH254814   3.717   4.382  11.567 -0.1413  0.1519 -0.1459
11108TIP3    H154815   3.722   4.468  11.526 -0.3537  0.8421  1.2250
11108TIP3    H254816   3.748   4.322  11.500  0.0822  1.3011 -1.1060
11109TIP3   OH254817   0.922   4.708  15.966 -0.8590 -0.5450  0.4045
11109TIP3    H154818   0.861   4.780  15.980  1.1414  1.6077 -1.0199
11109TIP3    H254819   0.899   4.673  15.880 -0.5036 -0.1431  0.1409
11110TIP3   OH254820   2.537   3.019   3.526  0.0373 -0.7258 -0.2739
11110TIP3    H154821   2.577   2.969   3.597  1.8742  0.6180 -0.2768
11110TIP3    H254822   2.444   2.995   3.528  0.5279 -2.6943  0.8645
11111TIP3   OH254823   6.386   6.042   5.837  0.3372 -0.2275 -0.7554
11111TIP3    H154824   6.437   6.115   5.872  1.0651 -0.6589 -0.8790
11111TIP3    H254825   6.449   5.970   5.832 -0.4726 -0.9893 -0.2237
11112TIP3   OH254826   4.950   3.863   4.004  0.1741 -0.3009  0.2127
11112TIP3    H154827   4.946   3.921   4.079  0.5517  1.1054 -0.7995
11112TIP3    H254828   5.016   3.797   4.027 -0.6527 -0.6789  1.5876
11113TIP3   OH254829   2.937   2.027  14.994  0.1840  0.4731 -0.0377
11113TIP3    H154830   2.954   1.980  15.075 -1.2851  0.9883  0.6149
11113TIP3    H254831   3.005   2.095  14.990  0.4026  0.2927  0.6448
11114TIP3   OH254832   3.743   2.315  15.619 -0.1412  0.2671  0.3416
11114TIP3    H154833   3.669   2.343  15.673 -1.0804  1.3205 -1.4264
11114TIP3    H254834   3.704   2.288  15.536  1.2776 -1.2227  0.1050
11115TIP3   OH254835   6.371   6.238  16.029 -0.5062 -0.1046 -0.3753
11115TIP3    H154836   6.440   6.236  16.096  1.1406 -1.7328 -1.9966
11115TIP3    H254837   6.413   6.204  15.950 -1.9427  2.9429 -2.6995
11116TIP3   OH254838   4.196   4.171  17.239  0.1689 -0.5292 -0.2451
11116TIP3    H154839   4.127   4.234  17.219 -0.2823 -0.4057  1.5157
11116TIP3    H254840   4.277   4.221  17.238 -0.2686  0.3515  1.9798
11117TIP3   OH254841   1.466   5.780  12.563 -0.3203 -0.4410  0.2531
11117TIP3    H154842   1.501   5.863  12.533 -2.3167  0.7094  0.8769
11117TIP3    H254843   1.387   5.766  12.511 -0.2130 -1.7943  0.3978
11118TIP3   OH254844   1.132   6.004   3.398 -0.0854 -0.0943  0.3367
11118TIP3    H154845   1.136   5.966   3.310 -0.3336  0.9924 -0.1604
11118TIP3    H254846   1.053   6.058   3.398 -0.9404 -1.2519  1.7401
11119TIP3   OH254847   3.442   5.959  15.168 -0.3732  0.1623  0.4095
11119TIP3    H154848   3.362   5.946  15.118  0.7756  1.7448 -2.0100
11119TIP3    H254849   3.487   5.874  15.165 -1.6764 -0.6068  1.4207
11120TIP3   OH254850   1.112   3.836  11.749  0.3515 -0.1133 -0.5848
11120TIP3    H154851   1.196   3.882  11.741  0.8436 -1.0447 -1.0464
11120TIP3    H254852   1.046   3.903  11.735  1.0148  0.7009  0.1111
11121TIP3   OH254853   5.925   3.672   1.642  0.0750 -0.4898  0.4414
11121TIP3    H154854   5.892   3.762   1.648 -2.7157 -1.3193 -0.9070
11121TIP3    H254855   5.918   3.638   1.731 -1.2630 -0.1272  0.4875
11122TIP3   OH254856   4.581   6.530   0.423  0.3003 -0.4061  0.3034
11122TIP3    H154857   4.664   6.488   0.447  0.9728  0.0764 -1.0435
11122TIP3    H254858   4.524   6.458   0.398 -0.1398 -0.8441  2.4347
11123TIP3   OH254859   3.256   5.450  12.969 -1.1335 -0.3027 -0.2730
11123TIP3    H154860   3.297   5.509  13.031  0.4955  1.1100 -2.5322
11123TIP3    H254861   3.176   5.495  12.942  0.6972  1.7127 -2.9087
11124TIP3   OH254862   3.888   4.336  16.827  0.3543 -0.4523 -0.8525
11124TIP3    H154863   3.968   4.326  16.776 -0.3619  1.8087 -2.5858
11124TIP3    H254864   3.825   4.278  16.786  0.3105 -0.0600 -1.3422
11125TIP3   OH254865   4.092   2.292  13.431 -0.2875  0.2861 -0.3278
11125TIP3    H154866   4.161   2.226  13.438  1.6510  2.2501  0.2672
11125TIP3    H254867   4.117   2.345  13.356 -1.0973  1.1076 -0.0333
11126TIP3   OH254868   5.778   3.213   2.485 -0.1979 -0.5016  0.3003
11126TIP3    H154869   5.769   3.141   2.547 -0.6752 -0.0969  0.7013
11126TIP3    H254870   5.689   3.246   2.472  0.1127  0.5841  0.8066
11127TIP3   OH254871   0.268   0.692   0.665 -0.1856 -0.5555 -0.1217
11127TIP3    H154872   0.233   0.757   0.604  1.0141  0.4670  0.2436
11127TIP3    H254873   0.262   0.609   0.617 -0.7389 -0.0226 -1.0092
11128TIP3   OH254874   4.895   1.823   6.655 -0.1509 -0.1675 -0.3112
11128TIP3    H154875   4.807   1.787   6.659 -0.7408  1.2798  2.8431
11128TIP3    H254876   4.882   1.918   6.649  1.1032  0.1562  1.3520
11129TIP3   OH254877   0.884   2.765  16.792  0.1244  0.2692  0.8547
11129TIP3    H154878   0.822   2.733  16.728 -0.3400  2.7531 -0.0369
11129TIP3    H254879   0.919   2.686  16.834 -0.9430 -1.3244 -1.1255
11130TIP3   OH254880   0.711   1.694   0.064 -0.1622  0.0539 -0.1392
11130TIP3    H154881   0.683   1.628   0.000  1.0596 -0.2870 -0.3478
11130TIP3    H254882   0.790   1.733   0.025 -0.4851  1.1829  0.2927
11131TIP3   OH254883   3.266   1.846  14.817 -0.3007  0.0818 -0.3817
11131TIP3    H154884   3.312   1.812  14.894 -1.3382  0.1892  0.3181
11131TIP3    H254885   3.318   1.920  14.788 -0.2500  0.4677  0.6508
11132TIP3   OH254886   4.088   2.699   4.736  0.3632  1.0627 -0.6040
11132TIP3    H154887   4.158   2.763   4.723 -0.1072  1.5355 -0.8159
11132TIP3    H254888   4.007   2.746   4.717 -0.0207  0.5200 -0.3656
11133TIP3   OH254889   3.311   5.304   1.932 -0.2125 -0.3805  0.0370
11133TIP3    H154890   3.379   5.350   1.883  0.1682 -1.0139 -0.0453
11133TIP3    H254891   3.290   5.362   2.006  2.5640 -1.4266  1.7954
11134TIP3   OH254892   5.944   3.315  16.113 -0.2702 -0.3738  0.2556
11134TIP3    H154893   5.985   3.277  16.191  2.6627 -0.2239 -1.0782
11134TIP3    H254894   5.966   3.408  16.118 -0.1702 -0.3420 -0.6418
11135TIP3   OH254895   1.174   1.752   2.784  0.3587 -0.3331 -0.1953
11135TIP3    H154896   1.168   1.684   2.717 -2.2120 -0.7188  0.3346
11135TIP3    H254897   1.162   1.705   2.867 -1.5446  0.7132  0.1729
11136TIP3   OH254898   3.346   3.322   4.653  0.1015  0.0339 -0.0755
11136TIP3    H154899   3.431   3.301   4.690 -0.8497 -1.1297  1.6291
11136TIP3    H254900   3.312   3.238   4.621 -0.9879  0.1656  0.6566
11137TIP3   OH254901   3.970   1.856  12.652 -0.0234  0.1569 -0.1171
11137TIP3    H154902   4.001   1.928  12.706  1.5029 -1.3771  1.1712
11137TIP3    H254903   3.886   1.830  12.691 -1.3411  2.0641 -1.4723
11138TIP3   OH254904   0.078   5.076  14.147  0.1671  0.4151 -0.2087
11138TIP3    H154905   0.080   5.114  14.059  1.1859  1.3822  0.2054
11138TIP3    H254906   0.063   5.150  14.205  0.5540 -0.0496  0.5021
11139TIP3   OH254907   0.655   5.853  14.690  0.1049  0.0127  0.2048
11139TIP3    H154908   0.726   5.854  14.755  2.8698 -1.5997 -2.5316
11139TIP3    H254909   0.641   5.946  14.669  0.4944  0.4334  1.6646
11140TIP3   OH254910   2.215   3.312  12.009  0.4914 -0.9198 -0.4365
11140TIP3    H154911   2.251   3.379  11.951  1.0140 -0.6218  0.2116
11140TIP3    H254912   2.185   3.362  12.086  3.5257 -1.6509  1.3753
11141TIP3   OH254913   6.647   5.448   4.108  0.2730  0.6859 -0.1206
11141TIP3    H154914   6.707   5.495   4.165  0.3785 -0.7828  1.0492
11141TIP3    H254915   6.685   5.456   4.020  1.1454  1.3602  0.3148
11142TIP3   OH254916   0.300   4.702  16.115 -0.0713  0.6960  0.9697
11142TIP3    H154917   0.344   4.639  16.172 -0.6102  0.2918  0.9402
11142TIP3    H254918   0.318   4.787  16.156  0.0008  0.4583  1.4380
11143TIP3   OH254919   1.311   6.776  16.755  0.1235 -0.4673 -0.3960
11143TIP3    H154920   1.331   6.771  16.848  1.0570  1.0881 -0.4726
11143TIP3    H254921   1.397   6.766  16.712 -0.2108 -0.5413 -1.0644
11144TIP3   OH254922   0.047   2.798   5.257  0.8166  0.4856  0.3868
11144TIP3    H154923  -0.029   2.802   5.199 -0.2419  0.3599  1.7076
11144TIP3    H254924   0.118   2.765   5.202 -0.6969 -1.8055 -0.3368
11145TIP3   OH254925   0.775   6.636   3.859 -0.5064  0.6462  0.1895
11145TIP3    H154926   0.859   6.672   3.832 -0.9622  1.2828 -0.4117
11145TIP3    H254927   0.790   6.606   3.949  1.1602 -1.9392 -0.8684
11146TIP3   OH254928   5.482   5.925  13.162 -0.2512  0.1167  0.1144
11146TIP3    H154929   5.560   5.926  13.106  0.2134  1.6722  0.7365
11146TIP3    H254930   5.511   5.962  13.245 -1.0825 -1.5635  1.2141
11147TIP3   OH254931   6.530   1.496  10.787  0.2760 -0.0549  0.5580
11147TIP3    H154932   6.451   1.450  10.756  0.0830 -0.1449  1.1686
11147TIP3    H254933   6.531   1.578  10.738  0.0416 -0.2490  0.2261
11148TIP3   OH254934   0.421   2.018  11.417  0.3152 -0.6190 -0.3857
11148TIP3    H154935   0.353   2.013  11.350  1.6739  1.4723 -2.0547
11148TIP3    H254936   0.441   1.926  11.437 -1.7621 -1.2919 -1.0858
11149TIP3   OH254937   6.502   4.241  12.312  0.3443  0.4305 -0.5858
11149TIP3    H154938   6.562   4.203  12.376  0.4700 -0.7778 -1.3949
11149TIP3    H254939   6.415   4.217  12.344  0.4463 -2.5589 -2.1982
11150TIP3   OH254940   5.346   0.061  16.269 -0.0825 -0.2428 -0.6818
11150TIP3    H154941   5.250   0.061  16.270 -0.0943 -0.8004 -1.1621
11150TIP3    H254942   5.369   0.004  16.196  0.6108 -3.4095  1.7417
11151TIP3   OH254943   1.078   4.386   3.229  0.9524  0.5779  0.3540
11151TIP3    H154944   1.162   4.384   3.183  0.4138 -1.4342 -0.6707
11151TIP3    H254945   1.048   4.295   3.227 -0.7849  1.0766  1.6024
11152TIP3   OH254946   0.769   5.087  10.847  0.3050  0.3758 -0.3200
11152TIP3    H154947   0.861   5.112  10.846  0.6224 -0.6028  1.2120
11152TIP3    H254948   0.768   4.999  10.810 -0.0048  0.3336 -0.2094
11153TIP3   OH254949   4.305   6.751   1.406 -0.2631  0.0162 -0.3298
11153TIP3    H154950   4.398   6.734   1.420  0.0820  0.6237 -1.6781
11153TIP3    H254951   4.300   6.844   1.386 -1.4593  0.4699  1.7822
11154TIP3   OH254952   4.546   4.522   5.497 -0.0176  0.0591  0.5575
11154TIP3    H154953   4.565   4.431   5.518 -1.9267  0.0395  2.4910
11154TIP3    H254954   4.466   4.518   5.443  0.3358  0.5610 -0.0194
11155TIP3   OH254955   2.923   6.681  17.041  0.3430  0.0419  0.7371
11155TIP3    H154956   2.938   6.760  16.989 -0.4604 -0.8397 -0.9311
11155TIP3    H254957   3.011   6.649  17.062  0.6998  0.3610 -0.2270
11156TIP3   OH254958   1.673   1.668   1.810 -0.4586 -0.0993  0.8074
11156TIP3    H154959   1.607   1.690   1.744 -1.2381  0.8205  1.8611
11156TIP3    H254960   1.681   1.573   1.806  0.4172  0.0016 -1.4443
11157TIP3   OH254961   0.270   4.582  16.965 -0.1453  0.3978  0.2340
11157TIP3    H154962   0.318   4.514  17.012  0.4803  1.7812  1.6744
11157TIP3    H254963   0.332   4.615  16.900  0.1356  0.7246  0.6626
11158TIP3   OH254964   1.552   3.364  11.947 -0.1182 -0.5730  0.1688
11158TIP3    H154965   1.645   3.344  11.941  0.4693  1.8518 -0.0790
11158TIP3    H254966   1.534   3.365  12.041  0.4722  0.2683  0.2900
11159TIP3   OH254967   0.306   0.344   1.259 -0.6168  0.5932 -0.3955
11159TIP3    H154968   0.332   0.261   1.299 -0.2779  1.3196  0.9575
11159TIP3    H254969   0.376   0.405   1.281 -1.2731  1.4539 -0.6201
11160TIP3   OH254970   5.554   0.666  13.725 -0.7408  0.4844  0.2987
11160TIP3    H154971   5.602   0.745  13.700 -0.6049  0.4941  0.5897
11160TIP3    H254972   5.553   0.612  13.645 -0.7933  0.7567  0.1140
11161TIP3   OH254973   2.804   0.566   1.671 -0.5745  0.7795  0.5275
11161TIP3    H154974   2.749   0.639   1.698 -0.3589  0.9865  0.4078
11161TIP3    H254975   2.776   0.545   1.582 -1.5577 -0.1608  1.0322
11162TIP3   OH254976   0.542   1.045  13.984  0.5045 -0.6317  0.0184
11162TIP3    H154977   0.475   1.063  14.050  1.0948 -1.9335  1.0053
11162TIP3    H254978   0.531   1.116  13.920  0.4833  1.1755  1.9105
11163TIP3   OH254979   2.990   5.174   3.902 -0.3297  0.3974  0.6995
11163TIP3    H154980   3.072   5.202   3.862 -0.4359 -0.5034 -0.1948
11163TIP3    H254981   3.016   5.116   3.973 -0.1762 -0.9364 -0.3956
11164TIP3   OH254982   3.333   3.767   4.575 -0.2560  0.0412 -0.1267
11164TIP3    H154983   3.344   3.853   4.535 -0.0994  1.2823  2.3935
11164TIP3    H254984   3.400   3.712   4.533 -0.2588  1.1802 -1.6620
11165TIP3   OH254985   5.477   2.477  14.400  0.1843 -0.5309 -0.7888
11165TIP3    H154986   5.477   2.525  14.317  0.5246  0.4585 -0.2316
11165TIP3    H254987   5.395   2.427  14.398  0.2805 -0.6805 -1.8041
11166TIP3   OH254988   5.768   2.377  10.714  0.3880  0.7324 -0.6985
11166TIP3    H154989   5.701   2.344  10.654  0.3276 -1.0805  0.2870
11166TIP3    H254990   5.831   2.304  10.721  1.2816  1.5611  0.1156
11167TIP3   OH254991   1.612   4.685   4.879 -0.1119 -0.0824 -0.4592
11167TIP3    H154992   1.674   4.623   4.840  1.3253  0.9650  0.0627
11167TIP3    H254993   1.564   4.634   4.944  0.2501 -0.9202 -0.8461
11168TIP3   OH254994   5.619   4.577   4.569 -0.2059  0.3700  0.3868
11168TIP3    H154995   5.656   4.616   4.490 -1.1881  0.9381  0.1825
11168TIP3    H254996   5.587   4.491   4.541 -2.1595  1.2675 -0.3120
11169TIP3   OH254997   3.481   2.002  11.888  0.1365  0.1970  0.2388
11169TIP3    H154998   3.480   2.069  11.957 -2.0381 -1.4033  1.8728
11169TIP3    H254999   3.395   1.960  11.894  0.6566 -1.3631 -2.1353
11170TIP3   OH255000   1.978   3.511  11.818 -0.5247 -0.6184  0.2160
11170TIP3    H155001   1.960   3.420  11.841  0.2555 -0.7011  0.5493
11170TIP3    H255002   1.959   3.516  11.724 -2.3596 -0.6382  0.5517
11171TIP3   OH255003   3.234   1.156  16.139  0.1137  0.2530  0.3584
11171TIP3    H155004   3.197   1.222  16.081  2.1119 -0.4101 -1.8292
11171TIP3    H255005   3.327   1.180  16.146  0.5699 -1.4844  0.7025
11172TIP3   OH255006   6.201   2.035   1.397 -0.5394 -0.1410  0.1764
11172TIP3    H155007   6.267   1.967   1.382 -0.3491  0.2802 -1.0188
11172TIP3    H255008   6.117   1.988   1.394 -0.4308 -0.2946 -0.9828
11173TIP3   OH255009   1.821   6.372  14.209 -0.0499  0.0781  0.1830
11173TIP3    H155010   1.729   6.394  14.221 -0.3628 -0.5120 -0.9811
11173TIP3    H255011   1.864   6.456  14.196 -0.3464  0.3917  1.1791
11174TIP3   OH255012   2.137   3.104  16.112  0.4106  0.1525 -0.4434
11174TIP3    H155013   2.166   3.085  16.023  4.9487  0.7743  0.6238
11174TIP3    H255014   2.167   3.029  16.164 -5.1367 -1.9668  0.4368
11175TIP3   OH255015   5.590   1.963  11.275  0.2973 -0.1592  0.1098
11175TIP3    H155016   5.521   2.017  11.313 -0.6015  1.0004 -2.8506
11175TIP3    H255017   5.576   1.876  11.313  0.4430  1.1353  3.3623
11176TIP3   OH255018   6.276   0.036  11.075 -0.1837 -0.4678  0.3934
11176TIP3    H155019   6.362   0.058  11.111  0.8267 -1.1770 -1.4593
11176TIP3    H255020   6.294   0.005  10.986 -2.4117 -0.1821 -0.2227
11177TIP3   OH255021   4.885   2.817   3.580 -0.0139 -0.2577  0.5304
11177TIP3    H155022   4.909   2.725   3.586  1.8479  0.1379 -0.1616
11177TIP3    H255023   4.880   2.847   3.672  0.7282 -0.7282  0.7292
11178TIP3   OH255024   2.562   6.242   5.510 -0.9067 -0.0375  0.0552
11178TIP3    H155025   2.598   6.253   5.598 -0.0603 -1.1981 -0.1276
11178TIP3    H255026   2.555   6.332   5.475  1.2465  0.2852  0.3299
11179TIP3   OH255027   1.970   5.937  14.273 -0.0800  0.2442  0.6313
11179TIP3    H155028   2.064   5.926  14.287 -0.3294 -2.6257  0.5507
11179TIP3    H255029   1.931   5.856  14.304 -2.2971  0.3558 -1.5334
11180TIP3   OH255030   1.752   1.213   4.440  0.4507 -0.5018 -0.1087
11180TIP3    H155031   1.831   1.253   4.475 -1.8051  2.1720  2.4654
11180TIP3    H255032   1.757   1.121   4.467  1.2601  0.3073  2.8568
11181TIP3   OH255033   5.292   4.043   4.699 -0.2740 -0.2205  0.3305
11181TIP3    H155034   5.246   4.002   4.626 -0.2619  0.3070  0.0252
11181TIP3    H255035   5.224   4.094   4.744  0.0500  0.7493 -0.2583
11182TIP3   OH255036   6.688   2.979   0.977 -0.1382  0.5361  0.1685
11182TIP3    H155037   6.635   3.058   0.982 -0.1476  0.4739  1.3483
11182TIP3    H255038   6.756   2.999   0.913 -0.4616  1.2993  0.0612
11183TIP3   OH255039   3.147   0.047   3.883  0.0305  0.0535 -1.1318
11183TIP3    H155040   3.121   0.127   3.927 -1.7060 -0.3281 -1.4076
11183TIP3    H255041   3.087   0.039   3.809 -1.4986 -2.6895  0.2149
11184TIP3   OH255042   0.559   3.228   3.278 -0.2342 -0.2440 -0.0877
11184TIP3    H155043   0.519   3.255   3.195 -0.9830 -0.7958  0.0732
11184TIP3    H255044   0.653   3.232   3.263 -0.3222  1.3887 -0.3954
11185TIP3   OH255045   5.446   5.767  12.221  0.2215  0.1542 -0.8068
11185TIP3    H155046   5.479   5.681  12.196  0.3570  0.5063 -1.8994
11185TIP3    H255047   5.524   5.822  12.229  0.1396  0.1690 -0.0743
11186TIP3   OH255048   6.463   5.926   6.147  0.2948  0.1270  0.5567
11186TIP3    H155049   6.530   5.992   6.165 -0.5875  0.8892  1.1350
11186TIP3    H255050   6.380   5.973   6.153 -0.3175 -0.8493  0.0928
11187TIP3   OH255051   3.839   0.396  14.202 -0.3402  1.0037 -0.4114
11187TIP3    H155052   3.776   0.428  14.138 -1.6582 -0.1266  0.2692
11187TIP3    H255053   3.816   0.442  14.283 -0.7140  0.1464 -0.0128
11188TIP3   OH255054   1.599   5.493  12.436  0.0733  0.6305  0.5690
11188TIP3    H155055   1.577   5.426  12.372 -0.7592  0.5464  0.9256
11188TIP3    H255056   1.613   5.572  12.384  0.2965  0.3623  0.2137
11189TIP3   OH255057   4.964   2.692  10.701 -0.2731  0.2405 -0.1834
11189TIP3    H155058   5.032   2.746  10.662  1.4996  0.3421  2.7406
11189TIP3    H255059   5.010   2.613  10.731 -1.7211 -0.3847  0.5108
11190TIP3   OH255060   4.398   6.109  13.537  0.1091 -0.1694 -0.4837
11190TIP3    H155061   4.468   6.070  13.484  1.7440 -0.8437  1.9645
11190TIP3    H255062   4.439   6.125  13.622 -2.1225  1.6585  0.3535
11191TIP3   OH255063   5.413   5.549  12.979 -0.3427 -0.3740 -0.3331
11191TIP3    H155064   5.490   5.492  12.977 -0.2737 -0.3432  0.6674
11191TIP3    H255065   5.384   5.554  12.888  1.1078 -0.0085 -0.8069
11192TIP3   OH255066   0.219   4.258   0.467 -0.5339  0.0363  0.6790
11192TIP3    H155067   0.220   4.167   0.438 -0.3866  0.3947 -0.5029
11192TIP3    H255068   0.282   4.302   0.409 -0.1533  0.7719  1.6315
11193TIP3   OH255069   3.097   4.706   3.495  0.1324 -0.7548 -0.7277
11193TIP3    H155070   3.136   4.657   3.567 -2.1183 -1.8649 -0.1847
11193TIP3    H255071   3.037   4.767   3.538 -0.5274 -0.7654 -1.6207
11194TIP3   OH255072   1.295   6.660  12.130 -0.1531 -0.4275  0.1850
11194TIP3    H155073   1.343   6.721  12.186  1.3657 -0.8051 -0.6631
11194TIP3    H255074   1.336   6.575  12.145  0.1408 -0.5748 -1.3125
11195TIP3   OH255075   1.349   0.802  13.787  0.0693  0.1578 -0.1161
11195TIP3    H155076   1.414   0.745  13.828  0.3801  0.6576  0.1086
11195TIP3    H255077   1.266   0.756  13.796  0.4587 -0.6760 -0.7660
11196TIP3   OH255078   1.537   1.511  12.262 -0.2535 -0.1353 -0.1597
11196TIP3    H155079   1.585   1.471  12.189 -1.0888 -3.4318  0.9133
11196TIP3    H255080   1.456   1.542  12.223 -0.1224 -0.6673 -0.8857
11197TIP3   OH255081   3.020   6.083   0.925 -0.0922 -0.3131 -0.1124
11197TIP3    H155082   3.104   6.067   0.969 -1.0837  1.2253  2.5629
11197TIP3    H255083   3.035   6.160   0.871 -0.1103  0.9067  1.5546
11198TIP3   OH255084   2.400   3.967  13.036 -0.3394  0.2993 -0.2968
11198TIP3    H155085   2.487   3.964  13.074 -0.4164  0.4957 -0.1023
11198TIP3    H255086   2.355   3.890  13.071 -0.4165  0.4898  0.0299
11199TIP3   OH255087   5.191   6.544   3.274 -0.1779  0.7001  0.0729
11199TIP3    H155088   5.123   6.538   3.340 -0.9740  0.3100 -0.7563
11199TIP3    H255089   5.182   6.632   3.237  0.9764  1.3204  1.2027
11200TIP3   OH255090   5.632   1.777  12.870  0.4004  0.1547  0.0577
11200TIP3    H155091   5.604   1.698  12.824  1.0590 -0.4038  0.6081
11200TIP3    H255092   5.727   1.778  12.861  0.6599 -0.5086  2.2685
11201TIP3   OH255093   5.640   2.375   5.407 -0.3322  0.5911 -0.2114
11201TIP3    H155094   5.571   2.338   5.462 -0.6443  0.9904 -0.3305
11201TIP3    H255095   5.675   2.448   5.458 -1.3698  1.6757 -0.9669
11202TIP3   OH255096   3.069   1.785  15.419  0.6187 -0.3757 -0.2698
11202TIP3    H155097   3.064   1.855  15.353  2.9767  1.7498  1.6247
11202TIP3    H255098   3.084   1.830  15.501 -1.4314 -2.9917  1.7261
11203TIP3   OH255099   2.886   5.208   0.427 -0.2134  1.5357 -0.1437
11203TIP3    H155100   2.807   5.209   0.374 -0.3703 -0.4919 -0.0292
11203TIP3    H255101   2.957   5.200   0.363 -0.2546  1.3852 -0.1730
11204TIP3   OH255102   6.610   4.113  12.537  0.0122  0.0121 -0.2583
11204TIP3    H155103   6.530   4.110  12.589 -0.7898  0.8708 -1.3823
11204TIP3    H255104   6.672   4.162  12.591 -0.1937 -0.7163  0.6495
11205TIP3   OH255105   4.207   6.285   4.591  0.6197  0.1653  0.2994
11205TIP3    H155106   4.235   6.196   4.613  2.0309  0.5826  0.2744
11205TIP3    H255107   4.172   6.320   4.672 -1.1958 -0.8343  0.0022
11206TIP3   OH255108   1.466   4.903  14.821  0.0977 -0.4864 -0.0385
11206TIP3    H155109   1.402   4.843  14.784  0.9089 -1.9814  0.8691
11206TIP3    H255110   1.485   4.965  14.750 -0.8990 -1.1825 -0.9390
11207TIP3   OH255111   5.381   4.269  15.218  0.6177  0.4922 -0.4557
11207TIP3    H155112   5.419   4.189  15.255  0.8849  1.0086  0.4065
11207TIP3    H255113   5.357   4.244  15.128 -1.9433 -1.4003  0.6379
11208TIP3   OH255114   3.567   4.359  16.033  0.3735  0.0752 -0.5341
11208TIP3    H155115   3.580   4.450  16.060 -1.0789  0.0391  0.4330
11208TIP3    H255116   3.472   4.352  16.019  0.8097 -0.2195 -4.7382
11209TIP3   OH255117   0.663   2.989  12.805  0.0794 -0.5402  0.6395
11209TIP3    H155118   0.713   2.925  12.755 -1.7620 -0.7239 -1.0924
11209TIP3    H255119   0.721   3.064  12.815  0.8275 -0.8825 -0.9807
11210TIP3   OH255120   4.701   5.982   4.502  0.0767  0.2756  0.0184
11210TIP3    H155121   4.621   6.034   4.494 -0.9159 -1.1381  0.3283
11210TIP3    H255122   4.674   5.892   4.483  1.7227 -0.1625 -0.4741
11211TIP3   OH255123   5.250   0.666   0.119 -0.6645  0.2205 -0.2244
11211TIP3    H155124   5.187   0.720   0.167 -1.5881  0.0006 -1.1792
11211TIP3    H255125   5.197   0.603   0.071  0.3083 -0.2857 -0.6655
11212TIP3   OH255126   5.130   4.638   5.944 -0.2638  0.1034  0.3414
11212TIP3    H155127   5.066   4.656   6.013 -1.8388 -0.7344 -0.8403
11212TIP3    H255128   5.078   4.603   5.872  1.6280 -1.3696 -0.3819
11213TIP3   OH255129   4.135   1.713   5.209  0.4752  0.4992  0.7164
11213TIP3    H155130   4.068   1.773   5.243  1.0269  1.8267 -0.4556
11213TIP3    H255131   4.087   1.633   5.189 -0.6989  1.2614  0.3354
11214TIP3   OH255132   4.503   3.961   5.483 -0.0810 -0.5132  0.1587
11214TIP3    H155133   4.496   3.873   5.446 -0.0230 -1.2157  1.7821
11214TIP3    H255134   4.520   3.948   5.576  0.2919  1.2202  0.3718
11215TIP3   OH255135   2.677   5.932   3.736  0.0857  0.1056  0.3253
11215TIP3    H155136   2.738   5.967   3.802  0.4288 -0.7078  0.4555
11215TIP3    H255137   2.649   6.009   3.686  1.7367  0.4303 -0.1641
11216TIP3   OH255138   6.134   0.473  11.595 -0.5691  0.1361  0.2301
11216TIP3    H155139   6.051   0.504  11.632 -1.2622 -1.9923  0.5734
11216TIP3    H255140   6.192   0.549  11.601 -1.9110  1.1226  1.7466
11217TIP3   OH255141   1.323   4.787   3.794 -0.5372  0.2900 -0.0965
11217TIP3    H155142   1.412   4.783   3.826  0.1268  1.7189 -1.6020
11217TIP3    H255143   1.276   4.840   3.859  0.4776  2.0924 -0.7429
11218TIP3   OH255144   1.576   0.882  11.967  0.0980 -0.2114  0.1624
11218TIP3    H155145   1.566   0.829  12.046  0.8627 -1.7172 -0.6898
11218TIP3    H255146   1.535   0.829  11.898  0.8910  0.2902 -0.7179
11219TIP3   OH255147   0.951   0.561   0.685  0.6051 -0.1702 -0.2149
11219TIP3    H155148   1.000   0.626   0.735  0.5029  0.0739 -0.4246
11219TIP3    H255149   0.909   0.612   0.615  1.1699 -0.5700 -0.8654
11220TIP3   OH255150   4.350   5.696  16.773 -0.2076 -0.4555  0.5653
11220TIP3    H155151   4.402   5.670  16.697  2.1372  1.9914  1.1887
11220TIP3    H255152   4.381   5.637  16.843  1.9400  1.0024  0.9448
11221TIP3   OH255153   6.145   3.570   0.949  0.2474  0.0831  0.3878
11221TIP3    H155154   6.071   3.525   0.909  0.8621 -0.3997 -0.2367
11221TIP3    H255155   6.136   3.661   0.919  0.8932 -0.3390 -1.1936
11222TIP3   OH255156   4.864   1.253  11.205 -0.0555  1.0560 -0.1852
11222TIP3    H155157   4.909   1.220  11.127  0.0303  0.8932 -0.0661
11222TIP3    H255158   4.920   1.226  11.278 -0.0759  1.3099 -0.0757
11223TIP3   OH255159   5.431   0.631  13.974 -0.1233 -0.3655 -0.1611
11223TIP3    H155160   5.360   0.577  13.940  0.2034 -0.5479 -0.5663
11223TIP3    H255161   5.482   0.655  13.896  0.6079 -0.7429  0.1856
11224TIP3   OH255162   5.818   1.881  11.788 -0.1611 -0.2043 -0.3990
11224TIP3    H155163   5.897   1.930  11.809  0.3373 -0.8849 -0.6334
11224TIP3    H255164   5.769   1.938  11.729  0.3109  0.0928 -0.5073
11225TIP3   OH255165   2.999   1.769   4.323  0.3064 -0.2341  0.1781
11225TIP3    H155166   2.906   1.785   4.339 -0.0698 -0.0042 -1.9553
11225TIP3    H255167   3.002   1.691   4.267  1.5436 -1.4280  1.8065
11226TIP3   OH255168   6.653   2.808   5.717  0.3531  0.5877  0.7030
11226TIP3    H155169   6.645   2.903   5.707 -4.3199  0.3733 -0.0970
11226TIP3    H255170   6.646   2.793   5.811 -2.1902  1.0357  0.6508
11227TIP3   OH255171   2.274   5.407  15.869  0.2702  0.0971  0.1514
11227TIP3    H155172   2.335   5.346  15.828 -0.7998  0.1060 -1.5441
11227TIP3    H255173   2.200   5.353  15.897  0.2686  0.3328  0.6258
11228TIP3   OH255174   3.427   5.613   1.704  0.1788  0.1870 -0.0535
11228TIP3    H155175   3.481   5.653   1.636 -0.9915  0.8260 -0.6452
11228TIP3    H255176   3.338   5.614   1.668 -0.3327 -0.2825  1.1220
11229TIP3   OH255177   5.831   1.438  13.872 -0.2994 -0.3043  0.1202
11229TIP3    H155178   5.866   1.390  13.947 -1.3378 -0.5002  0.4871
11229TIP3    H255179   5.757   1.488  13.907  0.8434  1.7349 -0.1985
11230TIP3   OH255180   3.070   5.324   2.572  0.4831  0.1439 -0.4063
11230TIP3    H155181   3.115   5.396   2.527  1.8481 -1.3484 -1.5438
11230TIP3    H255182   3.139   5.280   2.621  0.5264 -2.5391 -2.6165
11231TIP3   OH255183   2.049   4.330   2.474 -0.4297 -0.3964  0.3076
11231TIP3    H155184   2.090   4.299   2.393  0.5836  0.7072  0.3762
11231TIP3    H255185   1.965   4.367   2.446 -0.0390  0.0747 -0.2614
11232TIP3   OH255186   5.400   1.675   6.784 -0.2083 -0.7602 -0.2596
11232TIP3    H155187   5.412   1.620   6.707 -0.7828 -0.9119 -0.2432
11232TIP3    H255188   5.305   1.682   6.794 -0.1444 -1.3766  0.8852
11233TIP3   OH255189   0.014   4.714  12.334 -0.1287 -0.7839 -0.5609
11233TIP3    H155190   0.022   4.689  12.426  0.0848  0.9092 -0.0943
11233TIP3    H255191  -0.071   4.678  12.307 -0.7466 -0.2797  0.6396
11234TIP3   OH255192   5.912   0.257  16.923 -0.2030  0.5157  0.3282
11234TIP3    H155193   5.906   0.352  16.930 -0.5060  0.4682  0.7943
11234TIP3    H255194   6.000   0.240  16.890 -0.0552  0.9448  0.5001
11235TIP3   OH255195   2.468   3.519   4.594 -0.5236  0.3344 -0.2917
11235TIP3    H155196   2.484   3.484   4.681 -0.3272 -0.0135 -0.4660
11235TIP3    H255197   2.525   3.596   4.588  0.5032 -0.4237 -0.6078
11236TIP3   OH255198   0.457   2.091   5.904  0.5994  0.1547  0.0223
11236TIP3    H155199   0.404   2.116   5.980 -0.0661 -1.4331  0.1188
11236TIP3    H255200   0.532   2.150   5.907  0.4063  0.3758  1.7065
11237TIP3   OH255201   6.185   6.106   0.067 -0.0654 -0.2789 -0.1033
11237TIP3    H155202   6.100   6.114   0.109 -0.7362 -1.6230 -1.1125
11237TIP3    H255203   6.236   6.049   0.126 -1.4687 -3.3364 -1.6194
11238TIP3   OH255204   4.332   2.035   6.022  0.1834 -0.1959 -0.0185
11238TIP3    H155205   4.260   2.080   5.978  0.2484 -0.0468  0.0275
11238TIP3    H255206   4.391   2.009   5.951 -0.1899 -0.8157 -0.1124
11239TIP3   OH255207   4.980   5.048   6.121 -0.3760 -0.1374  0.2123
11239TIP3    H155208   4.919   5.049   6.195 -0.2754  0.9525  0.2981
11239TIP3    H255209   4.936   4.994   6.055 -0.4296 -1.1870  1.0722
11240TIP3   OH255210   5.691   0.933   4.675  0.6886  0.2723  0.1621
11240TIP3    H155211   5.735   0.970   4.599 -0.6970  1.3765 -0.1526
11240TIP3    H255212   5.719   0.987   4.748  2.2538 -0.9707  0.5511
11241TIP3   OH255213   3.888   4.100  15.337  0.7555  0.1934  0.1439
11241TIP3    H155214   3.867   4.080  15.246 -0.7849 -1.1932  0.7614
11241TIP3    H255215   3.805   4.089  15.384  1.9411 -1.3083  2.0449
11242TIP3   OH255216   6.136   2.630   3.157  0.1333 -0.1656 -0.4636
11242TIP3    H155217   6.126   2.704   3.217  1.0168 -0.6343  0.2954
11242TIP3    H255218   6.082   2.561   3.195 -0.6742  0.0663 -1.1610
11243TIP3   OH255219   3.975   0.273   3.635  0.4643 -0.1097 -0.3181
11243TIP3    H155220   3.920   0.254   3.559 -2.0890 -1.4907  1.6978
11243TIP3    H255221   4.012   0.188   3.660 -1.4964 -0.4446  1.8533
11244TIP3   OH255222   1.342   6.597   3.980  0.3996  0.3686 -0.0452
11244TIP3    H155223   1.415   6.559   3.930  1.4389  0.6647  1.1904
11244TIP3    H255224   1.352   6.561   4.068 -1.4566 -0.2144 -0.0320
11245TIP3   OH255225   6.608   5.857   2.011  0.6650 -0.3742  0.5738
11245TIP3    H155226   6.593   5.815   1.926 -1.3676  1.8090 -0.2492
11245TIP3    H255227   6.640   5.944   1.990  0.3657  0.1291  2.0511
11246TIP3   OH255228   1.514   3.580  11.180 -0.6891 -0.3671 -0.0370
11246TIP3    H155229   1.501   3.572  11.086 -1.3067  0.7150 -0.0717
11246TIP3    H255230   1.426   3.594  11.215 -0.3959 -0.1021  0.6159
11247TIP3   OH255231   4.223   5.485   4.762  0.8006  0.1278  0.4825
11247TIP3    H155232   4.127   5.483   4.762  0.7681 -1.2728  2.2740
11247TIP3    H255233   4.248   5.397   4.734  1.6287  0.8878 -1.3032
11248TIP3   OH255234   4.296   4.817   2.141  0.4233  0.3606  0.1185
11248TIP3    H155235   4.308   4.866   2.222  1.4901 -0.7920  0.6893
11248TIP3    H255236   4.242   4.874   2.086 -0.8706  0.9095  1.8722
11249TIP3   OH255237   1.449   5.051   4.179  0.0938  0.3379  0.3710
11249TIP3    H155238   1.424   5.012   4.263  0.5176 -1.7984 -0.4331
11249TIP3    H255239   1.528   5.002   4.152 -0.7178  0.1193 -1.8137
11250TIP3   OH255240   1.304   2.212   0.444  0.1048 -0.3141 -0.4454
11250TIP3    H155241   1.223   2.234   0.397 -1.3106 -3.4584  0.3126
11250TIP3    H255242   1.358   2.166   0.379  0.2674 -0.3489 -0.2867
11251TIP3   OH255243   4.780   5.123  17.187  0.6590  0.0277 -0.0965
11251TIP3    H155244   4.776   5.134  17.282  0.7060  1.1840 -0.2125
11251TIP3    H255245   4.689   5.130  17.158  0.4599 -1.7562 -0.0196
11252TIP3   OH255246   1.938   2.197   3.545  0.7289  0.9625  0.2013
11252TIP3    H155247   1.990   2.129   3.502 -0.5782  0.3919 -0.5240
11252TIP3    H255248   1.982   2.279   3.522  0.4152  0.6277 -1.7880
11253TIP3   OH255249   3.929   5.522  14.201 -0.1645 -0.0983  0.3345
11253TIP3    H155250   3.946   5.488  14.289 -0.0729 -1.4182 -0.1779
11253TIP3    H255251   3.866   5.461  14.164 -1.0150  1.0423 -0.1584
11254TIP3   OH255252   3.449   1.762  11.506 -0.1308  0.0265 -0.1325
11254TIP3    H155253   3.376   1.808  11.463  1.5460  1.4055 -1.6557
11254TIP3    H255254   3.457   1.679  11.458 -1.6021 -0.8449  1.0348
11255TIP3   OH255255   1.683   3.133   4.983  0.0564  0.3178  0.4936
11255TIP3    H155256   1.751   3.112   5.046  1.0891  0.1078 -0.6530
11255TIP3    H255257   1.601   3.113   5.028  0.6600  1.8600  2.3786
11256TIP3   OH255258   4.338   3.097   4.839  0.1673  0.2218 -0.3720
11256TIP3    H155259   4.272   3.166   4.831  0.5830  0.5198 -1.3616
11256TIP3    H255260   4.309   3.045   4.914 -2.7055 -1.3077 -2.3816
11257TIP3   OH255261   5.304   0.846   1.908  0.5461 -0.1400 -0.1062
11257TIP3    H155262   5.274   0.838   1.998  0.7900 -1.1787 -0.1082
11257TIP3    H255263   5.386   0.895   1.914 -0.2257  1.1807  0.0664
11258TIP3   OH255264   4.330   4.759   4.420  0.4559  0.8135 -0.0340
11258TIP3    H155265   4.326   4.850   4.450 -0.7414  1.3780 -1.7634
11258TIP3    H255266   4.405   4.757   4.361  0.8455  0.5049  0.4589
11259TIP3   OH255267   4.040   3.408   2.038  0.5152  0.2491 -0.0729
11259TIP3    H155268   4.053   3.342   1.970  0.5208 -1.2423  1.3023
11259TIP3    H255269   4.126   3.416   2.080 -0.2464 -1.4710  1.9718
11260TIP3   OH255270   4.696   3.774  16.750  0.0841  0.6810  0.6008
11260TIP3    H155271   4.714   3.822  16.831 -0.1148 -1.8744  2.2397
11260TIP3    H255272   4.608   3.739  16.761 -0.5675  1.4929 -1.4276
11261TIP3   OH255273   4.289   6.528  12.430  0.0866 -0.2943  0.2246
11261TIP3    H155274   4.276   6.623  12.423 -0.4124 -0.4215 -0.6637
11261TIP3    H255275   4.384   6.517  12.432  0.2070  0.1316 -1.4357
11262TIP3   OH255276   1.510   5.765   1.941 -0.6579 -0.0619  0.2885
11262TIP3    H155277   1.556   5.802   1.865 -2.2102 -0.8341 -1.0932
11262TIP3    H255278   1.541   5.674   1.945 -1.9402 -0.5567 -0.5909
11263TIP3   OH255279   6.604   5.580  16.378  0.5705  0.0748  0.0859
11263TIP3    H155280   6.661   5.630  16.437  0.5462 -1.5743  1.5762
11263TIP3    H255281   6.661   5.552  16.307  1.1583  0.1387  0.5276
11264TIP3   OH255282   5.417   3.528  11.372  0.0790  0.0041  0.0661
11264TIP3    H155283   5.420   3.433  11.362  0.0296  0.1957 -2.6286
11264TIP3    H255284   5.508   3.556  11.367 -0.0280  0.1977 -1.1774
11265TIP3   OH255285   1.612   1.800   4.446  0.2057  0.2381 -0.6077
11265TIP3    H155286   1.693   1.772   4.403  0.8378  0.3737  0.4604
11265TIP3    H255287   1.543   1.774   4.385  0.9930 -0.5891 -1.1806
11266TIP3   OH255288   0.916   4.187  15.713 -0.2063 -0.2474 -0.0173
11266TIP3    H155289   0.848   4.148  15.658 -0.5700 -0.1823  0.3812
11266TIP3    H255290   0.968   4.241  15.653 -1.0886  0.4593 -0.1639
11267TIP3   OH255291   6.237   4.189  12.434 -0.5659 -0.1901  0.1078
11267TIP3    H155292   6.238   4.208  12.527 -1.6706 -2.1078  0.5616
11267TIP3    H255293   6.192   4.105  12.427 -0.3801 -0.1627 -2.1437
11268TIP3   OH255294   2.057   2.645   5.694  0.3052  0.8058 -0.1589
11268TIP3    H155295   2.044   2.566   5.641 -0.0998  0.2622  0.7288
11268TIP3    H255296   2.102   2.706   5.635  3.5280 -1.1625  0.0038
11269TIP3   OH255297   0.412   2.970   3.284  0.2030  0.1423  0.0551
11269TIP3    H155298   0.454   3.043   3.330 -1.1009  0.2728  1.1148
11269TIP3    H255299   0.382   3.008   3.202 -0.3399  0.7831  0.5403
11270TIP3   OH255300   0.239   2.928   4.676  0.3842 -0.4745  0.3132
11270TIP3    H155301   0.295   2.922   4.599  0.9026  0.6335  0.5881
11270TIP3    H255302   0.265   2.853   4.730  2.2400  0.4742  0.8291
11271TIP3   OH255303   5.847   1.953   2.995 -0.0405 -0.2716  0.5352
11271TIP3    H155304   5.863   2.030   2.940 -0.7226 -1.4815 -1.4430
11271TIP3    H255305   5.770   1.911   2.956  1.7783 -3.3477 -0.0996
11272TIP3   OH255306   2.330   3.068   2.423 -0.0529  0.1099  0.8434
11272TIP3    H155307   2.261   3.101   2.364  1.1672  1.6230  0.1952
11272TIP3    H255308   2.349   3.140   2.482  1.7043  0.1251  0.3253
11273TIP3   OH255309   0.680   5.425   2.883  0.0647 -0.5613 -0.0605
11273TIP3    H155310   0.690   5.510   2.840  2.5846 -0.0243  1.3747
11273TIP3    H255311   0.763   5.380   2.867  0.0709 -1.3804  1.9825
11274TIP3   OH255312   2.065   2.185   5.140  0.0600  0.0741 -0.3781
11274TIP3    H155313   2.074   2.102   5.094  1.1642  0.9156 -1.8172
11274TIP3    H255314   1.994   2.230   5.094  0.1891  0.3403 -0.3199
11275TIP3   OH255315   6.250   6.485  15.915  0.0704 -0.7649 -0.5782
11275TIP3    H155316   6.296   6.483  15.831  1.3683 -0.2922  0.0907
11275TIP3    H255317   6.295   6.419  15.968 -0.2206 -0.5130 -0.0080
11276TIP3   OH255318   4.960   0.752  11.261 -0.2307 -0.8645 -0.4777
11276TIP3    H155319   5.005   0.745  11.346 -1.0327 -1.7717 -0.1099
11276TIP3    H255320   5.022   0.714  11.199  0.8259  0.7936 -0.5093
11277TIP3   OH255321   6.073   2.192   5.933 -0.1270  0.4442 -0.0620
11277TIP3    H155322   5.996   2.189   5.876 -0.4086 -0.9623  0.3541
11277TIP3    H255323   6.144   2.157   5.878  0.1983  1.5744 -0.3881
11278TIP3   OH255324   2.812   3.660  13.800 -0.0359  0.4830  0.0885
11278TIP3    H155325   2.793   3.597  13.870 -2.6293 -0.4791 -1.3776
11278TIP3    H255326   2.881   3.618  13.748  0.8256  0.5344  1.1445
11279TIP3   OH255327   2.040   0.144   5.166  0.7049  0.3030  0.0707
11279TIP3    H155328   1.951   0.149   5.131  0.3353 -0.2181  0.9005
11279TIP3    H255329   2.087   0.086   5.106  0.2684 -0.0431  0.0611
11280TIP3   OH255330   5.054   1.342  14.670 -0.0829  0.0064  0.0827
11280TIP3    H155331   5.119   1.280  14.704 -0.3447 -0.2016  0.2067
11280TIP3    H255332   4.994   1.356  14.743 -0.1018  0.3024  0.0112
11281TIP3   OH255333   6.723   3.955   1.666  0.2848 -0.2779  0.7028
11281TIP3    H155334   6.635   3.917   1.674  0.1122  0.1839  1.0045
11281TIP3    H255335   6.711   4.034   1.614  0.2696  0.6236  2.0443
11282TIP3   OH255336   1.815   6.202  12.471  0.3177 -0.1227  0.1065
11282TIP3    H155337   1.901   6.242  12.483  0.6776 -0.7942 -0.1813
11282TIP3    H255338   1.760   6.242  12.538  1.0135 -0.1411  0.7031
11283TIP3   OH255339   3.046   3.701  13.516 -0.3605 -0.5057 -0.5083
11283TIP3    H155340   3.036   3.622  13.570  0.1109 -0.5533 -0.4816
11283TIP3    H255341   3.058   3.772  13.579  0.6080 -0.6217 -0.5446
11284TIP3   OH255342   2.076   6.390  11.478 -0.1969 -0.1738  0.2495
11284TIP3    H155343   2.053   6.471  11.431 -0.8755 -1.0142 -0.9190
11284TIP3    H255344   2.033   6.321  11.428  2.8330 -1.6074 -0.5938
11285TIP3   OH255345   4.301   2.867   1.005 -0.4788 -0.2074 -0.2895
11285TIP3    H155346   4.308   2.952   1.049  0.3350  0.4467 -1.6021
11285TIP3    H255347   4.288   2.804   1.076 -0.7787  0.9714  0.7369
11286TIP3   OH255348   4.966   6.418  12.848 -0.8353  0.0453  0.5248
11286TIP3    H155349   4.887   6.467  12.873 -0.7997  1.5292 -1.9705
11286TIP3    H255350   4.934   6.331  12.827 -1.9415  0.7220 -0.7968
11287TIP3   OH255351   4.350   5.101   2.346 -0.0075 -0.2249  0.3675
11287TIP3    H155352   4.258   5.079   2.362 -0.3322  2.3114  2.9327
11287TIP3    H255353   4.396   5.065   2.421  0.9594 -0.6943 -0.4440
11288TIP3   OH255354   3.118   0.404  16.670 -0.3984 -0.6500 -0.0546
11288TIP3    H155355   3.082   0.373  16.753  1.7418 -0.2661  1.0785
11288TIP3    H255356   3.190   0.462  16.695  0.8875 -1.2310 -2.1613
11289TIP3   OH255357   5.659   6.360   0.978 -0.6666  0.1257 -0.0990
11289TIP3    H155358   5.725   6.429   0.973 -1.9472  1.8393  3.4202
11289TIP3    H255359   5.580   6.399   0.940 -1.0467  0.1330  0.6792
11290TIP3   OH255360   6.068   4.357   0.842  0.1570  0.1683 -0.1460
11290TIP3    H155361   6.132   4.287   0.827  0.7495 -0.0223  2.7289
11290TIP3    H255362   6.108   4.434   0.801  0.3211 -0.7586 -1.8266
11291TIP3   OH255363   1.764   5.866   2.236  0.4576  0.2525  0.3298
11291TIP3    H155364   1.743   5.863   2.330  0.7804 -0.0688  0.3953
11291TIP3    H255365   1.790   5.776   2.215 -1.0269 -0.0301 -0.3964
11292TIP3   OH255366   4.802   5.543  14.830 -0.1074 -0.0209 -0.8264
11292TIP3    H155367   4.720   5.580  14.797 -0.0437  0.8814 -0.0115
11292TIP3    H255368   4.870   5.592  14.784 -0.0023  1.8687  1.1865
11293TIP3   OH255369   2.961   4.086  14.058 -0.0147 -0.2387  0.5487
11293TIP3    H155370   2.930   4.170  14.091  1.1946 -0.0752  1.3124
11293TIP3    H255371   2.975   4.100  13.964  1.8076  0.9370  0.9564
11294TIP3   OH255372   4.336   0.873  14.317 -0.2302  0.0960  0.2536
11294TIP3    H155373   4.400   0.845  14.381  0.1157  0.7911  0.2167
11294TIP3    H255374   4.359   0.825  14.237  0.1121  0.1920  0.2963
11295TIP3   OH255375   5.398   6.118   6.250  0.6054  0.6577 -0.0190
11295TIP3    H155376   5.358   6.204   6.245  0.3887  0.5453 -0.2318
11295TIP3    H255377   5.472   6.121   6.189  0.6331  0.7094  0.0171
11296TIP3   OH255378   2.468   5.824   5.716  0.2016 -0.4360 -0.6234
11296TIP3    H155379   2.499   5.755   5.774 -1.4058 -0.2392  0.5256
11296TIP3    H255380   2.522   5.900   5.738  0.4825 -0.7203 -0.3144
11297TIP3   OH255381   0.496   5.989   4.391  0.5214 -0.7581  0.5574
11297TIP3    H155382   0.460   5.923   4.451 -0.4803 -1.0653 -0.3565
11297TIP3    H255383   0.430   6.058   4.389 -0.6801 -1.8751 -2.0770
11298TIP3   OH255384   4.321   6.599   0.249  0.4795 -0.5268 -0.2177
11298TIP3    H155385   4.362   6.524   0.293 -1.4693 -1.1612  0.6016
11298TIP3    H255386   4.251   6.626   0.308  1.1048  1.9744 -0.5134
11299TIP3   OH255387   3.414   6.035  15.563  0.1533 -0.4843 -0.1917
11299TIP3    H155388   3.449   6.124  15.566 -0.9909  0.2000 -3.2047
11299TIP3    H255389   3.466   5.990  15.497 -1.0264 -1.1911 -0.6797
11300TIP3   OH255390   1.708   0.961  10.691  0.0125 -0.3185 -0.4004
11300TIP3    H155391   1.632   0.993  10.643 -0.1421 -0.1377 -0.0349
11300TIP3    H255392   1.713   0.868  10.669 -0.5680 -0.4278 -0.0739
11301TIP3   OH255393   1.877   0.885  11.919 -0.7330 -0.1154  0.2748
11301TIP3    H155394   1.787   0.877  11.949  0.4681 -2.2232  4.0572
11301TIP3    H255395   1.914   0.797  11.930  2.3576  1.1481  1.1935
11302TIP3   OH255396   1.150   0.242  11.772  0.1427 -0.0107 -0.4970
11302TIP3    H155397   1.158   0.230  11.867 -1.3970  0.2010 -0.3173
11302TIP3    H255398   1.126   0.156  11.738  0.7357 -0.0968 -0.7019
11303TIP3   OH255399   6.197   5.887  16.960  0.2453  0.2431  0.2077
11303TIP3    H155400   6.179   5.838  17.041  1.0903 -1.2852 -0.4782
11303TIP3    H255401   6.211   5.819  16.894  0.0798  1.4547 -1.1240
11304TIP3   OH255402   5.893   0.146  14.416 -0.4096  0.9813 -0.0050
11304TIP3    H155403   5.889   0.050  14.409 -1.7312  0.7016  3.0522
11304TIP3    H255404   5.948   0.173  14.342 -1.1865 -1.9759 -1.8392
11305TIP3   OH255405   2.237   4.182  14.016  0.0435  0.0713  0.1014
11305TIP3    H155406   2.159   4.176  14.072  0.5057  0.4042  0.7955
11305TIP3    H255407   2.232   4.104  13.960 -0.9608  0.2612 -0.0980
11306TIP3   OH255408   4.844   1.152  13.961  0.0313 -0.0761  0.2259
11306TIP3    H155409   4.757   1.154  14.002  0.4582 -0.7484  1.2054
11306TIP3    H255410   4.900   1.113  14.028  1.0814  0.3113 -0.4194
11307TIP3   OH255411   6.393   1.520   1.577  0.1769 -0.1670 -0.0291
11307TIP3    H155412   6.365   1.437   1.539 -0.2188 -0.1161  0.1467
11307TIP3    H255413   6.458   1.495   1.643 -0.9593 -0.4629  1.0142
11308TIP3   OH255414   4.019   0.878   4.405  0.5880 -0.1333  0.1849
11308TIP3    H155415   4.006   0.923   4.321  1.6155 -0.6129 -0.2439
11308TIP3    H255416   3.953   0.808   4.405 -1.1387  1.4165  0.9323
11309TIP3   OH255417   2.321   2.616  13.033  0.4551  0.2937  0.0168
11309TIP3    H155418   2.283   2.649  13.114 -0.3067  2.9282 -1.3268
11309TIP3    H255419   2.256   2.554  12.999 -0.2995  0.9538  0.2549
11310TIP3   OH255420   4.297   5.760   4.761  0.2692 -0.2479  0.5926
11310TIP3    H155421   4.283   5.666   4.774 -1.7002 -0.0116  0.5533
11310TIP3    H255422   4.327   5.767   4.671 -0.2364 -0.8133  0.3682
11311TIP3   OH255423   3.363   3.305   3.618  0.4722 -0.2188 -0.4812
11311TIP3    H155424   3.334   3.395   3.637 -1.2609 -0.0891 -3.2482
11311TIP3    H255425   3.418   3.282   3.693 -2.5186  1.5359  2.5765
11312TIP3   OH255426   1.873   5.407   0.404  0.3488 -0.3336  0.3329
11312TIP3    H155427   1.898   5.430   0.314  1.0141  1.4179  0.9315
11312TIP3    H255428   1.787   5.446   0.415 -1.4266 -3.5807 -0.6381
11313TIP3   OH255429   4.887   1.917  10.797  0.1614 -0.1383  0.1861
11313TIP3    H155430   4.891   1.947  10.706  1.5450  1.5234  0.7376
11313TIP3    H255431   4.925   1.829  10.794 -1.9755 -1.0945 -1.1517
11314TIP3   OH255432   3.755   2.268   0.500  0.3556  0.3026  0.4571
11314TIP3    H155433   3.748   2.175   0.482 -0.4678  0.3706  0.3764
11314TIP3    H255434   3.755   2.310   0.414 -1.4084  0.4898  0.5037
11315TIP3   OH255435   3.542   0.592   6.408 -0.5872 -0.3857 -0.3018
11315TIP3    H155436   3.448   0.577   6.397 -0.3184 -1.2143 -1.6736
11315TIP3    H255437   3.582   0.544   6.336  0.8663  0.3564 -0.0127
11316TIP3   OH255438   3.323   6.362  14.131  0.4749 -0.3180  0.2910
11316TIP3    H155439   3.325   6.268  14.111 -0.7041 -0.0101 -1.4821
11316TIP3    H255440   3.239   6.376  14.174  1.3304 -0.2994  2.0319
11317TIP3   OH255441   3.277   6.431  16.171 -0.4487  0.2164 -0.1785
11317TIP3    H155442   3.295   6.517  16.132  1.0953  1.1333  2.2940
11317TIP3    H255443   3.359   6.383  16.162 -0.2464  0.2335  1.2734
11318TIP3   OH255444   4.533   3.660   0.292 -0.4179  0.5552 -0.7786
11318TIP3    H155445   4.580   3.690   0.215  0.2371  0.5454 -0.3922
11318TIP3    H255446   4.595   3.672   0.364 -0.0036 -1.9507 -0.6207
11319TIP3   OH255447   6.713   4.913  15.287 -0.6617 -0.0059 -0.1271
11319TIP3    H155448   6.807   4.926  15.303 -0.3828 -1.6666 -0.2370
11319TIP3    H255449   6.685   4.854  15.357 -1.5708  0.2227 -0.2806
11320TIP3   OH255450   2.646   3.078  12.455 -0.4003  0.1275 -0.3892
11320TIP3    H155451   2.611   3.038  12.534 -1.2290  0.7963 -0.4047
11320TIP3    H255452   2.741   3.068  12.464 -0.5662 -2.4131 -0.7197
11321TIP3   OH255453   2.986   0.819   3.806 -0.3963  0.0882  0.0726
11321TIP3    H155454   2.908   0.800   3.755 -0.0130 -1.4576  0.0181
11321TIP3    H255455   3.058   0.781   3.756 -0.1014 -2.3150  2.1160
11322TIP3   OH255456   0.120   5.801  16.169 -0.3371 -0.5519  0.1675
11322TIP3    H155457   0.195   5.816  16.111 -1.0231  0.9995 -0.3663
11322TIP3    H255458   0.074   5.885  16.172 -2.5952 -1.6879 -0.2568
11323TIP3   OH255459   3.163   5.910  11.444  0.4843 -0.4081 -0.1373
11323TIP3    H155460   3.256   5.912  11.466  0.8533 -0.2639 -1.6080
11323TIP3    H255461   3.156   5.842  11.377 -0.1627  0.7396 -1.2725
11324TIP3   OH255462   1.490   2.491   5.086  0.7121  0.1761 -0.0260
11324TIP3    H155463   1.580   2.513   5.110  0.1788  1.2511  1.1029
11324TIP3    H255464   1.484   2.396   5.101  0.9550  0.4853  2.3620
11325TIP3   OH255465   1.996   0.504   4.890 -0.4577  0.1744 -0.1486
11325TIP3    H155466   2.065   0.443   4.863  0.4723  0.9428  0.4245
11325TIP3    H255467   2.041   0.588   4.898 -1.4602  0.6802  0.2963
11326TIP3   OH255468   2.088   3.946   1.794  0.6248 -0.4097  0.3208
11326TIP3    H155469   2.106   3.863   1.749  2.7896  0.4027 -0.4409
11326TIP3    H255470   2.156   4.006   1.761 -1.0101  1.7414  0.6733
11327TIP3   OH255471   6.153   6.198  13.322 -0.3094  0.4796 -0.2148
11327TIP3    H155472   6.058   6.201  13.315 -0.5706 -1.4708  1.5776
11327TIP3    H255473   6.181   6.151  13.244 -0.9698 -0.3270  0.0215
11328TIP3   OH255474   5.773   0.046   4.485 -0.3073 -0.2354 -0.1843
11328TIP3    H155475   5.867   0.061   4.498 -0.9112  2.1879  2.3097
11328TIP3    H255476   5.738   0.036   4.574 -2.4977 -0.4358 -1.0120
11329TIP3   OH255477   6.596   1.550   2.206  1.0218  0.5152  0.1488
11329TIP3    H155478   6.539   1.566   2.280  1.9719  0.2532  0.9652
11329TIP3    H255479   6.571   1.463   2.174  0.2788  0.8364 -0.1633
11330TIP3   OH255480   2.853   2.809   5.021 -0.3504  0.6570  0.5652
11330TIP3    H155481   2.799   2.758   4.961  1.2023 -0.5996  0.1565
11330TIP3    H255482   2.791   2.864   5.069 -2.0483 -1.1414  0.5536
11331TIP3   OH255483   5.615   1.700   4.659  0.0562 -0.3431 -0.1975
11331TIP3    H155484   5.644   1.622   4.612  0.6548  0.2475 -0.8327
11331TIP3    H255485   5.694   1.734   4.701  0.1150  0.6919 -1.0817
11332TIP3   OH255486   1.387   5.494   0.111  0.0051 -0.1838 -0.2553
11332TIP3    H155487   1.307   5.496   0.164 -0.5707 -0.9867 -1.0488
11332TIP3    H255488   1.358   5.459   0.027  0.5587  2.5205 -1.6783
11333TIP3   OH255489   4.857   1.986  15.659  0.1831 -0.3327  0.1139
11333TIP3    H155490   4.893   1.951  15.740 -0.3276  0.3532  0.6521
11333TIP3    H255491   4.878   2.079  15.661 -1.4902  0.0696  0.3999
11334TIP3   OH255492   5.308   0.272   5.162  0.1667 -0.3801  0.3461
11334TIP3    H155493   5.280   0.354   5.120  1.0380  0.0103  0.5179
11334TIP3    H255494   5.236   0.251   5.223  1.1615  1.8025  2.4362
11335TIP3   OH255495   6.364   1.512  11.995  0.6334  0.3404  0.1961
11335TIP3    H155496   6.367   1.547  12.084  0.3044  0.0788  0.3158
11335TIP3    H255497   6.290   1.556  11.954  1.4369  1.2512 -0.2998
11336TIP3   OH255498   6.395   0.126  12.439 -0.3367 -0.3755  0.2820
11336TIP3    H155499   6.423   0.185  12.509  1.0379  1.9658 -2.0766
11336TIP3    H255500   6.475   0.080  12.413 -0.5781 -0.4044 -0.4470
11337TIP3   OH255501   0.016   5.210  13.804 -0.0690  0.6465 -0.4517
11337TIP3    H155502  -0.003   5.291  13.756 -0.2550 -0.0226 -1.5678
11337TIP3    H255503  -0.039   5.144  13.760  0.5652 -0.2042  0.0152
11338TIP3   OH255504   0.715   4.376   2.561  0.3803  0.2523  0.1223
11338TIP3    H155505   0.703   4.448   2.623 -0.1225 -1.8275  2.5906
11338TIP3    H255506   0.639   4.380   2.503 -0.3670  0.8690  1.1215
11339TIP3   OH255507   3.224   4.855   0.127 -0.3122  0.2589  0.6428
11339TIP3    H155508   3.170   4.795   0.177 -0.3804  1.1527  1.6944
11339TIP3    H255509   3.268   4.801   0.062 -0.7727 -0.8244  1.2196
11340TIP3   OH255510   1.599   5.263  14.849 -0.3206 -0.4163  0.6528
11340TIP3    H155511   1.539   5.197  14.884 -2.2773  1.5801  1.3007
11340TIP3    H255512   1.579   5.342  14.899 -0.4513  1.5551 -2.2562
11341TIP3   OH255513   3.278   0.863   4.275  0.1372 -0.2210 -0.2575
11341TIP3    H155514   3.281   0.908   4.190  1.7770  2.0120  0.8757
11341TIP3    H255515   3.195   0.892   4.314  0.5683  0.8223 -0.0821
11342TIP3   OH255516   5.259   0.305  12.322  0.2082  0.1566 -0.2881
11342TIP3    H155517   5.308   0.226  12.300  1.5013  0.9551 -0.3540
11342TIP3    H255518   5.242   0.347  12.237 -0.1265  0.1473 -0.2253
11343TIP3   OH255519   0.615   3.224   5.268 -0.8717  0.3077 -0.2612
11343TIP3    H155520   0.553   3.289   5.301 -1.4008 -0.8470  1.1444
11343TIP3    H255521   0.696   3.242   5.316 -1.2736 -0.5699  0.8052
11344TIP3   OH255522   2.513   5.947   0.494  0.6394 -0.3379  0.1534
11344TIP3    H155523   2.540   6.016   0.433  1.1615  0.5553  1.3598
11344TIP3    H255524   2.595   5.903   0.517  0.3049 -1.4376 -0.6500
11345TIP3   OH255525   1.068   4.290  14.819  0.8534  0.4363 -0.1993
11345TIP3    H155526   1.107   4.378  14.820 -3.6957  2.7787  0.8202
11345TIP3    H255527   1.016   4.287  14.900 -0.6068 -2.4808 -1.1245
11346TIP3   OH255528   5.184   2.028   0.484  0.4122  0.5332  0.2161
11346TIP3    H155529   5.195   2.116   0.448 -0.0984  0.3028 -0.5384
11346TIP3    H255530   5.089   2.018   0.492  0.4877  0.2201  0.7270
11347TIP3   OH255531   4.238   0.450  13.216  0.0168  0.2052 -0.2715
11347TIP3    H155532   4.283   0.367  13.233  0.0757  0.0497 -1.1388
11347TIP3    H255533   4.293   0.494  13.151 -0.0020  0.9375  0.2039
11348TIP3   OH255534   3.563   6.614   5.365 -0.7531  0.5878  0.5214
11348TIP3    H155535   3.584   6.574   5.450  0.1072  1.0437  0.5421
11348TIP3    H255536   3.552   6.707   5.384  1.7866  1.1213 -0.1630
11349TIP3   OH255537   1.347   0.263   4.579  0.0938 -0.1524 -0.3864
11349TIP3    H155538   1.419   0.314   4.616  0.3037 -0.8551  0.1957
11349TIP3    H255539   1.286   0.329   4.545  0.2392  0.5018  0.5640
11350TIP3   OH255540   1.050   3.718   3.387  0.3557 -0.1253 -0.4132
11350TIP3    H155541   1.083   3.768   3.462  0.3023  0.9870 -1.1029
11350TIP3    H255542   1.093   3.757   3.311  1.7016 -2.3529 -0.8500
11351TIP3   OH255543   3.166   5.192  16.014  0.2702  0.4888  0.1809
11351TIP3    H155544   3.189   5.154  16.099  2.0179  0.2493 -0.3580
11351TIP3    H255545   3.090   5.247  16.032  0.0054 -0.3101  1.7021
11352TIP3   OH255546   6.609   5.144  14.063 -0.8858  0.2189  0.4569
11352TIP3    H155547   6.533   5.143  14.121 -0.7124  2.2568  0.8065
11352TIP3    H255548   6.677   5.189  14.114 -0.3059  0.8584 -0.8263
11353TIP3   OH255549   5.108   5.510  12.880  0.1524 -0.3997 -0.2564
11353TIP3    H155550   5.103   5.447  12.951 -1.4685 -0.9992 -0.8527
11353TIP3    H255551   5.032   5.568  12.894  2.0865  2.0688  0.8123
11354TIP3   OH255552   3.358   1.588   5.387 -0.3634  0.4559 -0.6075
11354TIP3    H155553   3.421   1.650   5.350  1.0121 -0.9373 -0.6882
11354TIP3    H255554   3.408   1.537   5.450 -1.7772  0.2374  0.3957
11355TIP3   OH255555   5.968   3.177  13.477  0.8842 -0.2121  0.7883
11355TIP3    H155556   6.042   3.175  13.416 -1.2786 -0.7269 -2.0345
11355TIP3    H255557   5.897   3.217  13.426 -1.3206 -1.4726  2.7079
11356TIP3   OH255558   6.326   3.825   0.934  0.0206  0.2523  0.0691
11356TIP3    H155559   6.376   3.868   1.004  0.7531 -1.1695  0.4688
11356TIP3    H255560   6.382   3.833   0.856  0.0845  0.1804  0.1068
11357TIP3   OH255561   2.574   0.097   1.975  0.6469 -0.6337  1.0951
11357TIP3    H155562   2.618   0.124   1.894  0.8635 -2.6985  0.4707
11357TIP3    H255563   2.644   0.094   2.040  0.9212 -1.1682  0.7858
11358TIP3   OH255564   1.937   1.000   1.059  0.0702  0.2003  0.4099
11358TIP3    H155565   1.975   1.077   1.101  0.8337  0.8082 -1.3059
11358TIP3    H255566   1.886   1.035   0.986 -1.8859 -0.7702  1.2537
11359TIP3   OH255567   4.113   5.144   3.767 -0.1112  0.1492  0.8603
11359TIP3    H155568   4.135   5.144   3.674 -2.7350 -0.2585  0.1697
11359TIP3    H255569   4.185   5.192   3.808  0.7018  1.0970 -1.4781
11360TIP3   OH255570   1.703   2.153   3.056  0.6065  0.2589 -0.0837
11360TIP3    H155571   1.777   2.213   3.054 -0.1125  1.1840  0.1707
11360TIP3    H255572   1.699   2.123   3.147  0.1890  0.8428  0.0971
11361TIP3   OH255573   4.467   3.208  13.661  0.1522 -0.1409 -0.1707
11361TIP3    H155574   4.372   3.199  13.664  0.1611 -0.4094 -0.7176
11361TIP3    H255575   4.495   3.153  13.588  0.5701  1.2815 -1.1168
11362TIP3   OH255576   5.479   0.063   5.862 -0.0610 -0.8164  0.5663
11362TIP3    H155577   5.391   0.090   5.888 -0.5566 -1.9197  0.1044
11362TIP3    H255578   5.491  -0.022   5.903  0.7379 -0.7422  0.4987
11363TIP3   OH255579   6.054   6.522   3.809 -0.4748 -0.0321 -0.3047
11363TIP3    H155580   6.030   6.481   3.726  1.6455 -0.2063 -0.8841
11363TIP3    H255581   6.128   6.579   3.788  0.5448 -0.5793  1.5504
11364TIP3   OH255582   1.006   2.713  15.103  0.4167  0.0690  0.1191
11364TIP3    H155583   0.936   2.654  15.129  1.6840 -2.2809 -1.4042
11364TIP3    H255584   1.084   2.658  15.101  1.7688  1.9025 -0.9927
11365TIP3   OH255585   6.679   3.361  15.935 -0.3661  0.0637  0.5055
11365TIP3    H155586   6.766   3.374  15.898 -1.3169  1.4800 -1.4046
11365TIP3    H255587   6.690   3.380  16.028  1.3679  0.2105  0.3112
11366TIP3   OH255588   3.239   2.491   0.141  0.1158  0.1033 -0.8383
11366TIP3    H155589   3.323   2.470   0.182 -0.4704 -2.9171 -0.9704
11366TIP3    H255590   3.176   2.432   0.183 -2.0664  2.4189 -0.5842
11367TIP3   OH255591   4.638   2.002   2.917 -0.5824 -0.3002 -0.3567
11367TIP3    H155592   4.717   1.989   2.970 -0.1699 -1.6226 -1.2722
11367TIP3    H255593   4.664   2.068   2.852  0.0899 -1.4254 -1.2581
11368TIP3   OH255594   6.709   3.403  12.767  0.3999 -0.0573  0.3573
11368TIP3    H155595   6.795   3.444  12.754 -0.6637  1.8127 -1.2433
11368TIP3    H255596   6.730   3.317  12.805  3.0534 -0.2492 -1.2438
11369TIP3   OH255597   4.254   0.983   3.714  0.0359  0.4173 -0.0194
11369TIP3    H155598   4.227   1.069   3.683 -0.6702  0.0181 -0.5497
11369TIP3    H255599   4.350   0.985   3.711  0.0464  1.3410  0.4356
11370TIP3   OH255600   5.487   4.023  15.577 -0.3535  0.4096  0.0975
11370TIP3    H155601   5.504   3.932  15.601 -0.9058 -0.5267 -2.6689
11370TIP3    H255602   5.396   4.038  15.604 -0.5295 -0.1499 -0.1670
11371TIP3   OH255603   6.339   2.912   2.149 -0.3974 -0.0576 -0.9382
11371TIP3    H155604   6.313   3.001   2.172  1.2965  0.1795  0.2006
11371TIP3    H255605   6.297   2.857   2.215  2.4426  0.4028  1.4472
11372TIP3   OH255606   5.901   3.424  13.971  0.4023 -0.4691 -0.7905
11372TIP3    H155607   5.810   3.414  13.996  0.6850 -3.5349 -0.7194
11372TIP3    H255608   5.944   3.459  14.049 -0.8013  2.1151 -1.1757
11373TIP3   OH255609   4.731   2.871   2.195  0.2425  0.8584 -0.0537
11373TIP3    H155610   4.764   2.855   2.283  0.3939  0.0894 -0.2454
11373TIP3    H255611   4.637   2.852   2.201  0.6799 -1.9455 -0.6747
11374TIP3   OH255612   2.707   2.144  12.760 -0.1941  0.0724  0.0805
11374TIP3    H155613   2.714   2.053  12.733 -1.0177 -0.2444  0.8927
11374TIP3    H255614   2.798   2.175  12.763  0.0296 -0.3665 -1.3190
11375TIP3   OH255615   5.563   0.962   6.599  1.2375  0.3184 -0.3794
11375TIP3    H155616   5.603   0.891   6.550  0.9929 -1.0469  1.3245
11375TIP3    H255617   5.496   0.920   6.653  1.4497  1.7525  1.0830
11376TIP3   OH255618   4.409   3.441   0.405  0.2927  0.1386  0.0242
11376TIP3    H155619   4.317   3.444   0.380  0.5778  2.9408 -1.0677
11376TIP3    H255620   4.443   3.527   0.382  3.0832 -0.6128  0.9050
11377TIP3   OH255621   1.235   5.085  14.694 -0.2225 -0.2908  0.6559
11377TIP3    H155622   1.325   5.066  14.671  0.0480 -0.1539  1.5688
11377TIP3    H255623   1.238   5.171  14.734 -1.1360  0.8554 -1.5542
11378TIP3   OH255624   3.800   3.851  17.254  0.0335  0.0823 -1.1302
11378TIP3    H155625   3.728   3.894  17.207  0.2306  1.0824 -0.5581
11378TIP3    H255626   3.877   3.867  17.199 -0.0842 -0.5512 -1.4905
11379TIP3   OH255627   4.420   0.380   2.971  0.2262  0.1180  0.3229
11379TIP3    H155628   4.460   0.392   3.058  0.4020 -0.5474  0.3425
11379TIP3    H255629   4.490   0.341   2.918 -0.0872 -0.1081  0.0703
11380TIP3   OH255630   0.430   2.119  14.779 -0.7119 -0.6344 -0.3606
11380TIP3    H155631   0.348   2.097  14.735 -0.1012 -0.3156 -1.6925
11380TIP3    H255632   0.473   2.034  14.794 -1.1031 -0.7720 -0.0112
11381TIP3   OH255633   1.608   3.706  12.178  0.2978  0.3559 -0.2101
11381TIP3    H155634   1.637   3.616  12.192 -0.6907  0.3706  2.4369
11381TIP3    H255635   1.688   3.755  12.161  1.1146 -0.6515  0.6037
11382TIP3   OH255636   0.116   0.112  14.917 -0.3463  0.0582  0.0671
11382TIP3    H155637   0.074   0.191  14.884 -0.7981  0.0578  0.6185
11382TIP3    H255638   0.152   0.070  14.840  1.5900  1.7639 -0.0418
11383TIP3   OH255639   4.805   3.170   6.237 -0.1738 -0.2645 -0.0939
11383TIP3    H155640   4.882   3.186   6.292 -0.7019  1.9287  0.1150
11383TIP3    H255641   4.839   3.121   6.162  1.6555  1.3522 -0.4181
11384TIP3   OH255642   6.735   1.985   6.606 -0.0727  0.0335 -0.7369
11384TIP3    H155643   6.827   1.985   6.633 -0.0236 -0.0288 -0.9054
11384TIP3    H255644   6.716   2.077   6.588 -0.3695  0.2189  0.4021
11385TIP3   OH255645   5.657   6.245  15.858  0.1841  0.4920  0.4260
11385TIP3    H155646   5.704   6.273  15.779  1.0203  0.5488  0.9309
11385TIP3    H255647   5.608   6.167  15.830  1.7249 -0.4552  0.2118
11386TIP3   OH255648   6.613   2.942   5.344  0.0896 -1.2461 -0.3357
11386TIP3    H155649   6.532   2.918   5.298  0.1705 -1.6305 -0.2788
11386TIP3    H255650   6.657   2.859   5.361  0.9286 -0.9864 -1.1464
11387TIP3   OH255651   1.715   3.334  13.183  0.8893  0.3506  0.2321
11387TIP3    H155652   1.658   3.265  13.218  0.2075  0.6572 -0.2393
11387TIP3    H255653   1.682   3.414  13.223  0.5921  0.6050 -0.4987
11388TIP3   OH255654   5.157   6.452   5.432 -0.4612 -0.2920 -0.2743
11388TIP3    H155655   5.249   6.471   5.452 -0.0002 -1.2410 -1.4015
11388TIP3    H255656   5.141   6.367   5.472 -1.4153  0.6509  1.4741
11389TIP3   OH255657   3.390   6.329   3.305 -0.0224 -0.4702 -0.3733
11389TIP3    H155658   3.321   6.364   3.360 -1.3298 -0.6014 -1.8641
11389TIP3    H255659   3.443   6.275   3.364 -0.7605  0.1965  0.9381
11390TIP3   OH255660   1.970   1.871  17.036 -0.5970  0.3714  0.0107
11390TIP3    H155661   1.926   1.801  16.987  0.1696 -0.5215  0.5929
11390TIP3    H255662   1.936   1.864  17.125  1.2606 -0.8497  0.6805
11391TIP3   OH255663   0.648   4.925  15.759 -0.3518  0.1310  0.0277
11391TIP3    H155664   0.643   4.913  15.854 -1.9064  1.9716  0.2531
11391TIP3    H255665   0.662   5.019  15.748  1.4598 -0.2842 -1.5816
11392TIP3   OH255666   5.487   3.991  11.225 -0.5655  0.2346  0.1851
11392TIP3    H155667   5.527   3.965  11.142 -0.4326  0.0939  0.2924
11392TIP3    H255668   5.452   4.078  11.209 -0.4488  0.2494  0.0121
11393TIP3   OH255669   2.392   1.893  11.388 -0.8667  0.5719  0.5235
11393TIP3    H155670   2.352   1.980  11.379 -0.8142  0.4301 -1.6042
11393TIP3    H255671   2.416   1.868  11.299  0.4000 -1.0493  1.2644
11394TIP3   OH255672   3.799   5.883  15.476  0.3803  0.6355  1.1665
11394TIP3    H155673   3.796   5.926  15.561  0.9682 -0.7089  1.8997
11394TIP3    H255674   3.719   5.830  15.474 -0.0320  1.2635  0.5313
11395TIP3   OH255675   5.586   1.017   2.754 -0.3665 -0.4096 -0.2814
11395TIP3    H155676   5.495   1.044   2.769 -0.0808  0.7668 -0.5527
11395TIP3    H255677   5.616   1.074   2.682  0.7569 -0.3763  0.1920
11396TIP3   OH255678   4.360   6.693  12.728 -0.8164  0.1527 -0.3523
11396TIP3    H155679   4.394   6.757  12.790 -0.0367 -1.0916  0.5591
11396TIP3    H255680   4.309   6.744  12.665  1.1752  1.8803 -0.6792
11397TIP3   OH255681   6.496   3.016  14.573  0.4721  0.4284  0.5879
11397TIP3    H155682   6.558   2.974  14.513  0.5866 -0.2169  1.1565
11397TIP3    H255683   6.423   3.041  14.517  0.6793  0.0416  0.1344
11398TIP3   OH255684   2.767   0.725  14.758  0.5009  0.6896 -0.2538
11398TIP3    H155685   2.836   0.662  14.778  1.1721  1.5788  0.3563
11398TIP3    H255686   2.749   0.768  14.841  0.4686  1.6842 -0.7542
11399TIP3   OH255687   1.080   6.547  16.740  0.1329  0.3193  0.1769
11399TIP3    H155688   1.007   6.502  16.783 -0.9829  0.2065 -1.7291
11399TIP3    H255689   1.062   6.640  16.753 -1.3709  0.3519 -1.7771
11400TIP3   OH255690   4.893   4.548   3.568  0.2752  0.8898  0.3215
11400TIP3    H155691   4.898   4.640   3.591  0.4550  1.1316 -0.6456
11400TIP3    H255692   4.801   4.525   3.580  0.2728  1.1297  0.7785
11401TIP3   OH255693   0.698   4.460   3.592 -0.8324 -0.3044 -0.2216
11401TIP3    H155694   0.742   4.478   3.509  0.6610 -0.7266  0.4562
11401TIP3    H255695   0.700   4.544   3.639 -1.5789 -0.0941 -0.5491
11402TIP3   OH255696   5.023   6.330  12.463  0.1199 -0.2619 -0.1581
11402TIP3    H155697   4.937   6.366  12.484  0.3135 -0.1466  0.4597
11402TIP3    H255698   5.015   6.236  12.484 -0.2305 -0.4971 -1.2878
11403TIP3   OH255699   4.391   1.685   0.447  0.5412 -0.4124 -0.0721
11403TIP3    H155700   4.377   1.779   0.436  1.3109 -0.2424  0.3459
11403TIP3    H255701   4.303   1.648   0.455  0.1708  0.1043 -1.4892
11404TIP3   OH255702   5.753   3.962   4.873 -0.1857 -0.2948  0.6243
11404TIP3    H155703   5.745   3.903   4.799 -3.4512  0.1908  0.4775
11404TIP3    H255704   5.824   3.924   4.926  0.3436 -2.1904 -1.3024
11405TIP3   OH255705   5.947   4.200  15.827 -0.4062  0.3176 -0.0922
11405TIP3    H155706   5.857   4.229  15.808 -0.0723  1.4008 -0.0367
11405TIP3    H255707   6.001   4.278  15.816  0.7843 -0.6555 -1.7283
11406TIP3   OH255708   3.520   6.224   5.580  0.1392  0.3560  0.3802
11406TIP3    H155709   3.529   6.129   5.573  0.2789  0.1761  2.4044
11406TIP3    H255710   3.584   6.259   5.518  2.0971 -0.9129  1.5712
11407TIP3   OH255711   2.407   5.336   0.254  0.1814 -0.0133  0.2796
11407TIP3    H155712   2.383   5.258   0.304  1.0700  0.3489  1.3089
11407TIP3    H255713   2.335   5.397   0.268 -0.7107 -0.7592 -0.8521
11408TIP3   OH255714   6.259   2.801   1.610 -0.1400 -0.2640 -0.0240
11408TIP3    H155715   6.247   2.818   1.704 -0.2455 -0.1895 -0.0516
11408TIP3    H255716   6.276   2.887   1.572  0.2655 -0.3384 -0.0190
11409TIP3   OH255717   1.617   5.660  16.752 -0.4413 -0.0927 -0.6105
11409TIP3    H155718   1.672   5.653  16.830 -1.4974 -2.7695 -0.0098
11409TIP3    H255719   1.560   5.583  16.755 -1.1532  0.1836 -3.5663
11410TIP3   OH255720   1.919   5.291   3.292 -0.5501 -0.1481 -0.4152
11410TIP3    H155721   1.828   5.289   3.263 -0.7951  0.4182  0.2897
11410TIP3    H255722   1.923   5.364   3.354  0.6713  0.6591 -1.3871
11411TIP3   OH255723   1.793   0.024   1.875  0.1037 -0.2688 -0.9262
11411TIP3    H155724   1.789  -0.044   1.942 -0.4821 -0.1387 -0.8260
11411TIP3    H255725   1.883   0.020   1.843  0.2953 -0.5534 -0.3669
11412TIP3   OH255726   3.261   6.122  16.114 -0.5843  0.0956  0.0337
11412TIP3    H155727   3.248   6.031  16.085  0.7203 -0.5943  1.4317
11412TIP3    H255728   3.187   6.139  16.172 -1.7269  0.5465 -1.4709
11413TIP3   OH255729   2.985   4.361  13.136 -0.0357  0.1699  0.4231
11413TIP3    H155730   2.988   4.266  13.137 -0.4542  0.1502  1.6545
11413TIP3    H255731   3.064   4.388  13.184 -0.0498  0.4438  0.2938
11414TIP3   OH255732   1.790   3.432   2.722 -0.5702  0.1759  0.1727
11414TIP3    H155733   1.815   3.451   2.812 -1.1184 -2.8567  1.0633
11414TIP3    H255734   1.704   3.473   2.712 -0.1360  1.2566  0.7150
11415TIP3   OH255735   5.252   5.597  14.081 -0.5773  0.2054 -0.1699
11415TIP3    H155736   5.308   5.596  14.159 -0.0890  2.1095 -0.4641
11415TIP3    H255737   5.182   5.534  14.102 -0.6668  0.9186  1.9777
11416TIP3   OH255738   2.302   5.186  10.747  0.7161  0.0506  0.9886
11416TIP3    H155739   2.276   5.100  10.781 -2.7645  0.3177 -0.5038
11416TIP3    H255740   2.319   5.171  10.654  1.0824  0.7863  0.9300
11417TIP3   OH255741   3.408   1.031  12.679  0.1538 -0.0166 -0.1241
11417TIP3    H155742   3.408   1.096  12.750 -0.7295  0.8572 -0.9019
11417TIP3    H255743   3.476   1.062  12.620 -1.6981  1.5145 -1.6020
11418TIP3   OH255744   3.874   5.973  15.061  0.1835 -0.2818 -0.4269
11418TIP3    H155745   3.967   5.963  15.046  0.2724  1.4964 -1.2625
11418TIP3    H255746   3.868   6.033  15.135 -0.3204 -1.0330  0.1650
11419TIP3   OH255747   2.860   6.407   1.557 -0.0911  0.1579  0.0276
11419TIP3    H155748   2.841   6.353   1.634 -1.5220 -0.2787 -0.6131
11419TIP3    H255749   2.921   6.474   1.590 -0.6498 -0.0359  1.5315
11420TIP3   OH255750   1.741   0.118   2.478  0.3886  0.5257  0.0450
11420TIP3    H155751   1.657   0.144   2.516  1.2265  2.1055  0.8787
11420TIP3    H255752   1.784   0.067   2.546  0.1147 -0.3605 -0.4152
11421TIP3   OH255753   1.131   1.380   2.460  0.4075  0.2571  0.2809
11421TIP3    H155754   1.140   1.401   2.553  2.0129 -2.0542  0.7339
11421TIP3    H255755   1.205   1.423   2.418  2.1865 -2.0302  0.8205
11422TIP3   OH255756   5.631   5.982  16.730  0.4260  0.5442  0.3205
11422TIP3    H155757   5.645   5.899  16.777  0.5700  0.0383 -0.6006
11422TIP3    H255758   5.549   5.970  16.684  0.1225  1.1641  0.6859
11423TIP3   OH255759   3.984   5.171  12.348 -0.5463 -0.3809  0.2406
11423TIP3    H155760   4.054   5.182  12.412  1.2122 -1.2964 -1.4367
11423TIP3    H255761   4.002   5.087  12.307 -1.2096  0.4792 -1.9350
11424TIP3   OH255762   3.323   4.476   3.163 -0.5032  0.1417  0.1271
11424TIP3    H155763   3.320   4.444   3.253 -0.3139 -0.3547 -0.0412
11424TIP3    H255764   3.409   4.448   3.131  0.1171  1.7249  0.3149
11425TIP3   OH255765   5.421   0.731   5.493  0.0682  0.2553 -0.5391
11425TIP3    H155766   5.507   0.709   5.458  1.8301  4.0641  0.9351
11425TIP3    H255767   5.401   0.660   5.554  2.2232 -0.6691 -0.8268
11426TIP3   OH255768   1.619   2.325  14.997 -0.1763 -0.5166  0.1822
11426TIP3    H155769   1.690   2.297  14.939 -0.0768 -0.6252  0.3562
11426TIP3    H255770   1.578   2.397  14.950 -0.1541 -0.6637 -0.0666
11427TIP3   OH255771   4.597   5.604  12.383  0.1555 -0.1208  0.8451
11427TIP3    H155772   4.556   5.605  12.296 -0.4903 -1.4678  1.1194
11427TIP3    H255773   4.670   5.666  12.375  0.5964 -0.8112 -0.8987
11428TIP3   OH255774   2.310   1.939  16.735 -0.0582  0.3960  0.1668
11428TIP3    H155775   2.298   1.844  16.744 -1.6118  0.5578  0.1061
11428TIP3    H255776   2.358   1.965  16.813  0.5870 -0.4719  0.0757
11429TIP3   OH255777   2.814   6.804   2.358  0.0118 -0.5060  0.0334
11429TIP3    H155778   2.867   6.724   2.347 -2.1204 -1.8155 -1.4653
11429TIP3    H255779   2.804   6.812   2.453  2.2286 -0.6110  0.3322
11430TIP3   OH255780   3.213   2.321   6.571 -0.2118  0.0645 -0.0632
11430TIP3    H155781   3.212   2.234   6.531 -1.5200 -0.3233  0.7271
11430TIP3    H255782   3.128   2.358   6.549 -0.5832  0.2142  1.4832
11431TIP3   OH255783   0.688   4.333   6.354 -0.0429  0.1780  0.2248
11431TIP3    H155784   0.683   4.365   6.444  1.8378  0.4768  0.2672
11431TIP3    H255785   0.724   4.407   6.305  2.9778 -1.2237  0.0538
11432TIP3   OH255786   1.492   3.477   6.255 -0.5972 -0.0390 -0.4068
11432TIP3    H155787   1.499   3.472   6.351 -2.5040 -1.0794 -0.2772
11432TIP3    H255788   1.423   3.541   6.239  0.5684  1.0697 -1.1542
11433TIP3   OH255789   0.286   1.393   5.214  0.6588 -0.2200  0.2058
11433TIP3    H155790   0.308   1.424   5.302  1.0189 -0.4614  0.1989
11433TIP3    H255791   0.192   1.373   5.219  0.3647  1.0286  0.1680
11434TIP3   OH255792   3.873   1.724  11.737  0.0354 -0.0536 -0.2940
11434TIP3    H155793   3.914   1.801  11.777 -0.1386  1.3605 -2.6786
11434TIP3    H255794   3.785   1.754  11.713 -0.9692 -1.7864  0.9083
11435TIP3   OH255795   5.992   5.910  12.532  0.0552  0.5582 -0.0908
11435TIP3    H155796   6.063   5.894  12.594 -0.6921  0.1958  0.6838
11435TIP3    H255797   5.938   5.976  12.575 -0.3831  0.4208 -0.4342
11436TIP3   OH255798   5.782   4.640  15.768 -0.3779 -0.1524 -0.3912
11436TIP3    H155799   5.722   4.714  15.780  0.9029  0.8627  0.0347
11436TIP3    H255800   5.736   4.581  15.708 -1.3694  1.0738 -0.8826
11437TIP3   OH255801   3.944   5.514   4.746 -0.1675  0.9911 -0.3153
11437TIP3    H155802   3.893   5.588   4.713 -0.0934  1.3495  0.3566
11437TIP3    H255803   3.878   5.455   4.784 -0.1509  1.1108 -0.0991
11438TIP3   OH255804   3.752   0.299   1.858 -0.0851 -0.1730 -0.4101
11438TIP3    H155805   3.789   0.224   1.811  2.7423  0.3325  0.8548
11438TIP3    H255806   3.803   0.305   1.938 -0.1340  3.1543 -0.5086
11439TIP3   OH255807   5.845   0.862   1.456 -0.2502  0.1744  0.3116
11439TIP3    H155808   5.892   0.792   1.409  3.7827  2.7237  0.1144
11439TIP3    H255809   5.836   0.829   1.545  0.9863 -0.8799  0.0801
11440TIP3   OH255810   0.211   3.730  14.931 -0.0500  0.1855  0.0806
11440TIP3    H155811   0.192   3.636  14.924  0.6566  0.0244  0.3116
11440TIP3    H255812   0.214   3.748  15.025 -0.0102  0.4056  0.0380
11441TIP3   OH255813   0.628   6.500  12.673 -0.1202 -0.5819 -0.0353
11441TIP3    H155814   0.636   6.435  12.604 -0.4546 -0.0627 -0.5805
11441TIP3    H255815   0.697   6.479  12.736  0.6389 -0.6399 -0.8822
11442TIP3   OH255816   4.900   1.029   4.696 -0.3197  0.3672  0.2479
11442TIP3    H155817   4.878   1.118   4.666  5.3570  2.4376  0.9506
11442TIP3    H255818   4.951   0.992   4.623  0.6237 -0.7029  1.4187
11443TIP3   OH255819   1.846   2.652   1.807 -0.1085  0.7010 -0.4044
11443TIP3    H155820   1.925   2.615   1.766 -1.1013 -0.4921 -1.3418
11443TIP3    H255821   1.879   2.713   1.872  1.6062 -0.0558 -0.5024
11444TIP3   OH255822   2.591   0.869  11.701  0.0324 -0.2066 -0.0678
11444TIP3    H155823   2.503   0.850  11.669 -0.5063  0.3370  1.0541
11444TIP3    H255824   2.649   0.828  11.637 -0.9757  1.5174 -2.2114
11445TIP3   OH255825   4.823   4.133   2.445 -0.0030  0.1283 -0.6317
11445TIP3    H155826   4.778   4.217   2.453 -1.5170 -0.6140 -0.8287
11445TIP3    H255827   4.793   4.083   2.521  1.7533  0.1173  0.1011
11446TIP3   OH255828   5.531   3.690  11.854 -0.1132 -0.5394  0.2643
11446TIP3    H155829   5.463   3.700  11.788 -0.5181 -0.7687  0.6354
11446TIP3    H255830   5.505   3.749  11.924 -0.1970 -0.9789  0.6132
11447TIP3   OH255831   4.568   6.106  10.686  0.3079  0.3741  0.3623
11447TIP3    H155832   4.596   6.191  10.652 -0.2684 -0.2744 -1.8488
11447TIP3    H255833   4.473   6.109  10.685  0.2829 -0.1268  0.7313
11448TIP3   OH255834   2.474   3.876   0.573  0.4975 -0.0995 -0.4129
11448TIP3    H155835   2.519   3.960   0.575  0.2377  0.2154  4.2010
11448TIP3    H255836   2.388   3.895   0.535  0.2348  1.9724  1.0477
11449TIP3   OH255837   6.387   5.136   2.281 -0.2571  0.0524 -0.0077
11449TIP3    H155838   6.411   5.139   2.373  1.8994  0.7392 -0.5313
11449TIP3    H255839   6.296   5.165   2.279 -0.2420  0.3322  1.8731
11450TIP3   OH255840   4.572   0.489  16.465 -0.6839 -0.1151 -0.7667
11450TIP3    H155841   4.657   0.524  16.437 -1.0282  0.9448 -0.5431
11450TIP3    H255842   4.509   0.554  16.433 -1.6468 -1.9751 -2.9097
11451TIP3   OH255843   4.988   2.400   0.634  0.1795  0.2568 -0.1767
11451TIP3    H155844   4.922   2.374   0.569 -0.8596 -1.7971  1.5809
11451TIP3    H255845   4.948   2.474   0.680 -0.4650 -0.2828  0.1564
11452TIP3   OH255846   1.776   1.597   2.962 -0.1027 -0.5930  0.1868
11452TIP3    H155847   1.851   1.655   2.947  0.7611 -1.5118  0.8572
11452TIP3    H255848   1.767   1.594   3.057 -2.0872  0.8452  0.0954
11453TIP3   OH255849   3.359   4.691   4.445  0.4834  0.7521 -0.7202
11453TIP3    H155850   3.362   4.728   4.357  0.9463  1.5333 -0.3896
11453TIP3    H255851   3.275   4.646   4.450  0.5868  0.4402 -1.6603
11454TIP3   OH255852   1.995   2.124   5.559  0.2188 -0.0057  0.6736
11454TIP3    H155853   2.056   2.058   5.526  0.8656  1.0276 -0.2480
11454TIP3    H255854   1.986   2.187   5.488 -0.7482  0.6745  1.3651
11455TIP3   OH255855   0.664   3.627   1.822  0.2212  0.0778  0.5213
11455TIP3    H155856   0.656   3.547   1.770  0.0759 -0.2825  1.0926
11455TIP3    H255857   0.749   3.620   1.864  0.3143  0.3437  0.3810
11456TIP3   OH255858   6.573   4.335  15.541  0.2877 -0.4162 -0.2843
11456TIP3    H155859   6.553   4.254  15.494  1.2431 -1.8713  1.6901
11456TIP3    H255860   6.651   4.314  15.593  1.5932  2.3099 -0.9600
11457TIP3   OH255861   2.821   1.014   2.999  0.5099  0.2455 -0.1739
11457TIP3    H155862   2.753   1.073   3.030  1.5053  1.6023 -0.4871
11457TIP3    H255863   2.903   1.050   3.033  1.6771  1.6463 -3.9001
11458TIP3   OH255864   5.859   2.697  11.233  0.4901 -0.2030  0.2599
11458TIP3    H155865   5.920   2.690  11.160  3.4169  1.0205  2.4110
11458TIP3    H255866   5.914   2.691  11.311 -2.2334  0.4895  2.3869
11459TIP3   OH255867   1.094   6.504  12.296 -0.2406  0.4679 -0.1556
11459TIP3    H155868   1.162   6.568  12.273  1.4484 -0.5125  1.7399
11459TIP3    H255869   1.060   6.535  12.380 -1.0018  0.0590 -0.3053
11460TIP3   OH255870   5.511   3.146   2.797  0.2817 -0.3789  0.5560
11460TIP3    H155871   5.419   3.121   2.789  0.6561 -2.1929  1.4200
11460TIP3    H255872   5.521   3.175   2.887 -0.0348  2.7900 -0.2893
11461TIP3   OH255873   0.573   5.715  13.317 -0.7923 -0.1455 -0.2766
11461TIP3    H155874   0.561   5.809  13.304  2.0670  0.3386 -0.0462
11461TIP3    H255875   0.616   5.686  13.237 -0.4246 -0.9986  0.2233
11462TIP3   OH255876   4.554   5.957   5.557  0.7199  0.9098  0.0946
11462TIP3    H155877   4.555   5.862   5.563 -1.6884  0.7344 -1.3860
11462TIP3    H255878   4.584   5.976   5.468 -1.9131  1.3152 -0.7641
11463TIP3   OH255879   0.159   6.132   6.641 -0.5652 -0.3422  0.3368
11463TIP3    H155880   0.252   6.156   6.633 -0.3089 -1.8460 -1.8876
11463TIP3    H255881   0.160   6.037   6.657 -1.7114 -0.8070 -1.9783
11464TIP3   OH255882   6.714   3.396  13.134  0.3343  0.0682 -0.5345
11464TIP3    H155883   6.729   3.421  13.043 -0.6350 -1.0750 -1.0271
11464TIP3    H255884   6.674   3.310  13.129  0.9470 -0.3418  1.0140
11465TIP3   OH255885   0.396   1.825   5.918 -0.4590  0.4964 -0.6932
11465TIP3    H155886   0.305   1.809   5.944 -0.1240  1.5141  1.3275
11465TIP3    H255887   0.398   1.918   5.895 -0.0689  0.3114 -1.4180
11466TIP3   OH255888   1.761   6.293   1.101  0.1124  0.3545 -0.2206
11466TIP3    H155889   1.767   6.362   1.034 -0.2566  0.9457  0.3500
11466TIP3    H255890   1.853   6.272   1.120  0.2372  0.9393 -0.1432
11467TIP3   OH255891   0.016   1.697   5.516 -0.1204 -0.2018 -0.3092
11467TIP3    H155892  -0.031   1.714   5.435 -1.4464 -0.5893  0.3551
11467TIP3    H255893  -0.045   1.647   5.570  1.4216 -1.6693  0.1845
11468TIP3   OH255894   5.019   1.089  14.149 -0.0417 -0.4234 -0.3805
11468TIP3    H155895   5.005   1.031  14.224 -1.2865 -1.5845 -1.4593
11468TIP3    H255896   5.114   1.100  14.144  0.0955 -0.8087  0.9792
11469TIP3   OH255897   4.106   6.552   1.393 -0.3860  0.1593 -0.1286
11469TIP3    H155898   4.187   6.602   1.387 -0.2637 -0.0244 -0.0097
11469TIP3    H255899   4.079   6.539   1.302  0.2325 -0.6062 -0.2161
11470TIP3   OH255900   6.597   4.039   5.115  0.4004 -1.3996  0.4441
11470TIP3    H155901   6.659   4.006   5.050  0.8344  0.2582 -0.0302
11470TIP3    H255902   6.634   4.123   5.143 -1.6084 -0.3607  0.1468
11471TIP3   OH255903   4.151   0.744   2.725 -0.1235  0.0538 -0.0804
11471TIP3    H155904   4.102   0.736   2.644 -1.2949 -0.2934  0.6459
11471TIP3    H255905   4.085   0.762   2.792  0.7659 -0.1155  0.8703
11472TIP3   OH255906   0.688   5.877  12.119  0.0315 -0.0885 -0.8123
11472TIP3    H155907   0.601   5.850  12.148  0.2799 -0.0859 -0.0419
11472TIP3    H255908   0.699   5.965  12.155  0.9957 -0.7128  0.5444
11473TIP3   OH255909   2.013   0.236   2.179  0.5568 -0.7983 -0.0603
11473TIP3    H155910   1.959   0.157   2.190 -0.1798 -0.1509  1.2573
11473TIP3    H255911   2.097   0.213   2.221  0.1498 -0.7099  0.8288
11474TIP3   OH255912   4.604   2.781  13.782 -0.2123 -0.0875 -0.2622
11474TIP3    H155913   4.596   2.823  13.696 -1.4489  0.1741 -0.0359
11474TIP3    H255914   4.647   2.847  13.837  0.0392 -0.0341 -0.5188
11475TIP3   OH255915   6.044   4.787  16.144  0.0316 -0.6363  0.0579
11475TIP3    H155916   6.066   4.735  16.222 -0.9433 -0.4516  0.4714
11475TIP3    H255917   5.991   4.728  16.090  0.0339 -0.5075 -0.0844
11476TIP3   OH255918   2.023   2.559   2.905 -0.2996 -0.0854  0.0674
11476TIP3    H155919   2.092   2.517   2.853 -0.3695  0.5540 -0.5606
11476TIP3    H255920   1.989   2.628   2.848  1.0083  2.0346  1.6877
11477TIP3   OH255921   4.751   4.836   3.586 -0.0227 -0.3853 -0.3395
11477TIP3    H155922   4.679   4.802   3.532 -0.3538 -0.2383  0.0020
11477TIP3    H255923   4.760   4.927   3.559 -0.8729 -0.0195  0.5561
11478TIP3   OH255924   5.259   1.085  14.369  0.1853  0.2877  0.1636
11478TIP3    H155925   5.281   1.135  14.290 -2.0038  1.4782  0.2363
11478TIP3    H255926   5.309   1.127  14.439 -0.4717  1.4435 -0.0410
11479TIP3   OH255927   6.016   1.116   0.050 -0.2048 -0.1571 -0.7848
11479TIP3    H155928   5.952   1.119  -0.022 -0.3410  2.0544 -0.6287
11479TIP3    H255929   5.965   1.138   0.128  0.5253  0.6234 -0.5092
11480TIP3   OH255930   5.339   1.036   0.408 -0.3589  0.1769  0.0095
11480TIP3    H155931   5.285   1.065   0.334 -2.0088 -0.3092  0.9795
11480TIP3    H255932   5.403   1.107   0.420 -0.3307  0.4507 -1.6024
11481TIP3   OH255933   2.222   5.477   0.385  0.4438  0.3552 -0.6007
11481TIP3    H155934   2.185   5.426   0.457 -0.4112 -1.5153 -2.2450
11481TIP3    H255935   2.153   5.539   0.360  0.3054  0.2328 -0.5210
11482TIP3   OH255936   4.360   4.764  11.786  0.6328  0.1493  0.0961
11482TIP3    H155937   4.355   4.811  11.868  0.6805  0.8648 -0.3045
11482TIP3    H255938   4.280   4.789  11.738  1.0493  0.4678 -0.4486
11483TIP3   OH255939   1.297   4.276   3.836  0.2028  0.1540  0.0150
11483TIP3    H155940   1.219   4.223   3.848 -0.4329  0.9675 -0.4074
11483TIP3    H255941   1.365   4.213   3.811 -0.4157 -0.5070 -0.0424
11484TIP3   OH255942   2.829   3.405  15.927 -0.1585  0.1746 -0.2558
11484TIP3    H155943   2.885   3.470  15.970  1.5971 -1.5541  0.2010
11484TIP3    H255944   2.852   3.412  15.835  0.9666 -0.6231 -0.0531
11485TIP3   OH255945   6.483   4.380   1.293 -0.0097 -0.5339  0.4372
11485TIP3    H155946   6.404   4.338   1.327 -0.8563  1.0989  0.5482
11485TIP3    H255947   6.477   4.369   1.198  0.1807 -1.3186  0.5053
11486TIP3   OH255948   0.611   0.741  10.468  0.5079 -0.5672  0.6060
11486TIP3    H155949   0.672   0.759  10.540  1.7097  0.7270 -0.6744
11486TIP3    H255950   0.608   0.822  10.418  1.9987 -2.2390 -2.4785
11487TIP3   OH255951   4.518   2.928  13.441 -0.3895 -0.2128  0.1128
11487TIP3    H155952   4.489   2.998  13.383 -0.4117  2.0815  2.6974
11487TIP3    H255953   4.608   2.951  13.464  0.3720 -2.2406 -0.5946
11488TIP3   OH255954   3.010   6.482  14.133  0.1785 -0.0616  0.3319
11488TIP3    H155955   3.027   6.577  14.133  2.1700 -0.3596 -0.5669
11488TIP3    H255956   2.989   6.462  14.042  1.1378 -0.6624  0.2271
11489TIP3   OH255957   1.908   0.492  14.342 -0.2069  0.4459 -0.1775
11489TIP3    H155958   1.930   0.435  14.269  1.2274  1.4124 -0.5468
11489TIP3    H255959   1.909   0.435  14.419 -1.5468 -0.5422 -0.8625
11490TIP3   OH255960   4.855   1.328  16.339 -0.7037  0.0431 -0.0454
11490TIP3    H155961   4.865   1.237  16.365 -1.9831  0.3106  1.5868
11490TIP3    H255962   4.783   1.327  16.275 -0.2463 -0.1575 -0.5635
11491TIP3   OH255963   2.448   2.598   5.080  0.0607 -0.1854  0.3189
11491TIP3    H155964   2.392   2.634   5.148 -0.5942 -0.3819 -0.1086
11491TIP3    H255965   2.406   2.517   5.054  0.5347 -0.3296 -0.0211
11492TIP3   OH255966   0.157   1.078  13.689 -0.0556 -0.1014 -0.5335
11492TIP3    H155967   0.073   1.112  13.717  0.0419  0.0037 -0.3695
11492TIP3    H255968   0.135   1.000  13.637 -0.2514 -0.0856 -0.4747
11493TIP3   OH255969   1.547   0.860   2.194  0.3045 -0.4328 -0.2404
11493TIP3    H155970   1.499   0.921   2.250 -1.6935 -0.3211 -1.9413
11493TIP3    H255971   1.502   0.776   2.207  0.3750 -0.5927 -1.0015
11494TIP3   OH255972   4.853   6.139   5.552  0.0405 -0.0111 -0.0037
11494TIP3    H155973   4.761   6.157   5.572  0.1274 -1.8279  2.5327
11494TIP3    H255974   4.851   6.068   5.488 -0.2406  1.0371 -1.2226
11495TIP3   OH255975   5.932   2.238  17.101  0.0166 -0.3396 -0.4809
11495TIP3    H155976   5.994   2.199  17.163 -0.7588 -0.0900  0.4718
11495TIP3    H255977   5.872   2.288  17.156 -0.6058  0.0035 -1.4566
11496TIP3   OH255978   2.704   1.331  16.015 -0.1635  0.2763  0.1004
11496TIP3    H155979   2.769   1.382  16.063 -1.1656 -0.1409  1.9753
11496TIP3    H255980   2.649   1.397  15.972  1.4045  0.6384 -1.5188
11497TIP3   OH255981   6.084   0.334  10.474  0.0412  0.6813 -0.0729
11497TIP3    H155982   6.128   0.347  10.558 -0.5423  0.0664  0.3363
11497TIP3    H255983   6.043   0.418  10.455 -0.0434  0.7486  0.3942
11498TIP3   OH255984   0.596   5.382   5.408 -0.0857  0.4221  0.8787
11498TIP3    H155985   0.608   5.450   5.474  0.2057  2.1430 -0.8490
11498TIP3    H255986   0.682   5.375   5.366 -0.4139 -0.2096  0.2978
11499TIP3   OH255987   5.831   6.119  12.647  0.1949 -0.2886 -0.3833
11499TIP3    H155988   5.875   6.127  12.731 -0.9496  0.5115  0.1773
11499TIP3    H255989   5.752   6.069  12.666 -0.6483  0.8523 -0.7143
11500TIP3   OH255990   5.060   0.997  13.854 -0.2562 -0.6730  0.2991
11500TIP3    H155991   5.111   1.042  13.787 -1.4023  0.3314  0.0663
11500TIP3    H255992   4.993   1.061  13.880 -1.5287 -2.0141  0.4264
11501TIP3   OH255993   6.534   0.865  14.318  0.2445 -0.1506 -0.3066
11501TIP3    H155994   6.497   0.777  14.327 -2.7941  1.0721  0.3264
11501TIP3    H255995   6.543   0.877  14.224 -0.4706 -0.7242 -0.4586
11502TIP3   OH255996   5.939   0.582   4.707 -0.3679  0.0037 -0.6935
11502TIP3    H155997   5.854   0.542   4.684 -0.2805 -0.8133  0.3561
11502TIP3    H255998   5.996   0.559   4.633 -0.6764 -0.6885 -0.7243
11503TIP3   OH255999   5.932   6.321   6.155 -0.0667 -0.4968  0.0444
11503TIP3    H156000   5.962   6.331   6.065  0.2662 -2.3018 -0.0813
11503TIP3    H256001   5.899   6.232   6.159 -2.1210  0.2381  1.1525
11504TIP3   OH256002   3.674   2.128  11.725 -0.6922 -0.3632 -0.5308
11504TIP3    H156003   3.600   2.104  11.780  0.1864 -1.3732  0.2839
11504TIP3    H256004   3.682   2.223  11.735 -0.7009 -0.4872  0.9359
11505TIP3   OH256005   1.966   5.979  11.849 -0.2163  0.3452  0.5030
11505TIP3    H156006   1.871   5.982  11.856 -0.4000  2.1243 -1.7384
11505TIP3    H256007   1.984   5.969  11.755  1.7814  1.4529  0.6948
11506TIP3   OH256008   2.960   2.547   5.119 -0.1527 -0.0510  0.8728
11506TIP3    H156009   2.956   2.640   5.098  0.0857  0.1241  1.5730
11506TIP3    H256010   2.876   2.512   5.088 -0.1361  0.3393  0.3683
11507TIP3   OH256011   2.889   4.715   1.356  0.3163  0.3540  0.2805
11507TIP3    H156012   2.854   4.789   1.307  1.8086 -0.4006 -2.1037
11507TIP3    H256013   2.971   4.747   1.393  0.7337  0.0736 -0.3711
11508TIP3   OH256014   3.689   0.616   0.566  0.1951  0.4525  0.0073
11508TIP3    H156015   3.694   0.557   0.491  3.3444  0.4851  0.0761
11508TIP3    H256016   3.639   0.691   0.534 -0.1121 -0.3406 -1.4619
11509TIP3   OH256017   4.418   3.110  12.519 -0.3088  0.6522  0.0993
11509TIP3    H156018   4.396   3.149  12.435 -0.8681 -1.1008 -0.6075
11509TIP3    H256019   4.497   3.059  12.501 -2.3667 -2.6516 -0.3523
11510TIP3   OH256020   4.919   2.936   6.523 -0.1084  0.2117  0.3136
11510TIP3    H156021   4.999   2.918   6.572 -0.7386  0.6123  1.5292
11510TIP3    H256022   4.939   3.014   6.472  0.2938  0.2616  0.5442
11511TIP3   OH256023   4.884   6.224   2.894  0.3320  1.0020 -0.5474
11511TIP3    H156024   4.863   6.233   2.987 -1.8026 -1.3547 -0.6894
11511TIP3    H256025   4.921   6.309   2.870 -0.3959  2.1958  2.1150
11512TIP3   OH256026   1.305   3.513  14.556 -0.2047 -0.6543 -0.2865
11512TIP3    H156027   1.342   3.598  14.535  0.3335 -0.9017 -0.3483
11512TIP3    H256028   1.224   3.509  14.506 -0.2548 -0.1635 -0.2499
11513TIP3   OH256029   3.386   6.489   6.429 -0.5067  0.2328  0.0011
11513TIP3    H156030   3.415   6.406   6.467  0.6554  0.4766 -0.3053
11513TIP3    H256031   3.304   6.468   6.384 -2.2273  0.0303  3.0048
11514TIP3   OH256032   0.525   5.960   3.790  0.2076 -0.4018  0.2787
11514TIP3    H156033   0.558   6.005   3.713  0.1183 -0.6559  0.0883
11514TIP3    H256034   0.473   5.887   3.755 -0.8676  0.2114  0.5630
11515TIP3   OH256035   6.250   2.729  12.992  0.1910 -0.0303 -0.4929
11515TIP3    H156036   6.205   2.755  12.912  0.9900 -0.2909 -1.0437
11515TIP3    H256037   6.226   2.796  13.056 -0.7361 -0.0123 -0.8421
11516TIP3   OH256038   2.368   5.202   0.006  0.1470  0.5971  0.2082
11516TIP3    H156039   2.334   5.122   0.048  0.5114  0.0800 -0.4615
11516TIP3    H256040   2.371   5.266   0.077 -1.1973  0.3457  0.5243
11517TIP3   OH256041   5.228   2.694  11.319 -0.3448 -0.1114 -0.1895
11517TIP3    H156042   5.252   2.666  11.407 -2.6560 -0.5061  0.3879
11517TIP3    H256043   5.296   2.658  11.262  0.0349 -1.6985  1.2009
11518TIP3   OH256044   0.156   1.734   3.415  0.0949  0.1936 -0.5931
11518TIP3    H156045   0.182   1.715   3.505 -3.2349  1.0560  0.7179
11518TIP3    H256046   0.073   1.687   3.403 -0.1459  1.0313 -2.7988
11519TIP3   OH256047   5.250   1.623  11.475  0.2725 -0.0685  0.3546
11519TIP3    H156048   5.214   1.545  11.518  0.4527 -0.4064 -0.1060
11519TIP3    H256049   5.266   1.595  11.385  0.8743  0.3318  0.3377
11520TIP3   OH256050   3.490   2.283  12.952 -0.4123 -0.4138  0.2142
11520TIP3    H156051   3.462   2.339  12.880 -1.7031 -0.2503  0.8074
11520TIP3    H256052   3.550   2.338  13.003 -1.2288  0.2664  0.4750
11521TIP3   OH256053   6.319   3.294   6.346  0.3509 -0.0586 -0.3596
11521TIP3    H156054   6.259   3.351   6.299  1.2669  0.7523 -0.5906
11521TIP3    H256055   6.267   3.217   6.369 -0.3814 -0.0551 -1.8543
11522TIP3   OH256056   2.355   3.344   6.518 -0.5148 -0.9213 -0.0311
11522TIP3    H156057   2.433   3.398   6.534 -1.8997  2.0622 -2.3202
11522TIP3    H256058   2.385   3.274   6.461  0.5505  0.1329 -0.8202
11523TIP3   OH256059   1.026   2.868   2.527 -0.0701 -0.0758 -0.2265
11523TIP3    H156060   1.101   2.810   2.519 -0.7985 -1.3717  1.6127
11523TIP3    H256061   1.064   2.956   2.529  1.1763 -0.5478 -1.4900
11524TIP3   OH256062   2.407   0.509  12.970  0.2886  0.1595  0.1644
11524TIP3    H156063   2.488   0.486  12.925  0.1618  0.5378 -0.2588
11524TIP3    H256064   2.341   0.452  12.930  0.2671  0.1474  0.2169
11525TIP3   OH256065   3.004   2.345  12.305  0.0004 -0.4309  0.5443
11525TIP3    H156066   3.095   2.343  12.334  0.4330 -0.8134 -0.7853
11525TIP3    H256067   2.973   2.433  12.329  0.5817 -0.4380  1.3706
11526TIP3   OH256068   6.625   5.030  11.499 -0.3439  0.0910  0.0731
11526TIP3    H156069   6.634   4.951  11.446  0.9113 -0.3852  0.9344
11526TIP3    H256070   6.607   4.998  11.588  1.6593  0.6416  0.7476
11527TIP3   OH256071   1.869   6.367   2.643 -0.2731  0.0793 -0.3386
11527TIP3    H156072   1.894   6.459   2.654 -0.1599  0.2716 -1.9108
11527TIP3    H256073   1.788   6.370   2.593 -0.4764 -0.6723 -0.0601
11528TIP3   OH256074   2.764   0.682  12.475  0.3767  0.0586 -0.3201
11528TIP3    H156075   2.777   0.765  12.428 -1.6641  2.0662  2.3359
11528TIP3    H256076   2.679   0.650  12.445 -1.7350  2.1901  2.7778
11529TIP3   OH256077   3.574   5.702  16.137  0.0942  0.0795  0.6017
11529TIP3    H156078   3.663   5.683  16.106 -0.1749 -0.5691  0.2126
11529TIP3    H256079   3.585   5.775  16.198  1.1224 -0.9965  1.7785
11530TIP3   OH256080   5.850   2.562  13.713  0.5105  0.3656  0.1816
11530TIP3    H156081   5.796   2.548  13.791 -0.6142 -0.9618 -0.7768
11530TIP3    H256082   5.927   2.508  13.728  0.1086 -0.2138  0.2151
11531TIP3   OH256083   4.045   2.652  14.815 -0.5683  0.1111 -0.0229
11531TIP3    H156084   4.138   2.670  14.798 -1.0068  2.0929 -0.6044
11531TIP3    H256085   4.029   2.690  14.901 -0.8354 -0.2398  0.0816
11532TIP3   OH256086   4.672   2.377   4.978 -0.0938  0.0717  0.2132
11532TIP3    H156087   4.738   2.346   4.916  0.9825  1.4695  0.6089
11532TIP3    H256088   4.590   2.340   4.945  0.3326  1.2035 -2.4092
11533TIP3   OH256089   1.366   4.963   4.417  0.3019  0.0256  0.0128
11533TIP3    H156090   1.434   4.951   4.483  0.6434  0.1942 -0.3025
11533TIP3    H256091   1.288   4.988   4.467  0.8363  1.2535  0.2821
11534TIP3   OH256092   1.362   0.158   4.876 -0.3253  0.2642 -0.1286
11534TIP3    H156093   1.314   0.181   4.956  0.4207 -1.9691  1.0226
11534TIP3    H256094   1.382   0.243   4.836 -3.5162  1.3740  0.3065
11535TIP3   OH256095   6.010   3.642   3.628  0.1776 -0.8613  0.4472
11535TIP3    H156096   5.971   3.572   3.577  1.9689 -0.1738 -2.0465
11535TIP3    H256097   6.101   3.615   3.641 -0.3226 -1.3698  4.0934
11536TIP3   OH256098   6.013   4.305  13.071  0.2279 -1.1281  0.6878
11536TIP3    H156099   5.978   4.224  13.034 -0.7865 -0.4732  0.1743
11536TIP3    H256100   5.942   4.369  13.062  2.1149  0.7862 -2.1232
11537TIP3   OH256101   5.152   0.163   2.392 -0.1530 -0.1785 -0.3786
11537TIP3    H156102   5.057   0.153   2.407 -0.2091  0.1623 -0.5007
11537TIP3    H256103   5.158   0.222   2.317  0.1617  2.0921  1.3083
11538TIP3   OH256104   0.433   4.499   5.895  0.0160 -0.0808 -0.0335
11538TIP3    H156105   0.475   4.570   5.944 -1.3903  0.2398  0.7603
11538TIP3    H256106   0.505   4.441   5.869  1.2773  1.9301 -1.2423
11539TIP3   OH256107   1.528   6.537  11.855  0.0518  0.3672  0.1566
11539TIP3    H156108   1.542   6.460  11.800  0.7374  0.5806  0.0221
11539TIP3    H256109   1.550   6.507  11.944  2.4643  0.9577 -0.1814
11540TIP3   OH256110   1.911   6.310  12.170 -0.2471 -0.0781  0.2524
11540TIP3    H156111   1.877   6.275  12.252  1.3330 -1.6846  0.2721
11540TIP3    H256112   1.869   6.257  12.102 -2.4718  2.0086 -0.1407
11541TIP3   OH256113   6.612   6.416  16.042  0.0318 -0.1884  0.4635
11541TIP3    H156114   6.700   6.444  16.064  0.5733 -0.9159 -0.6427
11541TIP3    H256115   6.559   6.438  16.118  1.1566  0.3114  1.1190
11542TIP3   OH256116   0.992   5.263   1.667  0.8140  0.0373  0.6414
11542TIP3    H156117   0.917   5.245   1.610  0.2717 -3.0943  2.1508
11542TIP3    H256118   0.957   5.322   1.734  0.1459 -0.1005  0.4264
11543TIP3   OH256119   3.760   2.461   2.600 -0.4684 -0.1108  0.3146
11543TIP3    H156120   3.756   2.550   2.566 -0.9331 -0.5811 -0.9377
11543TIP3    H256121   3.747   2.406   2.523 -1.7500 -1.2432  1.2923
11544TIP3   OH256122   5.277   2.811   0.815 -0.1424  0.1937  0.2467
11544TIP3    H156123   5.278   2.776   0.904  2.1642 -0.0598  0.1833
11544TIP3    H256124   5.185   2.808   0.789 -0.7545 -0.5360  2.2895
11545TIP3   OH256125   2.418   0.415  16.270  0.6720  0.0159 -0.2462
11545TIP3    H156126   2.351   0.347  16.263  1.1108 -0.4867  0.3547
11545TIP3    H256127   2.392   0.480  16.205 -1.0003  0.3489  0.6852
11546TIP3   OH256128   2.910   4.364  13.534  0.3564 -0.4548 -0.0967
11546TIP3    H156129   3.001   4.387  13.551  0.2525  0.6197 -0.8239
11546TIP3    H256130   2.910   4.269  13.522  1.5637 -0.3574 -1.0852
11547TIP3   OH256131   2.330   3.796  11.596 -0.2678 -0.5097  0.2252
11547TIP3    H156132   2.254   3.779  11.652 -0.2674 -0.1857  0.3292
11547TIP3    H256133   2.293   3.823  11.512 -0.3137  1.8044  0.9181
11548TIP3   OH256134   0.773   6.586  11.795 -0.0908 -0.2858 -0.0074
11548TIP3    H156135   0.703   6.641  11.829 -1.2969 -1.2659 -0.7799
11548TIP3    H256136   0.728   6.510  11.759  1.3994 -1.0393 -0.3833
11549TIP3   OH256137   0.191   4.952   2.109  0.2771 -0.7112  0.1279
11549TIP3    H156138   0.278   4.914   2.096  1.0318  0.6094  1.0544
11549TIP3    H256139   0.179   4.954   2.204 -1.1620 -1.6883 -0.0033
11550TIP3   OH256140   6.122   2.222  13.205  0.2629  0.1875  0.4977
11550TIP3    H156141   6.172   2.299  13.179  3.0676 -2.3042 -2.3056
11550TIP3    H256142   6.160   2.196  13.289  0.0598  1.1809  0.9115
11551TIP3   OH256143   1.369   1.459  13.270  0.2757  0.3285 -0.5715
11551TIP3    H156144   1.309   1.532  13.285 -1.2736 -0.9286 -0.3058
11551TIP3    H256145   1.322   1.401  13.210  2.1705  0.3375 -2.1728
11552TIP3   OH256146   6.233   3.472  11.875 -0.4626 -0.1711  0.3762
11552TIP3    H156147   6.300   3.524  11.833 -0.7625 -0.2420 -0.1992
11552TIP3    H256148   6.279   3.395  11.908 -0.1936 -0.0207  0.3504
11553TIP3   OH256149   3.811   4.001   5.240 -0.1948 -0.1152  0.3959
11553TIP3    H156150   3.898   3.999   5.279 -0.9000  1.1778  2.1841
11553TIP3    H256151   3.778   3.911   5.248 -0.1371  0.0058  2.4704
11554TIP3   OH256152   5.230   2.914   6.603  0.2473 -0.0906  0.2312
11554TIP3    H156153   5.313   2.866   6.609  0.1259 -0.2832  0.3951
11554TIP3    H256154   5.254   3.000   6.571  0.6344  0.2021  1.2786
11555TIP3   OH256155   0.803   6.775  12.564 -0.8285 -0.0845  0.3433
11555TIP3    H156156   0.792   6.740  12.653  0.3631  0.6217  0.7847
11555TIP3    H256157   0.742   6.848  12.560  0.1490  0.8070  1.1124
11556TIP3   OH256158   5.026   5.319   6.046 -0.2090 -0.1842  0.4406
11556TIP3    H156159   5.021   5.225   6.062 -0.2493 -0.4028 -0.7093
11556TIP3    H256160   4.981   5.331   5.962 -0.6411  0.9350  0.8067
11557TIP3   OH256161   5.025   5.439   5.136 -0.2669  0.6425 -0.5274
11557TIP3    H156162   4.937   5.476   5.123 -0.2330  0.3384 -1.7917
11557TIP3    H256163   5.083   5.516   5.136 -0.4047  0.7511 -1.0693
11558TIP3   OH256164   6.618   6.089  11.129  0.1795 -0.3880 -0.2111
11558TIP3    H156165   6.563   6.103  11.206  0.3313 -0.9654  0.0090
11558TIP3    H256166   6.602   6.165  11.073 -0.6462 -0.4291 -0.0350
11559TIP3   OH256167   6.286   2.010  17.030  0.6213  0.7666  0.0935
11559TIP3    H156168   6.265   1.974  17.116  1.7288  0.2410  0.1672
11559TIP3    H256169   6.233   1.959  16.969  0.0195  0.9710  0.4404
11560TIP3   OH256170   1.940   0.959  16.930 -0.1992  0.4822 -0.1098
11560TIP3    H156171   1.941   0.863  16.935 -0.4543  0.5388  1.3886
11560TIP3    H256172   1.852   0.980  16.901  0.1924  0.2523 -1.5744
11561TIP3   OH256173   2.575   2.620   3.125 -0.4058 -0.0797  0.1475
11561TIP3    H156174   2.496   2.570   3.108  0.1335 -0.3533 -1.7236
11561TIP3    H256175   2.579   2.686   3.056  0.3312  0.7873  0.9702
11562TIP3   OH256176   0.380   6.806  16.129 -0.2314  0.1429 -0.9399
11562TIP3    H156177   0.367   6.744  16.202  0.7126  0.1712 -0.7389
11562TIP3    H256178   0.295   6.849  16.120  0.0333  1.2083  1.1381
11563TIP3   OH256179   2.035   4.996   0.815 -0.3419 -0.2223  0.2698
11563TIP3    H156180   1.964   4.934   0.796 -1.0723  0.7920 -0.4211
11563TIP3    H256181   2.097   4.983   0.743 -1.3462  1.0427 -0.8818
11564TIP3   OH256182   0.555   3.340  11.162  0.3446  0.4594 -0.3980
11564TIP3    H156183   0.498   3.335  11.239 -0.2374  1.6483 -0.7374
11564TIP3    H256184   0.633   3.292  11.188 -0.1866  0.1068  0.6305
11565TIP3   OH256185   4.462   2.743   5.804  0.0248 -0.0956  0.3816
11565TIP3    H156186   4.405   2.758   5.729  1.1849 -0.5202 -0.6315
11565TIP3    H256187   4.457   2.648   5.819  1.4303 -0.3656 -0.5845
11566TIP3   OH256188   6.247   2.137  16.064 -0.2800  0.2622  0.0563
11566TIP3    H156189   6.227   2.216  16.014 -0.4071  0.7986  0.9348
11566TIP3    H256190   6.208   2.066  16.013  0.2999  0.6916 -1.0211
11567TIP3   OH256191   0.955   1.388  12.571  0.6854 -0.3191 -0.7221
11567TIP3    H156192   0.933   1.442  12.647  0.5539 -2.0393  0.5166
11567TIP3    H256193   0.915   1.434  12.497 -2.0182 -0.2308  0.6769
11568TIP3   OH256194   2.520   3.028  12.216 -0.0466 -0.1811  0.2143
11568TIP3    H156195   2.463   3.104  12.226 -0.1457 -0.3433  0.9570
11568TIP3    H256196   2.588   3.040  12.282  0.9112  0.1083 -0.7858
11569TIP3   OH256197   4.353   2.216   2.967 -0.0420  0.3705 -0.2389
11569TIP3    H156198   4.366   2.121   2.966  2.7263  0.5398  2.4711
11569TIP3    H256199   4.271   2.229   3.015  0.9183 -0.7086  1.8443
11570TIP3   OH256200   0.613   3.107  14.410 -0.3157  0.0759  0.0768
11570TIP3    H156201   0.523   3.091  14.382 -0.4681 -0.0267  0.6158
11570TIP3    H256202   0.605   3.172  14.480  0.2713  2.5619 -2.0181
11571TIP3   OH256203   4.690   1.990  11.330 -0.1343 -0.2367 -0.7748
11571TIP3    H156204   4.698   1.902  11.293  0.4488 -1.4757  2.0596
11571TIP3    H256205   4.606   2.022  11.297 -1.2164 -2.5945 -0.5146
11572TIP3   OH256206   4.761   0.592  13.278  0.2422 -0.1706  0.1392
11572TIP3    H156207   4.761   0.666  13.338 -2.0240 -0.6270  0.8095
11572TIP3    H256208   4.777   0.516  13.333 -1.6833 -0.5740  0.2156
11573TIP3   OH256209   2.448   0.963   3.932 -0.0204 -0.6500 -0.3002
11573TIP3    H156210   2.529   0.925   3.898  2.0447  1.0629  2.2767
11573TIP3    H256211   2.431   1.038   3.877  1.8198  0.6041  0.7512
11574TIP3   OH256212   6.081   0.097   1.971 -0.4224 -0.2761 -0.5542
11574TIP3    H156213   6.009   0.051   2.015 -0.6295 -1.0148 -1.6232
11574TIP3    H256214   6.102   0.041   1.896  2.0108 -0.6538  0.3260
11575TIP3   OH256215   3.282   6.341   3.558 -0.6522  0.1360  0.2563
11575TIP3    H156216   3.201   6.291   3.553 -0.9534  0.5757  0.7070
11575TIP3    H256217   3.263   6.414   3.617  0.7202 -1.0326  2.2675
11576TIP3   OH256218   4.879   2.587  14.163  0.5525 -0.2225  0.4337
11576TIP3    H156219   4.828   2.582  14.082 -3.4669 -0.0058  2.7320
11576TIP3    H256220   4.911   2.678  14.165  1.8169 -0.5604 -1.3991
11577TIP3   OH256221   2.970   0.517   2.528  0.2972 -0.6676  0.4385
11577TIP3    H156222   2.965   0.495   2.435 -0.5229  2.9127 -0.5198
11577TIP3    H256223   3.041   0.582   2.533 -1.6049  1.4390  1.7047
11578TIP3   OH256224   4.981   3.645  12.867 -0.2690  0.1086 -0.0878
11578TIP3    H156225   5.048   3.636  12.936  0.1687 -0.5562 -0.5932
11578TIP3    H256226   5.031   3.645  12.785 -0.8922 -0.3442 -0.4685
11579TIP3   OH256227   1.307   5.525  13.563  0.6592 -0.4430  0.0904
11579TIP3    H156228   1.228   5.474  13.577  0.9136 -0.9345 -0.2519
11579TIP3    H256229   1.361   5.509  13.641  0.1044  0.5134  0.6996
11580TIP3   OH256230   6.082   3.192  15.194  0.0205  0.2852  0.2657
11580TIP3    H156231   6.139   3.195  15.118  0.4993  0.1072  0.6135
11580TIP3    H256232   6.141   3.200  15.269 -0.3049 -0.7811  0.6591
11581TIP3   OH256233   0.680   0.431  14.092  0.2944 -0.4564 -0.0665
11581TIP3    H156234   0.626   0.425  14.171  0.7107 -0.9818  0.1866
11581TIP3    H256235   0.746   0.496  14.113  0.2291 -0.3815 -0.0915
11582TIP3   OH256236   2.617   3.351  15.717 -0.0935 -0.6323  0.3189
11582TIP3    H156237   2.591   3.441  15.696 -1.0926 -0.7953  0.7966
11582TIP3    H256238   2.710   3.357  15.739 -0.1160  0.2600  0.1925
11583TIP3   OH256239   2.133   3.864   5.037 -0.2205  0.3122  0.7730
11583TIP3    H156240   2.042   3.867   5.069 -0.3493 -0.2394  0.4786
11583TIP3    H256241   2.148   3.950   4.999 -1.1648 -0.0988 -0.6157
11584TIP3   OH256242   3.203   4.582  11.563 -0.0490  0.3624 -0.3282
11584TIP3    H156243   3.117   4.577  11.606 -0.0894 -1.9628 -0.5664
11584TIP3    H256244   3.182   4.605  11.472 -0.3714  0.2849 -0.2755
11585TIP3   OH256245   0.139   1.001   3.584 -0.3215  0.6291 -0.2804
11585TIP3    H156246   0.150   1.052   3.664  0.7920  1.1779 -0.7614
11585TIP3    H256247   0.049   0.968   3.589 -0.4139  1.0098  0.9784
11586TIP3   OH256248   0.989   6.728  14.157 -0.1376  0.2696 -0.0394
11586TIP3    H156249   0.986   6.816  14.195 -0.0438  0.5359 -0.6476
11586TIP3    H256250   0.897   6.700  14.155 -0.2295  0.5891 -0.3884
11587TIP3   OH256251   1.320   0.772  15.093 -0.6906 -0.0718 -0.4704
11587TIP3    H156252   1.283   0.817  15.017  2.5109  1.7318 -1.1763
11587TIP3    H256253   1.311   0.679  15.073 -2.0168  0.3225 -1.9230
11588TIP3   OH256254   0.518   6.270  15.997 -0.1634 -0.2316 -0.5187
11588TIP3    H156255   0.482   6.355  16.021 -1.5606 -0.7368 -0.7434
11588TIP3    H256256   0.514   6.268  15.901 -1.1558 -0.9538 -0.4764
11589TIP3   OH256257   5.036   0.148  10.527  0.5385 -0.1096 -0.5855
11589TIP3    H156258   4.993   0.175  10.608  0.3090 -0.0152 -0.7365
11589TIP3    H256259   5.076   0.229  10.493  0.0949 -0.0172 -0.8909
11590TIP3   OH256260   6.627   3.549  15.023  0.2120  0.3842 -0.4425
11590TIP3    H156261   6.566   3.519  14.955  0.3444 -0.3218 -0.2549
11590TIP3    H256262   6.650   3.638  14.996  0.7846 -0.1132 -1.7132
11591TIP3   OH256263   1.975   1.450   4.261 -0.1987 -0.6544 -0.6795
11591TIP3    H156264   2.064   1.417   4.251  0.0294 -0.5137  0.6939
11591TIP3    H256265   1.955   1.437   4.353 -1.0613  0.6290 -0.6575
11592TIP3   OH256266   3.437   2.863   6.653 -0.7675 -0.2532 -0.4769
11592TIP3    H156267   3.372   2.887   6.719  0.8591  1.8290  0.4649
11592TIP3    H256268   3.465   2.946   6.615  1.3375 -1.0761 -0.8380
11593TIP3   OH256269   2.630   3.986  15.721  0.0984 -0.3150 -0.2026
11593TIP3    H156270   2.593   3.902  15.747 -1.9097 -0.0459 -1.9402
11593TIP3    H256271   2.574   4.052  15.761  1.5157  0.2375  0.9493
11594TIP3   OH256272   4.930   3.968  16.829  0.2008  0.4611 -0.1525
11594TIP3    H156273   4.947   4.041  16.770  2.9502 -0.8678 -1.1812
11594TIP3    H256274   4.901   3.897  16.771 -2.3273  0.6158  0.8110
11595TIP3   OH256275   1.168   1.591   6.145  0.3565  0.2294 -0.1765
11595TIP3    H156276   1.228   1.629   6.081  3.4061  0.7132  2.6914
11595TIP3    H256277   1.165   1.655   6.216 -3.4447  0.0542  0.0103
11596TIP3   OH256278   0.101   0.519   4.160  0.8642 -0.3048 -0.1608
11596TIP3    H156279   0.136   0.607   4.146  0.1397 -0.0974 -0.7268
11596TIP3    H256280   0.078   0.517   4.253  3.3776 -0.8355  0.5063
11597TIP3   OH256281   2.505   3.200  16.750  0.2560  0.3445  0.8829
11597TIP3    H156282   2.446   3.276  16.746  0.0491  0.1708  0.6281
11597TIP3    H256283   2.449   3.125  16.731  0.4198  0.1017  1.3514
11598TIP3   OH256284   5.457   3.131  10.552  0.3622  0.6178 -0.3528
11598TIP3    H156285   5.519   3.202  10.568  0.1850  0.7971 -0.4587
11598TIP3    H256286   5.391   3.139  10.621  0.0749  0.8574 -0.6533
11599TIP3   OH256287   2.905   5.353   1.985  0.6243  0.6621  0.1707
11599TIP3    H156288   2.946   5.439   1.989 -0.1100  1.1034 -1.0220
11599TIP3    H256289   2.818   5.366   2.023  0.0182  0.7945 -1.2007
11600TIP3   OH256290   0.540   6.574   6.278 -0.0327 -0.3998 -0.5001
11600TIP3    H156291   0.635   6.571   6.267  0.0316  0.0630 -0.0689
11600TIP3    H256292   0.518   6.487   6.312  0.5930  0.3548  2.0639
11601TIP3   OH256293   4.160   0.484  13.899  0.0492 -0.0839 -0.9437
11601TIP3    H156294   4.140   0.403  13.852  1.4753 -0.8109 -0.3623
11601TIP3    H256295   4.218   0.533  13.840 -0.1913  0.1612 -0.9787
11602TIP3   OH256296   6.718   4.469   5.171 -0.4942  0.3755 -0.2792
11602TIP3    H156297   6.734   4.446   5.079 -0.2219  0.3294 -0.2208
11602TIP3    H256298   6.680   4.390   5.209 -1.1627  0.5817 -0.4897
11603TIP3   OH256299   3.697   6.235   4.021  0.5543 -0.3537 -0.0975
11603TIP3    H156300   3.636   6.223   3.948 -0.1692 -1.1418  0.6147
11603TIP3    H256301   3.641   6.256   4.096  1.3606  1.4858  0.0307
11604TIP3   OH256302   0.102   6.766  15.138 -0.1265 -0.2559 -0.7414
11604TIP3    H156303   0.087   6.833  15.204  2.1066 -0.3631 -0.0495
11604TIP3    H256304   0.066   6.803  15.057  0.1692  1.3444 -0.1699
11605TIP3   OH256305   3.335   1.676   0.766 -0.0900  0.3727 -0.0311
11605TIP3    H156306   3.304   1.713   0.849  2.1540  0.9964  0.5967
11605TIP3    H256307   3.282   1.719   0.699 -2.5871 -0.8110  1.0521
11606TIP3   OH256308   3.681   5.785   0.640  0.9009 -0.3781 -0.1832
11606TIP3    H156309   3.624   5.709   0.631 -0.1830  0.2765  0.8647
11606TIP3    H256310   3.712   5.781   0.731 -1.1367  1.7093  0.7002
11607TIP3   OH256311   6.183   3.389   5.275  0.0663 -0.6964 -0.3695
11607TIP3    H156312   6.269   3.348   5.275  0.6158  0.4403 -0.2243
11607TIP3    H256313   6.125   3.323   5.236  1.0568 -1.3272 -0.8004
11608TIP3   OH256314   5.277   5.889  13.379 -0.1280 -0.4635 -0.9316
11608TIP3    H156315   5.265   5.920  13.290 -3.0598  0.8877 -0.1919
11608TIP3    H256316   5.323   5.960  13.424 -1.3621  0.2138 -0.6967
11609TIP3   OH256317   6.088   5.455  11.842  0.3041 -0.2623  1.0812
11609TIP3    H156318   6.140   5.522  11.798  0.9360 -0.1591  1.9543
11609TIP3    H256319   6.104   5.470  11.935 -0.9039 -0.5444  1.3528
11610TIP3   OH256320   5.259   1.588  11.205  0.5070  0.5229  0.0375
11610TIP3    H156321   5.343   1.586  11.159 -0.5213  0.1216 -1.9300
11610TIP3    H256322   5.197   1.625  11.142 -1.4505 -2.1454  0.2040
11611TIP3   OH256323   3.480   2.550   1.270  0.0904  0.4091  0.2408
11611TIP3    H156324   3.494   2.630   1.320  1.4468  1.5294 -1.7817
11611TIP3    H256325   3.551   2.549   1.206  1.7196 -3.7985  1.7626
11612TIP3   OH256326   3.743   0.518   3.303 -0.0560  0.4179  0.2844
11612TIP3    H156327   3.684   0.489   3.373 -1.5758  0.3924 -0.9540
11612TIP3    H256328   3.785   0.597   3.338 -0.4706  0.1683  1.3797
11613TIP3   OH256329   5.946   4.099   3.910  0.0415  0.4537 -0.2203
11613TIP3    H156330   5.928   4.108   4.003 -0.2036  0.1652 -0.2384
11613TIP3    H256331   6.038   4.124   3.900  1.4031 -3.4621  0.7499
11614TIP3   OH256332   5.474   0.786  12.817  0.2326  0.1523 -0.2798
11614TIP3    H156333   5.417   0.845  12.769  0.0163 -0.7394 -1.1561
11614TIP3    H256334   5.540   0.843  12.857 -0.6518  1.0828 -0.1279
11615TIP3   OH256335   5.247   1.101   4.941 -0.4284  0.2194  0.6395
11615TIP3    H156336   5.196   1.021   4.952 -0.8335  0.3472 -0.2412
11615TIP3    H256337   5.308   1.081   4.870  1.5169 -0.2956  2.3746
11616TIP3   OH256338   2.414   0.359  11.872  0.2168 -0.3483 -0.2407
11616TIP3    H156339   2.463   0.314  11.803  0.4920 -0.2511 -0.1111
11616TIP3    H256340   2.448   0.448  11.871 -1.3293  0.2813 -1.4642
11617TIP3   OH256341   1.965   1.900  11.245  0.3169 -0.2270  0.3719
11617TIP3    H156342   2.018   1.965  11.200  0.5500 -0.6427  0.0405
11617TIP3    H256343   1.909   1.862  11.176 -2.8635  2.4925  1.1769
11618TIP3   OH256344   5.699   6.569   3.594  0.5901 -0.0337  0.3341
11618TIP3    H156345   5.753   6.498   3.558  1.2190 -1.0116  2.9478
11618TIP3    H256346   5.614   6.528   3.611  0.2386  0.4632 -0.1943
11619TIP3   OH256347   1.635   3.059  16.253 -0.4833 -0.0154  0.4427
11619TIP3    H156348   1.714   3.114  16.255 -0.6675  0.2479  0.7552
11619TIP3    H256349   1.565   3.120  16.232 -0.4742 -0.4292 -0.8479
11620TIP3   OH256350   4.373   1.780   5.376  0.3761  0.2797 -0.6210
11620TIP3    H156351   4.302   1.723   5.407  0.0560  0.3345 -1.2449
11620TIP3    H256352   4.380   1.761   5.283  0.1439  1.3882 -0.8761
11621TIP3   OH256353   2.739   4.972  14.738 -0.4578  0.3196  0.3817
11621TIP3    H156354   2.789   5.005  14.813 -2.2859  0.8063  1.4533
11621TIP3    H256355   2.729   4.878  14.754 -2.0047  0.6381  1.5302
11622TIP3   OH256356   5.197   3.411   5.312 -0.0371 -0.5889  0.2255
11622TIP3    H156357   5.278   3.456   5.286 -0.0628  0.4746  1.7685
11622TIP3    H256358   5.157   3.383   5.230  0.2311  1.8423 -0.8225
11623TIP3   OH256359   1.524   4.105  13.374 -0.4108 -0.3077  0.1410
11623TIP3    H156360   1.579   4.172  13.416 -1.0715  0.4575 -0.2000
11623TIP3    H256361   1.524   4.032  13.436  0.8569 -0.2601  0.2164
11624TIP3   OH256362   3.307   4.558  16.679 -0.2757 -0.1611 -0.2791
11624TIP3    H156363   3.281   4.552  16.587 -0.0447  0.9832 -0.4365
11624TIP3    H256364   3.350   4.643  16.686 -1.0776  0.1653  1.0779
11625TIP3   OH256365   3.996   6.070   1.819 -0.0081 -0.5972 -0.0045
11625TIP3    H156366   4.067   6.011   1.845 -1.4469 -1.8568  1.3038
11625TIP3    H256367   3.924   6.048   1.878 -2.2431 -0.8959 -2.6597
11626TIP3   OH256368   5.801   1.488  12.667 -0.6598 -0.0063 -0.0881
11626TIP3    H156369   5.779   1.546  12.741  1.2232  0.2178  0.3568
11626TIP3    H256370   5.737   1.511  12.600 -0.9917  1.4349  0.6629
11627TIP3   OH256371   4.797   3.803  14.764 -0.2255  0.3548  0.4717
11627TIP3    H156372   4.704   3.825  14.756 -0.6527 -1.8940 -2.5961
11627TIP3    H256373   4.798   3.724  14.817 -0.1514 -0.0038 -0.0589
11628TIP3   OH256374   0.075   1.740  11.893 -0.4391  0.1608 -0.2517
11628TIP3    H156375  -0.013   1.758  11.926  0.3382  0.9677  1.5044
11628TIP3    H256376   0.072   1.648  11.866 -1.3173 -0.4421  1.6786
11629TIP3   OH256377   0.401   4.657  16.723  0.2220  0.8714  0.0018
11629TIP3    H156378   0.384   4.751  16.729 -0.9304  0.5981  2.2178
11629TIP3    H256379   0.476   4.642  16.781  0.2051  0.3918 -0.0945
11630TIP3   OH256380   1.384   1.273  16.610 -0.3554 -0.1674  1.0041
11630TIP3    H156381   1.470   1.232  16.599 -0.4060  0.1210 -0.7241
11630TIP3    H256382   1.323   1.199  16.609 -0.2364 -0.2653  0.6178
11631TIP3   OH256383   1.380   2.815   0.121 -0.1014 -0.7945 -0.5289
11631TIP3    H156384   1.442   2.805   0.050 -0.2823  1.0035 -0.9831
11631TIP3    H256385   1.434   2.822   0.200  0.1100 -2.4220 -0.5055
11632TIP3   OH256386   5.798   1.030  13.841  0.6083 -0.4661  0.0486
11632TIP3    H156387   5.743   1.043  13.919  1.5668 -0.0657  0.6818
11632TIP3    H256388   5.742   0.985  13.779 -0.2746 -0.5253  0.8700
11633TIP3   OH256389   5.069   1.841  12.765 -0.2716 -0.3082  0.2479
11633TIP3    H156390   4.986   1.871  12.801 -1.0604 -2.8599  0.7437
11633TIP3    H256391   5.109   1.790  12.836  2.0742  1.3262  0.2396
11634TIP3   OH256392   1.202   1.604  11.460  0.3252  0.1846  0.0816
11634TIP3    H156393   1.143   1.537  11.492  1.5533 -1.0629 -0.1516
11634TIP3    H256394   1.285   1.558  11.446  1.4098  1.9008  0.5981
11635TIP3   OH256395   2.814   2.858   0.725  0.1569  0.3723  0.0435
11635TIP3    H156396   2.806   2.784   0.665  0.9033 -0.3127  0.7738
11635TIP3    H256397   2.741   2.915   0.702  1.2318  0.8523 -2.5088
11636TIP3   OH256398   5.164   4.073   5.624  0.7279  0.9614  0.1937
11636TIP3    H156399   5.138   4.016   5.696  2.4563  0.1275  0.2038
11636TIP3    H256400   5.136   4.027   5.545 -0.1931  1.3565  0.2825
11637TIP3   OH256401   0.626   0.274  12.152 -0.0057  0.1932 -0.1077
11637TIP3    H156402   0.624   0.180  12.172  0.9722  0.3361  0.7329
11637TIP3    H256403   0.535   0.295  12.132 -0.4703 -0.6897  0.9254
11638TIP3   OH256404   6.020   2.868  12.223  0.2642  0.3481 -0.3949
11638TIP3    H156405   5.981   2.883  12.309  1.2191  1.1573 -0.0868
11638TIP3    H256406   6.107   2.832  12.241  0.7227  1.1195 -1.0023
11639TIP3   OH256407   6.465   2.729   3.701  0.4454 -0.4813 -0.1764
11639TIP3    H156408   6.383   2.706   3.657  0.7985  0.1572 -1.1911
11639TIP3    H256409   6.534   2.699   3.641  0.9449 -0.3297  0.3149
11640TIP3   OH256410   6.559   5.137   0.795  0.1221  0.0859 -0.3243
11640TIP3    H156411   6.525   5.220   0.827  1.5786 -0.2450  2.3157
11640TIP3    H256412   6.635   5.161   0.742  1.8244  0.4862  2.1169
11641TIP3   OH256413   2.664   5.321   0.220  0.4136  0.5335 -0.1348
11641TIP3    H156414   2.572   5.346   0.232  0.5293  0.7303  0.3454
11641TIP3    H256415   2.714   5.395   0.253  0.7528  0.8943 -1.4103
11642TIP3   OH256416   1.164   2.535  14.117  0.1639 -0.4415  0.1833
11642TIP3    H156417   1.158   2.599  14.188  0.4405 -0.2433  0.0312
11642TIP3    H256418   1.079   2.538  14.075  0.2850  0.0817 -0.0361
11643TIP3   OH256419   1.049   0.029  11.660 -0.4362  0.4763 -0.0039
11643TIP3    H156420   1.114  -0.041  11.662 -0.4043  0.4887 -0.4393
11643TIP3    H256421   0.990   0.009  11.733  0.0540  0.4701  0.3972
11644TIP3   OH256422   4.183   5.180   0.292  0.0227  0.1894  0.5565
11644TIP3    H156423   4.228   5.096   0.289 -0.4316 -0.0588  0.6300
11644TIP3    H256424   4.248   5.244   0.262  1.0196  0.1043  2.3497
11645TIP3   OH256425   5.538   3.085  13.009  0.4506  0.2839 -0.0246
11645TIP3    H156426   5.620   3.055  13.049  0.0741  0.6344  1.0318
11645TIP3    H256427   5.477   3.012  13.020  0.3565  0.3668  0.0035
11646TIP3   OH256428   0.555   2.325  15.172  0.3376  0.1920 -0.2195
11646TIP3    H156429   0.473   2.302  15.129  0.2316 -1.3024  0.7020
11646TIP3    H256430   0.576   2.412  15.138 -0.6805 -0.1426 -1.8370
11647TIP3   OH256431   0.460   3.985   1.899 -0.3139 -0.3173  0.1438
11647TIP3    H156432   0.542   3.978   1.850 -0.6167 -1.3454 -0.2298
11647TIP3    H256433   0.391   3.973   1.833 -0.7681  0.1001  0.5255
11648TIP3   OH256434   2.689   2.367  12.558  0.1846  0.4604  0.1255
11648TIP3    H156435   2.708   2.420  12.635  1.1050 -0.5071  0.5892
11648TIP3    H256436   2.752   2.295  12.562  0.5415  0.6076 -1.7562
11649TIP3   OH256437   4.327   4.370   3.079 -0.1163  0.0991 -0.4270
11649TIP3    H156438   4.401   4.333   3.030  1.1471 -0.9116  2.0836
11649TIP3    H256439   4.344   4.464   3.082  0.6892 -0.0404 -0.4887
11650TIP3   OH256440   4.002   1.666  12.025 -0.3327 -0.4869  0.3167
11650TIP3    H156441   3.936   1.648  11.958 -0.1995 -1.0400  0.3251
11650TIP3    H256442   3.953   1.668  12.107 -0.8916  2.5945  0.0060
11651TIP3   OH256443   0.620   6.105   3.553  1.0070  0.1846  0.0813
11651TIP3    H156444   0.689   6.171   3.556 -0.4305  1.7410  0.0190
11651TIP3    H256445   0.548   6.147   3.506 -0.5100 -0.8956  1.3470
11652TIP3   OH256446   5.556   3.129  16.874 -0.2995  0.3956  0.2785
11652TIP3    H156447   5.480   3.102  16.925  1.4551 -0.9935  2.3691
11652TIP3    H256448   5.579   3.215  16.908  0.2066 -0.0476  1.0885
11653TIP3   OH256449   2.243   1.814  10.897  0.2915 -0.0130  0.2357
11653TIP3    H156450   2.263   1.904  10.873  0.1950  0.1889  0.8887
11653TIP3    H256451   2.215   1.773  10.815  1.1745  0.3046 -0.2477
11654TIP3   OH256452   3.180   1.799  12.652 -0.4496  0.0823  0.2706
11654TIP3    H156453   3.238   1.802  12.576 -0.3825 -0.4437  0.3026
11654TIP3    H256454   3.144   1.710  12.652 -1.4211  0.4612  0.1266
11655TIP3   OH256455   2.363   1.828   5.681 -0.5227  0.2632  0.5147
11655TIP3    H156456   2.457   1.811   5.679 -0.8287 -1.6172  0.1354
11655TIP3    H256457   2.323   1.743   5.666 -2.2957  1.2840 -1.0008
11656TIP3   OH256458   1.772   4.576  13.124 -0.2405 -0.1949 -0.1495
11656TIP3    H156459   1.704   4.631  13.086 -0.4101 -0.7934 -0.7148
11656TIP3    H256460   1.845   4.637  13.142 -1.7220  0.9656  2.6942
11657TIP3   OH256461   0.485   2.165   2.081  0.2109 -0.2493 -0.8542
11657TIP3    H156462   0.479   2.189   2.173 -0.6234  0.9746 -1.1940
11657TIP3    H256463   0.429   2.088   2.072 -0.3173  0.0857 -0.4784
11658TIP3   OH256464   3.862   2.117   3.305  0.1241  0.1803  0.2429
11658TIP3    H156465   3.929   2.057   3.273  1.3473  2.1858 -1.1736
11658TIP3    H256466   3.779   2.072   3.287  0.9342 -0.6222 -1.8072
11659TIP3   OH256467   1.643   2.907  16.503 -0.0706 -0.2800  0.0180
11659TIP3    H156468   1.617   2.956  16.425 -1.1732 -0.7548  0.0645
11659TIP3    H256469   1.664   2.820  16.471  1.6655  0.1359 -0.0314
11660TIP3   OH256470   1.800   1.840   2.516 -0.2808 -0.6370 -0.0366
11660TIP3    H156471   1.746   1.851   2.594  1.0160 -0.8296  0.9261
11660TIP3    H256472   1.866   1.908   2.523  1.0903 -1.9235  0.1378
11661TIP3   OH256473   4.205   2.964   3.326 -0.3859 -0.5281 -0.1334
11661TIP3    H156474   4.146   2.920   3.265 -1.4496  1.4335 -0.5820
11661TIP3    H256475   4.283   2.984   3.274 -0.0939 -1.3734 -0.0504
11662TIP3   OH256476   5.663   4.682   0.908  0.1379  0.5720 -0.0391
11662TIP3    H156477   5.676   4.760   0.963 -0.4820  1.7063 -1.4482
11662TIP3    H256478   5.600   4.710   0.842 -0.0357 -1.1261 -0.6297
11663TIP3   OH256479   2.242   1.418  16.360 -0.2917 -0.0930 -0.6475
11663TIP3    H156480   2.294   1.426  16.280  0.3405 -0.3723 -0.2790
11663TIP3    H256481   2.152   1.433  16.332 -0.6526 -3.9495 -2.1558
11664TIP3   OH256482   6.411   4.735  15.739  0.0912  0.1502 -0.1093
11664TIP3    H156483   6.391   4.644  15.717 -1.9859 -0.2192  2.7460
11664TIP3    H256484   6.326   4.772  15.764  0.9481  2.8145 -0.8812
11665TIP3   OH256485   1.416   0.150   4.162 -0.1323  0.0027  0.2311
11665TIP3    H156486   1.375   0.072   4.200  1.0767 -0.5957  0.3386
11665TIP3    H256487   1.457   0.119   4.082 -0.5116  0.7478 -0.2574
11666TIP3   OH256488   4.611   0.588  16.842 -0.1400 -0.3020 -0.2131
11666TIP3    H156489   4.573   0.511  16.799 -1.4210 -1.2585  2.3901
11666TIP3    H256490   4.691   0.555  16.884 -0.4380 -0.1092  0.5173
11667TIP3   OH256491   1.506   0.720   0.579  0.6626 -0.2016  0.0544
11667TIP3    H156492   1.518   0.811   0.552  2.1599  0.1262  1.6343
11667TIP3    H256493   1.413   0.703   0.566 -0.1280  2.2692  1.7660
11668TIP3   OH256494   3.295   3.288   1.137 -0.3619  0.1027 -0.4419
11668TIP3    H156495   3.269   3.323   1.222 -3.0548  0.4278 -1.2933
11668TIP3    H256496   3.342   3.360   1.095 -1.4312  0.9467 -0.2379
11669TIP3   OH256497   5.065   6.759  17.099 -0.0007  0.2406  0.6507
11669TIP3    H156498   5.093   6.803  17.018  1.3165 -0.8096  0.5027
11669TIP3    H256499   4.995   6.815  17.133 -0.5816  0.7257 -1.2015
11670TIP3   OH256500   2.869   2.949  11.858 -0.2386  0.1674 -0.3581
11670TIP3    H156501   2.810   2.900  11.915 -0.4494  0.5635 -0.2298
11670TIP3    H256502   2.900   2.885  11.795 -0.2721 -0.2000 -0.0074
11671TIP3   OH256503   3.313   1.677  13.873  0.3885  0.0879 -0.0372
11671TIP3    H156504   3.233   1.659  13.823  0.5325 -1.7471  0.3163
11671TIP3    H256505   3.379   1.696  13.806  0.4203 -1.6926 -0.5654
11672TIP3   OH256506   0.074   1.492   0.942  0.6337  0.2831  0.0487
11672TIP3    H156507   0.125   1.518   0.865  0.8674  2.1843  0.7878
11672TIP3    H256508   0.129   1.429   0.988  2.9189  3.0482  1.3858
11673TIP3   OH256509   5.012   1.617   5.531  0.0067  0.0027  0.4272
11673TIP3    H156510   5.003   1.597   5.624  0.6583 -0.8774  0.3134
11673TIP3    H256511   4.932   1.666   5.509 -0.4147 -0.2664  1.3139
11674TIP3   OH256512   4.128   2.392  15.550  0.4948 -0.3949 -0.2463
11674TIP3    H156513   4.052   2.333  15.552 -0.0655  0.2636 -1.1568
11674TIP3    H256514   4.204   2.334  15.558 -0.0965 -0.9507  2.3292
11675TIP3   OH256515   4.507   2.934  11.864  0.2672  0.1853  0.0503
11675TIP3    H156516   4.445   2.925  11.936 -0.3786 -1.1179 -0.6279
11675TIP3    H256517   4.455   2.970  11.792 -0.2292 -2.6117 -1.0930
11676TIP3   OH256518   1.522   3.861   5.971  0.0229 -0.0967  0.1103
11676TIP3    H156519   1.572   3.819   6.041  1.6577 -1.2035 -1.6132
11676TIP3    H256520   1.506   3.791   5.907  0.0326  1.1961 -1.3833
11677TIP3   OH256521   0.256   4.345  11.579 -0.1217 -0.2781 -0.1147
11677TIP3    H156522   0.346   4.376  11.576 -0.7199  1.4399 -1.8018
11677TIP3    H256523   0.204   4.418  11.548 -1.7763 -2.4153 -2.8303
11678TIP3   OH256524   0.818   2.172  12.598 -0.1922 -0.0916  0.1139
11678TIP3    H156525   0.833   2.201  12.508  0.5395 -3.0850 -0.8496
11678TIP3    H256526   0.732   2.207  12.621 -0.4310  0.6654 -1.7826
11679TIP3   OH256527   6.035   1.250  13.977  0.5426 -0.3860  0.0308
11679TIP3    H156528   6.115   1.288  13.941 -0.0335 -0.5206 -1.4412
11679TIP3    H256529   6.035   1.160  13.945 -0.8264 -0.0264 -1.0912
11680TIP3   OH256530   5.077   1.609  14.657  0.6772 -0.4586 -0.0504
11680TIP3    H156531   5.063   1.518  14.630 -0.3028 -0.4685  0.4294
11680TIP3    H256532   5.172   1.618  14.663  0.8174 -1.2033 -0.9280
11681TIP3   OH256533   5.719   3.161  11.825 -0.6575 -0.0167 -0.5186
11681TIP3    H156534   5.652   3.191  11.887 -0.5059  0.6068 -0.6492
11681TIP3    H256535   5.701   3.068  11.813 -0.7599 -0.1149  0.3714
11682TIP3   OH256536   3.904   2.547   6.621  0.0359 -0.1857 -0.0376
11682TIP3    H156537   3.924   2.470   6.675 -1.0314 -0.7877 -0.4817
11682TIP3    H256538   3.986   2.565   6.575  0.5193 -0.5868  0.6400
11683TIP3   OH256539   5.706   6.079  17.278  0.3818 -0.2079 -0.3694
11683TIP3    H156540   5.786   6.061  17.328  0.4300 -2.5217 -1.1286
11683TIP3    H256541   5.728   6.054  17.188  0.4309  4.1804 -1.7967
11684TIP3   OH256542   5.776   2.007   0.950 -0.2949  0.4676  0.3857
11684TIP3    H156543   5.737   2.088   0.981 -1.0606  0.1764  0.2062
11684TIP3    H256544   5.731   1.988   0.868  0.1164  0.0360  0.2508
11685TIP3   OH256545   2.938   4.649  13.486  0.5718 -0.2679 -0.1468
11685TIP3    H156546   2.971   4.631  13.574  1.0890  1.0733 -0.0536
11685TIP3    H256547   2.843   4.648  13.496  0.6257 -0.1545  0.4200
11686TIP3   OH256548   1.531   2.792  15.819  0.1429 -0.0257 -0.0209
11686TIP3    H156549   1.449   2.802  15.771  0.8452  1.1782 -1.0378
11686TIP3    H256550   1.507   2.809  15.910 -0.9828 -1.1365 -0.0745
11687TIP3   OH256551   1.688   0.124  13.558 -0.3878  0.8960  0.3611
11687TIP3    H156552   1.757   0.139  13.622  1.1597  0.9479 -1.2165
11687TIP3    H256553   1.637   0.205  13.556  0.1944  1.2746  0.7707
11688TIP3   OH256554   2.426   1.948  13.936  0.0706 -0.3605  0.1838
11688TIP3    H156555   2.486   1.928  14.008 -0.5357 -0.8301  0.5737
11688TIP3    H256556   2.481   1.991  13.870  1.0724 -1.6976  0.0885
11689TIP3   OH256557   1.090   3.594   5.366  0.0411  0.1403 -0.3000
11689TIP3    H156558   1.089   3.645   5.285 -1.0687  1.6640  0.6314
11689TIP3    H256559   1.052   3.510   5.341  1.2302 -0.0235 -1.7066
11690TIP3   OH256560   0.853   3.887  11.558 -0.2838  0.3077  0.4088
11690TIP3    H156561   0.813   3.961  11.513 -2.1019  0.4553  2.1100
11690TIP3    H256562   0.879   3.827  11.488 -3.2884  0.3437 -0.8612
11691TIP3   OH256563   4.845   3.892  11.843 -0.0412 -0.0132 -0.3506
11691TIP3    H156564   4.930   3.860  11.813 -0.3790 -2.6190  1.1183
11691TIP3    H256565   4.834   3.977  11.801  3.1242  0.2599 -0.8337
11692TIP3   OH256566   0.770   3.866   5.968  0.0756 -0.0031 -0.5997
11692TIP3    H156567   0.838   3.887   6.032 -0.2031  3.1160 -1.1334
11692TIP3    H256568   0.814   3.809   5.905  0.6687 -2.1989  1.6503
11693TIP3   OH256569   0.095   0.463   4.466 -0.2701 -0.3199 -0.0171
11693TIP3    H156570   0.044   0.535   4.502  1.3376  0.3917  0.9769
11693TIP3    H256571   0.175   0.504   4.433  0.7854 -1.6541  0.7685
11694TIP3   OH256572   0.516   0.697  14.598  0.3142 -0.0141 -0.1090
11694TIP3    H156573   0.594   0.732  14.640  0.7634  1.3598 -1.9712
11694TIP3    H256574   0.525   0.720  14.505 -1.9705 -0.4036 -0.5035
11695TIP3   OH256575   4.557   3.587   2.737  0.4005 -0.0031  0.4838
11695TIP3    H156576   4.555   3.670   2.690 -0.4546 -0.0630  0.4054
11695TIP3    H256577   4.478   3.541   2.710  0.7141 -0.7255  0.7492
11696TIP3   OH256578   4.575   4.654  12.117 -0.4742 -0.4499 -0.5564
11696TIP3    H156579   4.583   4.595  12.043 -1.3922  0.0664 -1.0884
11696TIP3    H256580   4.501   4.711  12.095  0.8196  1.3797 -0.3977
11697TIP3   OH256581   0.193   3.012  12.784 -0.2554  0.3082  0.1336
11697TIP3    H156582   0.263   2.960  12.823  0.6984  0.4857 -1.2659
11697TIP3    H256583   0.178   2.971  12.699 -0.4798  1.4570 -0.3969
11698TIP3   OH256584   2.153   5.452   0.927  0.2330  0.0155  0.3533
11698TIP3    H156585   2.151   5.394   1.004  0.8041 -1.2731 -0.5596
11698TIP3    H256586   2.199   5.530   0.957 -2.4977  1.0221  2.2571
11699TIP3   OH256587   3.292   4.644  15.418  0.0541  0.1335  0.3727
11699TIP3    H156588   3.350   4.588  15.366 -0.6988 -1.4521  1.1799
11699TIP3    H256589   3.225   4.673  15.356  0.2893 -0.1017  0.0061
11700TIP3   OH256590   6.109   5.839  14.362  0.0597  0.4085  0.6272
11700TIP3    H156591   6.086   5.823  14.270 -1.3759  0.0322  1.0258
11700TIP3    H256592   6.079   5.929  14.379 -0.6525  0.0985  1.0172
11701TIP3   OH256593   6.739   0.719   1.794  0.4657 -0.0843  0.0432
11701TIP3    H156594   6.809   0.782   1.810  0.1027  0.6342 -1.0663
11701TIP3    H256595   6.784   0.640   1.761  0.8583 -0.1255  0.6696
11702TIP3   OH256596   0.186   4.831   5.749  0.2753  0.0156  0.0180
11702TIP3    H156597   0.198   4.898   5.682  0.7569 -0.5548 -0.4746
11702TIP3    H256598   0.274   4.797   5.766 -0.0577 -1.0670 -0.3401
11703TIP3   OH256599   4.155   5.859   5.425 -0.2311 -0.2835 -0.0691
11703TIP3    H156600   4.100   5.796   5.379 -0.1317 -0.8939  0.6194
11703TIP3    H256601   4.113   5.871   5.510  1.3776 -1.8737  1.0591
11704TIP3   OH256602   4.191   3.930   2.280  0.2574 -0.0719  0.3058
11704TIP3    H156603   4.262   3.909   2.219 -0.3098 -0.4581 -0.2327
11704TIP3    H256604   4.113   3.896   2.238 -0.4782  1.6242  0.1975
11705TIP3   OH256605   4.683   2.900  16.149  0.3299  0.3808  0.3543
11705TIP3    H156606   4.601   2.875  16.191  0.6935  0.0230  0.8582
11705TIP3    H256607   4.713   2.976  16.199  0.4915  0.2865  0.4008
11706TIP3   OH256608   4.042   4.793   1.235  0.4628  0.5114 -0.2344
11706TIP3    H156609   4.021   4.700   1.232 -1.4024  0.7728  1.8148
11706TIP3    H256610   4.003   4.830   1.156 -0.8364 -0.1123  0.0946
11707TIP3   OH256611   2.426   0.631   0.886  0.0083 -0.2287  0.3908
11707TIP3    H156612   2.393   0.570   0.951  0.2072 -0.2151  0.5068
11707TIP3    H256613   2.514   0.600   0.866  0.3354  0.3580  0.8918
11708TIP3   OH256614   2.205   2.505  15.877 -0.4414  0.0949 -0.0719
11708TIP3    H156615   2.277   2.567  15.867  0.4700 -1.1126 -1.4438
11708TIP3    H256616   2.166   2.500  15.790  0.5496 -2.4403 -0.4493
11709TIP3   OH256617   4.304   6.524   2.536  0.3747  0.0851  0.4267
11709TIP3    H156618   4.332   6.433   2.527 -1.6314 -0.6444  0.8316
11709TIP3    H256619   4.250   6.540   2.459  0.5847  0.8925  0.4380
11710TIP3   OH256620   5.987   1.308   6.084  0.1133 -0.1591  0.0140
11710TIP3    H156621   5.899   1.300   6.049 -0.3937  0.8629  1.0159
11710TIP3    H256622   5.986   1.257   6.165 -0.6523  2.6547  1.9171
11711TIP3   OH256623   6.787   3.643   2.621 -0.8466  0.0974 -0.0032
11711TIP3    H156624   6.786   3.605   2.709 -0.6740  1.8518  0.7963
11711TIP3    H256625   6.841   3.583   2.570 -1.1223 -1.0731  1.0228
11712TIP3   OH256626   6.607   4.045   5.791 -0.0584  0.1100 -0.0621
11712TIP3    H156627   6.539   4.064   5.856 -0.1622  1.7742 -0.5887
11712TIP3    H256628   6.688   4.073   5.833 -0.1130  1.0893 -0.5578
11713TIP3   OH256629   6.036   0.837   3.087  0.8331  0.0165 -0.3736
11713TIP3    H156630   5.953   0.876   3.116 -0.3822 -1.6071 -1.4689
11713TIP3    H256631   6.082   0.817   3.169 -0.2750  0.0899  0.3004
11714TIP3   OH256632   6.299   0.654   1.791 -0.0323 -0.5204 -0.4110
11714TIP3    H156633   6.350   0.735   1.782  0.4380 -0.7141  0.4302
11714TIP3    H256634   6.355   0.596   1.843 -1.3010 -0.5627  0.9739
11715TIP3   OH256635   5.570   5.510  15.393 -0.0534 -0.3494  0.4123
11715TIP3    H156636   5.532   5.429  15.424 -1.9473 -0.0645 -1.0124
11715TIP3    H256637   5.499   5.574  15.397  1.2473  1.1514  1.0177
11716TIP3   OH256638   1.487   4.822  14.126  0.0705  0.6535  0.7872
11716TIP3    H156639   1.485   4.806  14.032  0.8185  0.7369  0.7509
11716TIP3    H256640   1.529   4.744  14.162  0.0001  0.7265  1.0290
11717TIP3   OH256641   5.019   5.418  11.611  0.4238 -0.1749  0.0952
11717TIP3    H156642   5.075   5.356  11.564 -0.0063  0.0749 -0.7832
11717TIP3    H256643   4.968   5.460  11.542  0.4258  0.8768  0.7181
11718TIP3   OH256644   0.057   2.532   6.256  0.6561  0.1403  0.7588
11718TIP3    H156645   0.087   2.576   6.335  0.8825  1.0989  0.1615
11718TIP3    H256646   0.090   2.587   6.184 -1.9459  0.9103  0.0474
11719TIP3   OH256647   5.223   5.257  14.292 -0.2138  0.1758  0.1211
11719TIP3    H156648   5.194   5.241  14.203  0.1749 -2.1208  0.3334
11719TIP3    H256649   5.167   5.201  14.346  0.4389  0.4948  1.1620
11720TIP3   OH256650   6.052   3.951  11.534  0.1806  0.4561 -0.5090
11720TIP3    H156651   6.138   3.994  11.532  0.2139  0.3801 -1.0307
11720TIP3    H256652   6.072   3.859  11.554 -0.0609  1.0283  2.8211
11721TIP3   OH256653   4.172   5.937  11.919  0.4192  0.0601  0.7339
11721TIP3    H156654   4.241   6.003  11.925 -1.3930  2.0180  1.4996
11721TIP3    H256655   4.100   5.982  11.875  0.0116 -2.2937 -1.1693
11722TIP3   OH256656   6.326   0.996   2.007 -0.7786  0.2490  0.7894
11722TIP3    H156657   6.398   0.948   1.965 -0.7492 -0.0199  1.1473
11722TIP3    H256658   6.302   1.063   1.943 -0.2537  0.2978  0.6370
11723TIP3   OH256659   3.138   3.733  16.642  0.6252 -0.2297  0.3977
11723TIP3    H156660   3.118   3.826  16.634  0.6082 -0.2698 -0.0641
11723TIP3    H256661   3.176   3.724  16.729 -0.0051  0.0913  0.7131
11724TIP3   OH256662   5.873   4.380   3.430  0.3964  0.2375  0.0001
11724TIP3    H156663   5.791   4.361   3.476  0.5701 -2.1556 -0.5498
11724TIP3    H256664   5.923   4.299   3.436  2.1255  1.1818 -0.9481
11725TIP3   OH256665   0.615   0.240   2.600 -0.6373 -0.2941  0.3177
11725TIP3    H156666   0.632   0.234   2.506  0.8825 -1.0855  0.6164
11725TIP3    H256667   0.563   0.320   2.609 -1.4745 -0.6074 -1.2674
11726TIP3   OH256668   4.835   2.608   0.725  0.3499  0.0532  0.1131
11726TIP3    H156669   4.750   2.621   0.682 -0.1153  0.5649  1.1525
11726TIP3    H256670   4.874   2.695   0.726  0.2719  0.0831  0.8872
11727TIP3   OH256671   5.993   6.505   4.616 -0.5805 -0.5312  0.1863
11727TIP3    H156672   6.016   6.590   4.579 -2.0966 -1.2791 -2.8563
11727TIP3    H256673   5.899   6.512   4.635 -0.8686 -1.6464 -0.6865
11728TIP3   OH256674   5.363   2.519   1.980 -0.1297 -0.3143  0.1219
11728TIP3    H156675   5.426   2.454   1.949  1.3680  1.5002 -0.9501
11728TIP3    H256676   5.322   2.552   1.900  0.8671  1.6446  0.3443
11729TIP3   OH256677   0.711   6.723  14.817 -0.1446 -0.7051 -0.3247
11729TIP3    H156678   0.767   6.645  14.813 -0.5764 -0.9865 -1.0043
11729TIP3    H256679   0.716   6.751  14.908  0.5608 -1.1257 -0.2233
11730TIP3   OH256680   4.473   6.805  14.721 -0.3001  0.9579  0.0965
11730TIP3    H156681   4.468   6.741  14.650  0.6979  0.9012  0.0593
11730TIP3    H256682   4.387   6.846  14.724 -0.6238  0.3255 -0.5543
11731TIP3   OH256683   1.619   4.389  16.286 -0.5345 -0.4051 -0.7751
11731TIP3    H156684   1.664   4.385  16.202  0.7543  0.8747 -0.1957
11731TIP3    H256685   1.546   4.450  16.271 -0.9137 -0.9474 -1.1960
11732TIP3   OH256686   6.726   5.373  12.949  0.1559  0.0652 -0.3996
11732TIP3    H156687   6.795   5.395  13.012 -0.0761  0.6761 -0.3580
11732TIP3    H256688   6.771   5.374  12.864 -0.3328  3.2499 -0.7256
11733TIP3   OH256689   0.213   0.863   1.059  0.7585  0.0164 -0.4866
11733TIP3    H156690   0.292   0.811   1.050 -0.6025 -3.1632  2.9288
11733TIP3    H256691   0.142   0.803   1.037 -0.8205  1.9726 -1.0416
11734TIP3   OH256692   4.313   4.549  13.196  0.5203 -0.3747 -0.1001
11734TIP3    H156693   4.398   4.593  13.207  1.2515 -1.7440  0.0395
11734TIP3    H256694   4.324   4.466  13.242 -0.8020 -0.7139 -0.3699
11735TIP3   OH256695   4.578   4.101   2.029  0.6868 -0.4703  0.1845
11735TIP3    H156696   4.588   4.172   2.093 -0.1370 -0.3041  0.1371
11735TIP3    H256697   4.513   4.134   1.967  0.7855 -1.0135 -0.2142
11736TIP3   OH256698   3.543   2.323   1.447  0.5912 -0.7299  0.5072
11736TIP3    H156699   3.579   2.325   1.358 -0.0015 -1.6833  0.2303
11736TIP3    H256700   3.454   2.355   1.437  1.3921  1.9589  1.2471
11737TIP3   OH256701   3.314   6.397  11.726  0.0983  0.3996 -0.1049
11737TIP3    H156702   3.356   6.322  11.686 -0.1464  0.4725 -0.5067
11737TIP3    H256703   3.349   6.473  11.679  1.7681  0.7035  1.5338
11738TIP3   OH256704   6.093   3.730   3.055  0.2638  0.5869  0.1362
11738TIP3    H156705   6.029   3.724   2.984  0.4941 -0.6587  0.0242
11738TIP3    H256706   6.167   3.778   3.016 -0.4298  1.7274  0.1651
11739TIP3   OH256707   2.099   5.818   5.694 -0.5229  0.7711  0.7268
11739TIP3    H156708   2.170   5.882   5.697  0.1860 -0.0183  1.9578
11739TIP3    H256709   2.058   5.832   5.609  1.9953  0.3477 -0.6758
11740TIP3   OH256710   1.364   3.185  15.416  0.0237 -0.3046 -0.2015
11740TIP3    H156711   1.433   3.228  15.467  0.4902 -0.5033 -0.6658
11740TIP3    H256712   1.366   3.229  15.331 -1.4348  0.7360  0.2598
11741TIP3   OH256713   1.804   4.601  13.694  0.6238 -0.3133 -0.6394
11741TIP3    H156714   1.884   4.581  13.742  1.3046  0.8942 -1.2178
11741TIP3    H256715   1.833   4.621  13.606 -0.4199 -0.6783 -1.0844
11742TIP3   OH256716   1.864   0.031  14.374 -0.0709  1.2732  0.3129
11742TIP3    H156717   1.932   0.077  14.324 -0.7262  2.5304  0.5601
11742TIP3    H256718   1.783   0.052  14.329 -0.2644 -0.8935 -0.4790
11743TIP3   OH256719   6.433   3.730   2.294 -0.2799 -0.1443  0.2510
11743TIP3    H156720   6.511   3.782   2.279  0.9115 -1.7558  0.5969
11743TIP3    H256721   6.361   3.785   2.264  1.0119  1.2274 -0.4352
11744TIP3   OH256722   6.221   1.825  13.789  0.0751 -0.7090  0.0806
11744TIP3    H156723   6.153   1.872  13.837 -0.7767 -2.2118  0.4357
11744TIP3    H256724   6.185   1.737  13.778  0.9542 -0.8713 -1.8748
11745TIP3   OH256725   5.038   2.543   3.810  0.0172 -0.9663  0.3735
11745TIP3    H156726   5.029   2.564   3.717  0.3585  0.3553  0.6091
11745TIP3    H256727   4.956   2.573   3.850  0.2905 -0.5586  0.6415
11746TIP3   OH256728   5.731   1.240   2.052  0.4080  0.0010 -0.2667
11746TIP3    H156729   5.821   1.271   2.061  0.1551  0.5411  0.5223
11746TIP3    H256730   5.726   1.206   1.962  1.0762  1.0560 -0.7285
11747TIP3   OH256731   5.796   0.538  11.591  1.0145  0.0189 -0.1623
11747TIP3    H156732   5.748   0.458  11.615  2.3267 -0.6130  0.4222
11747TIP3    H256733   5.741   0.609  11.624 -0.0332 -0.6353 -0.4389
11748TIP3   OH256734   1.450   0.870  14.783  1.0146 -0.4831  0.8849
11748TIP3    H156735   1.496   0.845  14.703 -1.5106 -1.0887 -0.4885
11748TIP3    H256736   1.393   0.795  14.803 -2.6805  1.7661 -0.1818
11749TIP3   OH256737   2.228   2.528  16.288 -0.6466  0.0770 -0.1066
11749TIP3    H156738   2.271   2.460  16.341 -0.0860 -0.8408 -1.6682
11749TIP3    H256739   2.292   2.598  16.282 -0.4841 -0.0671 -0.0589
11750TIP3   OH256740   0.886   5.849  10.811  0.5450 -0.2935 -0.1002
11750TIP3    H156741   0.959   5.838  10.751  0.4610 -0.8936 -0.0999
11750TIP3    H256742   0.811   5.866  10.753  1.0347  2.5883 -0.0322
11751TIP3   OH256743   0.948   2.950   3.663 -0.1623 -0.0966 -0.4215
11751TIP3    H156744   0.974   3.008   3.592 -0.2032  1.4470  0.7614
11751TIP3    H256745   0.860   2.980   3.687  0.0516 -0.2643  0.5999
11752TIP3   OH256746   3.474   3.745   4.818  0.7103 -0.0010 -0.3239
11752TIP3    H156747   3.416   3.740   4.742 -0.1287  2.8053  0.0197
11752TIP3    H256748   3.457   3.664   4.866 -2.2847  0.2669 -0.7416
11753TIP3   OH256749   1.389   0.458  17.223 -0.0496  0.3558  0.4811
11753TIP3    H156750   1.461   0.395  17.226  0.0886 -0.1062 -4.3140
11753TIP3    H256751   1.427   0.539  17.256  1.5420 -0.7132  1.4153
11754TIP3   OH256752   0.578   5.789   0.838  0.6331  0.2864  0.1682
11754TIP3    H156753   0.655   5.844   0.851  0.8575  0.4980 -1.7267
11754TIP3    H256754   0.526   5.800   0.917  0.8809  2.8751  0.0517
11755TIP3   OH256755   1.500   3.304  16.144 -0.2443 -0.0389  0.4103
11755TIP3    H156756   1.468   3.386  16.180 -0.6536 -0.3243  0.7110
11755TIP3    H256757   1.548   3.329  16.065  0.4074  0.5675  0.9869
11756TIP3   OH256758   1.821   3.129   2.649 -0.3293 -0.3378 -0.1071
11756TIP3    H156759   1.765   3.206   2.650  0.4283  0.2246  0.8608
11756TIP3    H256760   1.771   3.062   2.696 -1.2503 -0.6504 -1.4948
11757TIP3   OH256761   4.560   0.791   5.042  0.4817 -0.3267  0.1468
11757TIP3    H156762   4.545   0.816   4.951  1.4477  2.0742  0.5796
11757TIP3    H256763   4.607   0.708   5.036 -1.1692 -1.2333 -1.4450
11758TIP3   OH256764   4.654   0.371   2.825  0.4638  0.0007  0.4241
11758TIP3    H156765   4.675   0.296   2.769  0.4556 -0.4244  0.9825
11758TIP3    H256766   4.651   0.446   2.765 -0.9875 -0.6679 -0.3636
11759TIP3   OH256767   6.684   6.602  11.496  0.2795  0.3524  0.5982
11759TIP3    H156768   6.634   6.669  11.449 -0.7168 -0.7638 -0.0129
11759TIP3    H256769   6.618   6.549  11.540  1.1320  0.6131  2.2788
11760TIP3   OH256770   4.093   3.138   0.324  0.4074  0.2249  0.1008
11760TIP3    H156771   4.094   3.149   0.419 -0.8265 -1.0379  0.2998
11760TIP3    H256772   4.020   3.191   0.294 -1.2745 -1.8646  0.2855
11761TIP3   OH256773   5.400   3.483   4.987 -0.5720  0.6222 -0.1689
11761TIP3    H156774   5.314   3.452   4.958 -0.4067 -0.6196  0.6026
11761TIP3    H256775   5.430   3.416   5.048  0.0539  2.0708  1.1661
11762TIP3   OH256776   2.734   4.997  16.481 -0.2326 -0.8775  0.0770
11762TIP3    H156777   2.686   4.985  16.563  0.4789  3.2803  1.3523
11762TIP3    H256778   2.668   5.032  16.420 -0.4206 -2.4891 -0.6748
11763TIP3   OH256779   3.575   1.237  14.724 -0.2923 -0.0469  0.1636
11763TIP3    H156780   3.505   1.173  14.739 -1.6055  1.2877 -0.0436
11763TIP3    H256781   3.627   1.199  14.653 -0.4983 -1.2938  0.6541
11764TIP3   OH256782   2.723   1.133   4.303 -0.8635 -0.0981  0.3067
11764TIP3    H156783   2.751   1.050   4.343  1.3579  0.7756  0.7295
11764TIP3    H256784   2.726   1.116   4.209 -0.7950 -0.6210  0.3985
11765TIP3   OH256785   1.841   2.554   3.841 -0.1166 -0.1860  0.1571
11765TIP3    H156786   1.772   2.617   3.863  0.2025  0.2877 -0.1852
11765TIP3    H256787   1.910   2.570   3.906  0.3141  0.3944 -0.4221
11766TIP3   OH256788   4.908   4.633   4.114 -0.9013  0.1466 -0.2191
11766TIP3    H156789   4.837   4.601   4.170 -0.1679 -0.9990  0.1049
11766TIP3    H256790   4.966   4.680   4.174 -1.3941  1.1250 -0.4926
11767TIP3   OH256791   0.992   5.739  13.983  0.0773  0.4747  0.4464
11767TIP3    H156792   1.037   5.710  13.904  0.3612  0.5364  0.5844
11767TIP3    H256793   0.928   5.802  13.952 -1.0100 -0.7702  0.0597
11768TIP3   OH256794   4.666   6.012   3.362 -0.0100  0.0471  0.3484
11768TIP3    H156795   4.693   6.086   3.415  0.8979  0.2913 -0.4274
11768TIP3    H256796   4.593   5.973   3.410 -1.6586  2.4328 -0.0174
11769TIP3   OH256797   6.333   0.051   1.673  0.2037 -0.1392  0.2401
11769TIP3    H156798   6.261   0.035   1.733 -1.5543  0.3726 -1.6289
11769TIP3    H256799   6.391  -0.025   1.683 -1.1038 -1.0605  1.0477
11770TIP3   OH256800   0.344   5.754   5.760 -0.0556  0.1343  0.1662
11770TIP3    H156801   0.282   5.774   5.830 -1.7256 -0.9655 -0.9395
11770TIP3    H256802   0.290   5.726   5.686  1.1818  5.1648 -3.1764
11771TIP3   OH256803   1.674   2.265   1.589  0.1269 -0.2137 -0.2479
11771TIP3    H156804   1.754   2.301   1.626 -0.1850 -1.5894  1.9542
11771TIP3    H256805   1.701   2.183   1.547 -0.0808 -0.5866  0.3356
11772TIP3   OH256806   2.302   4.123   5.919 -0.0379  0.1218  0.4204
11772TIP3    H156807   2.313   4.148   5.827  1.9665  2.1502  1.1064
11772TIP3    H256808   2.257   4.039   5.916 -1.1264  0.6975 -2.3624
11773TIP3   OH256809   6.311   0.903   5.424 -0.1466  0.2200 -0.2085
11773TIP3    H156810   6.294   0.996   5.407 -3.3657 -0.3387 -0.8032
11773TIP3    H256811   6.340   0.868   5.340  1.2530  0.6637  0.0604
11774TIP3   OH256812   6.415   1.874  15.933 -0.2025  0.1652 -0.3013
11774TIP3    H156813   6.430   1.939  15.864 -0.1990 -0.0452 -0.4984
11774TIP3    H256814   6.453   1.793  15.899 -1.7169 -0.3642 -0.7831
11775TIP3   OH256815   5.599   5.703   2.298 -0.3224 -0.4785  0.5027
11775TIP3    H156816   5.662   5.631   2.290 -0.3771 -0.6384  1.4050
11775TIP3    H256817   5.646   5.780   2.267  0.2229 -0.6515  0.8914
11776TIP3   OH256818   1.215   3.288   3.464  0.2287  0.4069 -0.1238
11776TIP3    H156819   1.215   3.192   3.460 -1.3730  0.0942  3.5177
11776TIP3    H256820   1.123   3.311   3.478  0.4288  2.6433 -1.9299
11777TIP3   OH256821   3.050   0.158  14.424 -0.0358  0.1960 -0.0074
11777TIP3    H156822   3.127   0.162  14.366 -0.7739  0.6412 -0.9845
11777TIP3    H256823   3.004   0.078  14.398 -0.8517  0.8653 -0.6928
11778TIP3   OH256824   5.467   1.765   1.527  0.3947  0.6995 -0.0676
11778TIP3    H156825   5.525   1.841   1.531 -0.1465  1.2165 -1.4112
11778TIP3    H256826   5.506   1.708   1.461  0.5132  0.0561  0.5569
11779TIP3   OH256827   1.565   5.248   5.146  0.2363 -0.0405  0.3834
11779TIP3    H156828   1.528   5.251   5.235  0.9060  0.6487  0.6534
11779TIP3    H256829   1.500   5.199   5.095 -0.4781  0.1265  1.1016
11780TIP3   OH256830   0.335   2.191  11.927 -0.2270  0.1894  0.0343
11780TIP3    H156831   0.343   2.109  11.878  0.6895  1.3225 -1.8181
11780TIP3    H256832   0.425   2.219  11.943 -0.5058  0.1858  1.8938
11781TIP3   OH256833   3.028   5.641  15.933 -0.1782 -0.0662  0.0701
11781TIP3    H156834   3.057   5.575  15.869 -0.1564  0.6691 -0.6949
11781TIP3    H256835   2.936   5.656  15.911  0.4081  1.8612 -1.3124
11782TIP3   OH256836   0.865   6.491   5.568 -0.0139  0.0325  0.2011
11782TIP3    H156837   0.929   6.481   5.498 -0.4853 -1.3075 -0.0739
11782TIP3    H256838   0.781   6.501   5.523 -0.4617 -1.8567  0.5267
11783TIP3   OH256839   0.754   0.613  12.819  0.5285 -0.2346  0.2490
11783TIP3    H156840   0.847   0.607  12.839  1.0403 -1.0907 -2.0597
11783TIP3    H256841   0.751   0.654  12.732 -1.2322 -0.5227  0.1378
11784TIP3   OH256842   1.965   4.506  16.872 -0.1841  0.0135 -0.1816
11784TIP3    H156843   2.024   4.473  16.804  0.5423 -0.0917  0.4821
11784TIP3    H256844   1.878   4.501  16.833 -0.2434 -3.4119  0.1022
11785TIP3   OH256845   4.895   0.727  15.018  0.4631 -0.2470  0.5181
11785TIP3    H156846   4.932   0.742  14.931 -1.2886  4.2602  0.2999
11785TIP3    H256847   4.967   0.747  15.078  0.8253 -0.4089  0.1485
11786TIP3   OH256848   3.321   3.154   3.040 -0.4921 -0.5327  0.3917
11786TIP3    H156849   3.396   3.128   3.094 -1.4435 -3.5281  0.4375
11786TIP3    H256850   3.261   3.198   3.102 -0.1150 -0.9012  1.0271
11787TIP3   OH256851   5.127   6.306  11.534  0.0091 -0.3212  0.7056
11787TIP3    H156852   5.170   6.294  11.449 -0.5342 -0.3924  0.4328
11787TIP3    H256853   5.188   6.268  11.597  0.9773  0.8301  0.4917
11788TIP3   OH256854   1.513   5.170   2.552 -0.1937 -0.1398 -0.0825
11788TIP3    H156855   1.508   5.208   2.640 -1.9045  0.3920 -0.3848
11788TIP3    H256856   1.470   5.085   2.560  1.0535 -0.7921 -0.0724
11789TIP3   OH256857   2.210   1.146   3.795 -0.2906  0.3829 -0.4472
11789TIP3    H156858   2.120   1.166   3.770 -1.0524 -0.5891  1.3254
11789TIP3    H256859   2.201   1.080   3.864  1.7562  0.8354  0.3100
11790TIP3   OH256860   5.945   5.510   0.823  0.0925 -0.0875 -0.0060
11790TIP3    H156861   6.018   5.516   0.761  2.2628 -1.3159  2.2600
11790TIP3    H256862   5.909   5.422   0.809 -2.5805  1.2292 -2.6200
11791TIP3   OH256863   5.566   5.062  14.734 -0.1891 -0.6505 -0.3181
11791TIP3    H156864   5.476   5.082  14.759 -0.9686 -2.9557 -1.0032
11791TIP3    H256865   5.595   4.995  14.796  2.4842  2.5467  2.2529
11792TIP3   OH256866   1.245   4.903  16.561  0.6265 -0.0586 -0.3551
11792TIP3    H156867   1.190   4.825  16.555  1.3563 -0.5780 -0.3921
11792TIP3    H256868   1.247   4.937  16.471  1.2483 -0.6536 -0.5671
11793TIP3   OH256869   6.377   3.142   6.098  0.0635  0.7927 -0.5002
11793TIP3    H156870   6.377   3.062   6.046 -0.3522  0.3741  0.1237
11793TIP3    H256871   6.458   3.138   6.149 -0.2471  0.4696 -0.0276
11794TIP3   OH256872   0.517   4.407   2.296  0.0027 -0.5470  0.5992
11794TIP3    H156873   0.581   4.477   2.282 -0.0547 -0.5748  0.1913
11794TIP3    H256874   0.563   4.327   2.269 -0.8450 -0.3549 -1.6705
11795TIP3   OH256875   4.524   5.123  12.267 -0.2235 -0.1966  0.2634
11795TIP3    H156876   4.552   5.088  12.183  1.5017  0.0489  0.6893
11795TIP3    H256877   4.512   5.217  12.252  0.6842 -0.0477  0.4111
11796TIP3   OH256878   3.885   6.141   5.180 -0.3355  0.1999 -0.1696
11796TIP3    H156879   3.930   6.225   5.190 -0.3353  0.1669  0.0918
11796TIP3    H256880   3.955   6.076   5.182 -0.5159  0.0329  1.6793
11797TIP3   OH256881   5.663   4.500  15.166  0.0725  0.7811 -0.5777
11797TIP3    H156882   5.572   4.522  15.186  0.6706  2.5723  0.3661
11797TIP3    H256883   5.682   4.546  15.085 -0.4183 -1.2489 -1.9146
11798TIP3   OH256884   6.406   2.247   1.332  0.0110 -0.0712 -0.0751
11798TIP3    H156885   6.473   2.180   1.317 -0.6445 -0.1012 -3.6946
11798TIP3    H256886   6.330   2.198   1.363  0.1701 -0.7415 -0.7232
11799TIP3   OH256887   0.025   3.080   6.614  0.0835 -0.7112  0.4779
11799TIP3    H156888  -0.066   3.098   6.637 -0.1127  0.1840 -0.8630
11799TIP3    H256889   0.071   3.162   6.633  0.2378 -0.5362 -0.6023
11800TIP3   OH256890   1.052   2.144  12.079  0.1199  0.0158  0.5410
11800TIP3    H156891   1.114   2.143  12.006 -0.5578  1.6345 -0.1109
11800TIP3    H256892   0.966   2.142  12.037 -0.3089 -1.2614  1.4039
11801TIP3   OH256893   0.723   6.131   4.250 -0.2831 -0.1823 -0.0165
11801TIP3    H156894   0.668   6.060   4.284  0.9563 -0.4295  1.6347
11801TIP3    H256895   0.693   6.144   4.160 -3.5806  0.2735  1.0141
11802TIP3   OH256896   4.452   2.392  13.397  0.1070  0.1131  0.5867
11802TIP3    H156897   4.449   2.352  13.310 -3.3942  0.3303  0.4682
11802TIP3    H256898   4.397   2.470  13.390  1.4270  1.3286  2.5221
11803TIP3   OH256899   3.203   6.456  16.572 -0.1057  0.1915 -0.2976
11803TIP3    H156900   3.210   6.379  16.629 -2.9528  0.4660  0.5756
11803TIP3    H256901   3.270   6.516  16.606  0.8163 -1.1071  0.2859
11804TIP3   OH256902   2.481   0.672   3.854  0.7262  0.0502  0.2096
11804TIP3    H156903   2.420   0.705   3.920  1.2576 -0.7798  1.1445
11804TIP3    H256904   2.512   0.750   3.809 -0.4219  0.5492  0.2498
11805TIP3   OH256905   2.307   5.567  16.872 -0.0129  0.2788 -0.0271
11805TIP3    H156906   2.326   5.554  16.779 -0.8946 -1.2593 -0.0409
11805TIP3    H256907   2.266   5.653  16.877  0.4205  0.5476 -1.0051
11806TIP3   OH256908   1.504   3.870   1.606  0.5775 -0.5219  0.2879
11806TIP3    H156909   1.480   3.838   1.693 -0.6012 -1.2744 -0.2863
11806TIP3    H256910   1.600   3.872   1.606  0.5814  0.0120  1.7755
11807TIP3   OH256911   3.957   4.578   4.353 -0.0313  0.6015 -0.0548
11807TIP3    H156912   4.030   4.625   4.313  0.3577  0.8242  0.8822
11807TIP3    H256913   3.978   4.486   4.341  1.4331  0.6092  1.8922
11808TIP3   OH256914   4.771   2.669  10.939  0.1292  0.2608 -0.0871
11808TIP3    H156915   4.808   2.648  10.854  0.8113 -0.3600  0.3548
11808TIP3    H256916   4.724   2.590  10.967  1.7787 -0.3499  1.0856
11809TIP3   OH256917   1.656   2.403  16.938  0.5168  0.4775 -0.2619
11809TIP3    H156918   1.747   2.388  16.966  0.1422  0.4836  1.0235
11809TIP3    H256919   1.615   2.447  17.013 -1.1831 -1.6678  0.1602
11810TIP3   OH256920   4.118   3.971  11.615  0.0022 -0.0807  0.1949
11810TIP3    H156921   4.128   4.063  11.640  0.8054 -0.3521  0.9077
11810TIP3    H256922   4.192   3.954  11.556  0.1163 -0.3805  0.4189
11811TIP3   OH256923   4.154   2.611  16.369  0.7874  0.2365  0.0010
11811TIP3    H156924   4.152   2.633  16.276  0.1198 -0.4456 -0.1600
11811TIP3    H256925   4.220   2.542  16.376 -1.7625 -2.4730 -0.6566
11812TIP3   OH256926   6.454   1.224   1.528  0.1718 -0.0381 -0.1709
11812TIP3    H156927   6.508   1.167   1.473  0.2599  1.2494 -1.4980
11812TIP3    H256928   6.370   1.179   1.535  0.7960 -1.1620  0.3303
11813TIP3   OH256929   2.946   2.170  15.513 -0.2679  0.2051 -0.3476
11813TIP3    H156930   2.878   2.145  15.576 -2.4834  0.5969 -2.4067
11813TIP3    H256931   2.900   2.227  15.451  1.8013 -0.0865 -2.2688
11814TIP3   OH256932   1.244   0.014  15.500 -0.0236  0.3926  0.4952
11814TIP3    H156933   1.288  -0.052  15.554  0.5616  0.0886 -0.3316
11814TIP3    H256934   1.270   0.098  15.538 -0.9537  0.1500  1.6908
11815TIP3   OH256935   1.347   2.275   3.488 -0.7124  0.0306  0.1142
11815TIP3    H156936   1.361   2.358   3.443  0.8396  0.8375  1.9139
11815TIP3    H256937   1.411   2.216   3.449  0.1439  0.5278  0.7208
11816TIP3   OH256938   1.999   4.182   3.230 -0.0399 -0.0294 -0.8644
11816TIP3    H156939   1.941   4.246   3.188  0.5722  2.0394  1.1987
11816TIP3    H256940   2.071   4.171   3.168 -0.9596 -0.0222 -1.9775
11817TIP3   OH256941   1.693   2.649  16.479 -0.3188  0.4132 -0.1720
11817TIP3    H156942   1.776   2.635  16.433 -0.2514 -3.4353  0.8040
11817TIP3    H256943   1.632   2.588  16.437 -0.9903 -1.1779  2.8080
11818TIP3   OH256944   5.556   0.826   0.080  0.4114  0.2979 -0.0024
11818TIP3    H156945   5.482   0.781   0.120  1.1888 -0.8239  0.2261
11818TIP3    H256946   5.535   0.827  -0.014 -0.4919  1.1719  0.1953
11819TIP3   OH256947   4.572   6.774   2.283 -0.1718 -0.0165 -0.0643
11819TIP3    H156948   4.496   6.745   2.233 -1.0670  1.1393  0.5474
11819TIP3    H256949   4.580   6.711   2.355 -1.0093  0.2409  0.2682
11820TIP3   OH256950   4.008   4.496   3.941  0.4267  0.1581 -0.4959
11820TIP3    H156951   3.964   4.471   3.859  0.9762  0.5539 -0.9224
11820TIP3    H256952   4.017   4.591   3.934 -0.0223  0.2651  0.2843
11821TIP3   OH256953   2.296   6.703  14.289 -1.3151  0.1680  0.4227
11821TIP3    H156954   2.289   6.632  14.354  0.1194  0.1871  0.6301
11821TIP3    H256955   2.293   6.659  14.205  1.7023 -0.4483  0.5450
11822TIP3   OH256956   2.947   3.941  11.822 -0.3928  0.9122 -0.2464
11822TIP3    H156957   2.988   3.864  11.784 -1.5274  0.2262 -0.1291
11822TIP3    H256958   3.003   3.965  11.895  0.0122  0.2495 -0.3294
11823TIP3   OH256959   3.643   5.743  14.880  0.1170 -0.6071 -0.4825
11823TIP3    H156960   3.595   5.740  14.962 -0.0947  1.8573 -0.4394
11823TIP3    H256961   3.577   5.729  14.812 -0.2994  0.5613 -0.3359
11824TIP3   OH256962   2.245   0.647  12.252 -0.4504  0.6783 -0.0654
11824TIP3    H156963   2.236   0.555  12.228  1.5074  0.2415  0.7293
11824TIP3    H256964   2.269   0.691  12.170 -2.3889  0.7109 -0.6751
11825TIP3   OH256965   2.931   5.073  11.550 -0.1532  0.1781 -0.1084
11825TIP3    H156966   2.866   5.097  11.484 -0.7321 -0.8193  0.0760
11825TIP3    H256967   2.888   5.005  11.602  0.8313 -0.0839  0.3839
11826TIP3   OH256968   3.378   2.782  14.016  0.0499 -0.2798 -0.0838
11826TIP3    H156969   3.395   2.688  14.008  0.1207 -0.1703 -1.3810
11826TIP3    H256970   3.455   2.824  13.979 -0.6783  0.2692 -1.0158
11827TIP3   OH256971   3.467   3.442  12.905 -0.2475 -0.1928 -0.2843
11827TIP3    H156972   3.533   3.378  12.878 -0.4519 -1.0591  1.1640
11827TIP3    H256973   3.393   3.389  12.934 -0.8911  0.7406 -0.1944
11828TIP3   OH256974   1.738   1.493  11.297 -0.4867  0.2699  0.1540
11828TIP3    H156975   1.753   1.473  11.204  2.0894  0.4099  0.4799
11828TIP3    H256976   1.771   1.582  11.307 -0.4905  0.1507  1.2734
11829TIP3   OH256977   4.846   1.033  16.815  0.1195 -0.2784  0.3475
11829TIP3    H156978   4.857   1.044  16.721  0.6409 -0.6167  0.3640
11829TIP3    H256979   4.765   1.080  16.836  0.3844  0.3986 -0.1465
11830TIP3   OH256980   0.672   0.784  15.543 -0.0303  0.8084 -0.0087
11830TIP3    H156981   0.716   0.803  15.460  0.3076 -0.1295 -0.0624
11830TIP3    H256982   0.687   0.862  15.596  0.8918  0.8962 -0.3727
11831TIP3   OH256983   4.314   4.956  12.373 -0.2240  0.2420 -0.3945
11831TIP3    H156984   4.347   4.866  12.368 -0.0641  0.2115  0.9705
11831TIP3    H256985   4.378   5.007  12.323  0.8447 -0.1067  0.5768
11832TIP3   OH256986   5.901   3.928   3.676  0.3327 -0.1046 -0.1464
11832TIP3    H156987   5.943   3.992   3.733  0.3757  0.8064 -1.1759
11832TIP3    H256988   5.946   3.846   3.696  0.2793  0.1654  1.1854
11833TIP3   OH256989   5.828   0.728  14.162 -0.3141 -0.1482 -0.4278
11833TIP3    H156990   5.810   0.720  14.068  1.0650 -0.6744 -0.6723
11833TIP3    H256991   5.906   0.674  14.176 -0.6331 -0.2653  1.0733
11834TIP3   OH256992   0.357   6.641   0.206  0.5932  0.0201 -0.2463
11834TIP3    H156993   0.324   6.560   0.245 -1.3499  1.7480  1.9579
11834TIP3    H256994   0.446   6.650   0.241  0.1087 -0.1851  1.0876
11835TIP3   OH256995   0.523   0.641  16.016 -0.3744  0.1763  0.0333
11835TIP3    H156996   0.485   0.564  16.058 -1.6799  2.0237  2.5126
11835TIP3    H256997   0.610   0.650  16.054  0.4825 -0.9772 -1.5559
11836TIP3   OH256998   1.936   1.630  14.319  0.2566  1.0887  0.2524
11836TIP3    H156999   1.955   1.537  14.312  0.5329  1.1145  0.6298
11836TIP3    H257000   1.991   1.671  14.252  1.6585  1.1712  1.4030
11837TIP3   OH257001   1.303   4.786   1.381 -0.1973 -0.1154 -0.4510
11837TIP3    H157002   1.291   4.733   1.460  0.2781 -0.0644 -0.3427
11837TIP3    H257003   1.357   4.860   1.409  0.2979 -0.2942 -0.8947
11838TIP3   OH257004   1.746   0.967  11.057 -0.2194 -0.5684  0.0226
11838TIP3    H157005   1.833   0.950  11.021 -0.8938 -1.1527 -1.4264
11838TIP3    H257006   1.733   1.061  11.046  0.2246 -0.4794  0.2508
11839TIP3   OH257007   2.162   5.133   1.458 -0.9174  0.1336  0.6355
11839TIP3    H157008   2.134   5.054   1.413 -3.1246  1.2635 -0.1315
11839TIP3    H257009   2.223   5.103   1.526 -3.4424 -2.5220  1.9201
11840TIP3   OH257010   0.062   2.337   5.129  0.3010 -0.1159  0.1774
11840TIP3    H157011  -0.025   2.333   5.170  0.6408  0.0912  0.9271
11840TIP3    H257012   0.068   2.255   5.080 -0.2675 -0.1912  0.2209
11841TIP3   OH257013   2.885   4.154  11.616  0.1917  0.4064 -0.2454
11841TIP3    H157014   2.889   4.095  11.541  1.4120 -0.7798  0.7018
11841TIP3    H257015   2.872   4.096  11.691 -3.3428  1.6971  0.3521
11842TIP3   OH257016   1.882   3.691   3.382 -0.5522 -0.5290 -0.1408
11842TIP3    H157017   1.863   3.617   3.441  2.5835 -0.5467  1.0158
11842TIP3    H257018   1.872   3.768   3.438  0.3894 -0.3996 -0.1460
11843TIP3   OH257019   3.487   1.446  14.873 -0.2909 -0.2305 -0.2312
11843TIP3    H157020   3.519   1.359  14.848 -0.3465 -0.6222  0.9902
11843TIP3    H257021   3.422   1.468  14.806 -0.1416 -1.0426 -0.6608
11844TIP3   OH257022   2.687   6.386  14.669  0.1461 -0.7481 -0.7394
11844TIP3    H157023   2.764   6.351  14.714  1.8793  1.7857 -1.5084
11844TIP3    H257024   2.630   6.415  14.740  1.3316  0.1590 -0.1118
11845TIP3   OH257025   0.382   3.659   2.801 -1.0164 -0.0466 -0.1606
11845TIP3    H157026   0.335   3.672   2.719 -0.4508 -0.7232 -0.6047
11845TIP3    H257027   0.354   3.732   2.857  0.2922  1.7563 -1.7210
11846TIP3   OH257028   6.649   5.918  15.616 -0.6507 -0.4103 -0.3172
11846TIP3    H157029   6.565   5.892  15.654 -0.8375 -1.0041 -1.1041
11846TIP3    H257030   6.641   5.896  15.524  0.8413 -1.7394 -0.1756
11847TIP3   OH257031   0.480   0.013   1.619  0.4024  0.0280  0.0716
11847TIP3    H157032   0.539  -0.063   1.619  0.8165  0.3481 -0.2436
11847TIP3    H257033   0.426   0.001   1.698 -0.8146 -1.5685 -0.9420
11848TIP3   OH257034   2.848   0.108  11.271  0.4932 -0.8165 -0.4777
11848TIP3    H157035   2.908   0.035  11.287  1.6310  0.2324  0.2508
11848TIP3    H257036   2.873   0.141  11.185 -1.5192 -2.6117 -1.8661
11849TIP3   OH257037   4.203   5.565  15.234 -0.7490  0.2474  0.5378
11849TIP3    H157038   4.127   5.549  15.179 -0.8863 -0.0333  0.8061
11849TIP3    H257039   4.182   5.645  15.282 -0.2518  1.0048 -0.4710
11850TIP3   OH257040   3.330   6.065   0.346  0.9379 -0.2439  0.0886
11850TIP3    H157041   3.272   5.992   0.324 -0.1633  1.2916 -2.6505
11850TIP3    H257042   3.418   6.033   0.329  0.4883 -1.0291 -0.8446
11851TIP3   OH257043   2.475   3.721  16.462 -0.2105  0.2448 -0.0808
11851TIP3    H157044   2.485   3.637  16.417  0.3560 -0.6334  1.6027
11851TIP3    H257045   2.563   3.759  16.463  0.0747 -0.3992  1.4620
11852TIP3   OH257046   4.247   1.331  15.112  0.0031 -0.4243 -0.5154
11852TIP3    H157047   4.272   1.323  15.020 -2.7337 -1.8533 -1.2463
11852TIP3    H257048   4.205   1.247  15.133 -3.1263  1.2979  0.7539
11853TIP3   OH257049   5.098   5.786  13.829  0.2783 -0.0616 -0.1951
11853TIP3    H157050   5.035   5.853  13.857 -0.9454 -0.1283 -2.4810
11853TIP3    H257051   5.152   5.770  13.906 -0.7841  1.9680  1.0801
11854TIP3   OH257052   2.188   3.485  13.150 -0.4826  0.0303 -0.7784
11854TIP3    H157053   2.126   3.527  13.090  0.1898  0.3848 -1.2303
11854TIP3    H257054   2.153   3.397  13.163 -1.1687  0.2779 -0.8961
11855TIP3   OH257055   6.365   0.902   3.218 -0.1079 -0.0319 -0.4021
11855TIP3    H157056   6.322   0.982   3.190 -0.2660 -0.5585 -1.7400
11855TIP3    H257057   6.299   0.856   3.270 -0.4082  0.1808 -0.5950
11856TIP3   OH257058   4.833   2.035   5.821  0.5821 -0.1440  0.0732
11856TIP3    H157059   4.828   2.035   5.725 -0.5197 -2.0584  0.0756
11856TIP3    H257060   4.918   1.995   5.840  1.6030  1.8582 -0.0606
11857TIP3   OH257061   0.757   4.072   4.261  0.5064  0.4324 -0.7353
11857TIP3    H157062   0.666   4.069   4.290  0.6560  0.5914 -0.2472
11857TIP3    H257063   0.752   4.057   4.166 -0.1596  1.8528 -0.9526
11858TIP3   OH257064   2.996   3.770   5.904  0.2646  0.2324  0.6798
11858TIP3    H157065   3.007   3.739   5.994  0.2745 -1.6331  0.0872
11858TIP3    H257066   3.044   3.707   5.851  1.1604  1.8996 -0.5748
11859TIP3   OH257067   6.502   5.857  12.714  0.7269  0.2908  0.0762
11859TIP3    H157068   6.581   5.892  12.671  1.4951 -0.2396  1.0344
11859TIP3    H257069   6.534   5.815  12.793 -0.5535  0.2245  0.5801
11860TIP3   OH257070   5.195   6.303   4.641 -0.0525  0.4981  0.4311
11860TIP3    H157071   5.156   6.370   4.699 -0.9892  2.1952 -1.9670
11860TIP3    H257072   5.140   6.226   4.654 -0.4699  0.9481  1.4965
11861TIP3   OH257073   6.807   6.486  15.234  0.5699 -0.4305  0.1450
11861TIP3    H157074   6.872   6.465  15.167  0.5283 -0.0713 -0.0115
11861TIP3    H257075   6.850   6.550  15.291 -0.2292  1.2012 -0.9973
11862TIP3   OH257076   6.172   5.178  15.202 -0.0474 -0.3550 -0.0096
11862TIP3    H157077   6.200   5.121  15.131  1.0041  1.7196 -1.3825
11862TIP3    H257078   6.114   5.242  15.160 -0.3375  0.2296  1.2320
11863TIP3   OH257079   5.487   0.236  16.852  0.6062  0.0251  0.5240
11863TIP3    H157080   5.568   0.187  16.838  0.8196  0.1588  1.2572
11863TIP3    H257081   5.418   0.174  16.831  0.8759 -0.5378  1.2629
11864TIP3   OH257082   3.128   1.566   3.118  0.1073  0.2121 -0.0094
11864TIP3    H157083   3.037   1.555   3.091  0.4379 -4.8440  0.0585
11864TIP3    H257084   3.177   1.568   3.036  0.0978  2.3308 -0.0225
11865TIP3   OH257085   3.814   5.137   3.771  0.2599  0.0204 -0.4893
11865TIP3    H157086   3.791   5.216   3.722  0.9555 -0.3185 -1.4096
11865TIP3    H257087   3.903   5.154   3.803  0.5603 -0.5101 -1.0064
11866TIP3   OH257088   3.604   2.617  13.685 -0.3366 -0.0279 -0.6918
11866TIP3    H157089   3.589   2.523  13.670  1.3675 -0.6655  1.0526
11866TIP3    H257090   3.699   2.624  13.691 -0.4308  1.8969 -1.1058
11867TIP3   OH257091   5.741   2.862   4.419  0.1670  0.5268  0.5602
11867TIP3    H157092   5.829   2.898   4.417 -0.6878  2.8134 -2.2084
11867TIP3    H257093   5.748   2.778   4.373  0.6412  1.5544 -1.3243
11868TIP3   OH257094   4.282   4.169   2.375  0.4078  0.1429  0.3806
11868TIP3    H157095   4.244   4.186   2.461 -0.0295  1.2867 -0.0086
11868TIP3    H257096   4.255   4.080   2.353 -0.8200  0.4089  0.7524
11869TIP3   OH257097   6.528   0.579   3.664  0.3284  0.0991  0.6534
11869TIP3    H157098   6.449   0.543   3.705  0.7923  0.4685  1.9127
11869TIP3    H257099   6.592   0.509   3.669  0.1495 -0.1393 -0.2119
11870TIP3   OH257100   0.135   4.315   0.748 -0.5869 -0.0439  0.1226
11870TIP3    H157101   0.150   4.283   0.659  1.6985 -0.0691  0.4485
11870TIP3    H257102   0.072   4.386   0.738 -1.5537 -1.0520 -1.2988
11871TIP3   OH257103   1.609   1.336   3.815 -0.1256  0.3187 -0.3740
11871TIP3    H157104   1.590   1.365   3.904 -1.7815 -3.1132  0.5548
11871TIP3    H257105   1.527   1.348   3.768 -0.9975 -2.7284  0.1403
11872TIP3   OH257106   1.556   1.519  16.458 -0.3193  0.4213 -0.0544
11872TIP3    H157107   1.517   1.557  16.380 -0.4245 -0.1970 -0.3129
11872TIP3    H257108   1.485   1.468  16.498 -0.4265  1.1798  0.7583
11873TIP3   OH257109   3.030   5.739   0.286 -0.2826 -0.5260  0.3836
11873TIP3    H157110   3.090   5.754   0.214  0.5142 -0.0820  1.1287
11873TIP3    H257111   3.012   5.826   0.322 -2.6717 -0.4428 -0.8259
11874TIP3   OH257112   3.175   3.926   0.377 -0.1617 -0.0243 -0.1049
11874TIP3    H157113   3.244   3.940   0.441  1.5455  0.6408 -1.9996
11874TIP3    H257114   3.155   3.832   0.384 -1.1447  0.2928  2.3908
11875TIP3   OH257115   1.710   2.430  12.223 -0.0256  0.4959  0.0414
11875TIP3    H157116   1.721   2.472  12.308 -2.0655  0.6885  0.2580
11875TIP3    H257117   1.707   2.336  12.244  2.2793  0.3141 -0.1893
11876TIP3   OH257118   4.524   3.372  11.201  0.1540 -0.1681  0.1111
11876TIP3    H157119   4.511   3.277  11.204  0.5039 -0.2885 -1.2390
11876TIP3    H257120   4.608   3.383  11.156  0.6978  0.7679  1.3017
11877TIP3   OH257121   4.275   1.005   5.096 -0.3687  0.6667 -0.0154
11877TIP3    H157122   4.231   1.086   5.072  0.3114  0.8807 -0.5613
11877TIP3    H257123   4.368   1.023   5.085 -0.2018 -0.1680 -0.0835
11878TIP3   OH257124   2.061   2.029  14.721  0.4358  0.1098  0.1614
11878TIP3    H157125   2.004   2.047  14.646 -0.4709  0.7446  0.9690
11878TIP3    H257126   2.053   1.935  14.735 -0.8503  0.2558  0.5747
11879TIP3   OH257127   1.467   6.088  13.627 -0.2553 -0.2118 -0.0265
11879TIP3    H157128   1.558   6.115  13.611  0.2443 -1.6989  0.1144
11879TIP3    H257129   1.452   6.108  13.719 -0.1676  0.2924 -0.1190
11880TIP3   OH257130   2.115   2.948   0.870  0.0663 -0.6702  0.5476
11880TIP3    H157131   2.056   2.997   0.927 -0.2801  1.8921 -1.8215
11880TIP3    H257132   2.057   2.906   0.807  0.6052 -0.5653 -0.0208
11881TIP3   OH257133   5.437   2.896   4.213  0.0200 -0.1250  0.1438
11881TIP3    H157134   5.422   2.805   4.237 -0.4243  0.5030  2.5109
11881TIP3    H257135   5.488   2.932   4.285  0.1881  1.4993 -0.7424
11882TIP3   OH257136   4.360   2.601   2.745 -0.2621 -0.0446 -0.0989
11882TIP3    H157137   4.450   2.587   2.716  0.1570  2.5967 -0.2509
11882TIP3    H257138   4.366   2.608   2.841 -0.1133  1.1684 -0.1827
11883TIP3   OH257139   2.850   1.980  14.214 -0.4870  0.4329  0.9248
11883TIP3    H157140   2.940   2.004  14.238  0.2681 -0.9113 -0.3831
11883TIP3    H257141   2.798   2.005  14.290  0.9079  1.7100  1.5277
11884TIP3   OH257142   4.223   4.284  11.283  0.4206  0.3706 -0.4017
11884TIP3    H157143   4.255   4.328  11.204  0.1405  0.2016 -0.6090
11884TIP3    H257144   4.303   4.250  11.325  0.7681  1.9978  0.3349
11885TIP3   OH257145   5.866   1.693   0.591  0.3007 -0.1749 -0.1678
11885TIP3    H157146   5.866   1.617   0.650 -0.1502 -1.1148 -1.3223
11885TIP3    H257147   5.855   1.655   0.504 -1.0895  1.2915 -0.6871
11886TIP3   OH257148   1.651   3.993   1.067 -0.2246  0.3893  0.0635
11886TIP3    H157149   1.727   4.034   1.107  0.5405 -1.0890  0.1883
11886TIP3    H257150   1.687   3.939   0.997 -1.3972  1.6153 -1.5494
11887TIP3   OH257151   2.130   3.128  16.863  0.2652 -0.2820 -0.2466
11887TIP3    H157152   2.218   3.149  16.894  1.0665 -0.1449 -2.3995
11887TIP3    H257153   2.115   3.190  16.791 -1.4371 -0.5612 -0.1621
11888TIP3   OH257154   4.306   0.013  12.481  0.5366  0.1796 -0.3236
11888TIP3    H157155   4.367   0.035  12.411  0.8558 -0.7715 -0.3695
11888TIP3    H257156   4.276   0.097  12.515  1.9333  0.6662 -0.2586
11889TIP3   OH257157   3.551   3.640  14.974 -0.3556  0.0259 -0.1353
11889TIP3    H157158   3.621   3.574  14.979  0.9236  1.2778 -0.9599
11889TIP3    H257159   3.499   3.615  14.898 -1.5863 -1.5872  1.1475
11890TIP3   OH257160   1.211   1.918   5.413  0.2725 -0.3486 -0.2616
11890TIP3    H157161   1.219   1.899   5.319 -0.3759 -1.3480 -0.1328
11890TIP3    H257162   1.166   1.841   5.449 -1.1591  0.8352  0.5523
11891TIP3   OH257163   1.023   2.831  14.570 -0.1456 -0.1465  0.3791
11891TIP3    H157164   0.954   2.877  14.618 -0.1527  0.8172 -0.5199
11891TIP3    H257165   1.038   2.885  14.493 -0.3606 -1.8222 -0.8896
11892TIP3   OH257166   0.810   1.329   2.493  0.5303  0.2729  0.5216
11892TIP3    H157167   0.770   1.285   2.419  1.3915 -3.5301  2.0687
11892TIP3    H257168   0.739   1.339   2.557  0.2913  1.4666  0.1013
11893TIP3   OH257169   0.249   4.169   2.740  0.3657 -0.1306  0.2697
11893TIP3    H157170   0.194   4.210   2.808 -1.9922 -0.3607 -1.3789
11893TIP3    H257171   0.189   4.113   2.692  2.0583 -0.3030 -1.7575
11894TIP3   OH257172   0.034   5.309   6.714 -0.2141  0.0544  0.0919
11894TIP3    H157173   0.041   5.282   6.806 -0.1270  1.7423  0.6314
11894TIP3    H257174  -0.056   5.290   6.690 -0.8961  1.5330  1.2535
11895TIP3   OH257175   4.391   3.492   1.774  0.4399  0.2837 -0.5759
11895TIP3    H157176   4.478   3.514   1.742  1.4814 -1.7328  0.7130
11895TIP3    H257177   4.375   3.556   1.844  1.1700  0.2737 -0.3890
11896TIP3   OH257178   2.212   6.477  16.840  0.0044  0.1805 -0.2226
11896TIP3    H157179   2.177   6.529  16.913 -1.6547 -1.4681  0.2390
11896TIP3    H257180   2.299   6.452  16.869 -0.9156 -1.1429  1.6358
11897TIP3   OH257181   5.456   4.377  15.773  0.5589 -0.2103  0.3313
11897TIP3    H157182   5.507   4.344  15.699 -0.0003 -0.8317  0.2169
11897TIP3    H257183   5.445   4.471  15.755  0.5830 -0.3213 -0.2822
11898TIP3   OH257184   1.675   2.488   2.047  0.6506  0.2644 -0.1046
11898TIP3    H157185   1.704   2.398   2.065 -1.3970 -0.5764 -0.7285
11898TIP3    H257186   1.723   2.512   1.968 -0.7898 -1.3934 -1.5846
11899TIP3   OH257187   5.503   2.235  12.453  0.2637  0.0814  0.5543
11899TIP3    H157188   5.571   2.201  12.511 -0.0181  0.0548  0.8717
11899TIP3    H257189   5.493   2.168  12.386  1.7175  0.8157 -0.4538
11900TIP3   OH257190   2.282   4.935  11.701  0.0490 -0.1946  0.5665
11900TIP3    H157191   2.231   4.982  11.767  0.8491  0.2716  0.8694
11900TIP3    H257192   2.311   4.855  11.745 -2.0327 -1.4417 -0.2154
11901TIP3   OH257193   1.787   3.802  16.246 -0.2200 -0.6063  0.4811
11901TIP3    H157194   1.773   3.877  16.303 -1.1814 -0.2292 -0.2267
11901TIP3    H257195   1.833   3.738  16.300 -2.6897 -0.9945  2.2433
11902TIP3   OH257196   1.754   6.511  16.503  0.1016  0.1280 -0.1504
11902TIP3    H157197   1.801   6.559  16.572  0.9622  0.2407 -0.7944
11902TIP3    H257198   1.737   6.425  16.541 -2.1462  1.1285  1.3129
11903TIP3   OH257199   2.105   2.204   4.127  0.3051 -0.2080 -0.3985
11903TIP3    H157200   2.055   2.136   4.173  1.0187 -1.6489 -1.6630
11903TIP3    H257201   2.044   2.235   4.060  1.0456 -2.0549 -2.0234
11904TIP3   OH257202   3.960   3.266  15.170  0.2931  0.6458  0.5602
11904TIP3    H157203   4.024   3.317  15.221  0.6035  0.5595  0.2625
11904TIP3    H257204   3.959   3.180  15.211  1.1936  0.3036 -0.1033
11905TIP3   OH257205   2.863   0.090  12.323  0.1524  0.2357  0.1676
11905TIP3    H157206   2.871   0.117  12.231  3.0601  2.1160  0.8094
11905TIP3    H257207   2.912   0.008  12.327  0.7008  0.5562  0.1545
11906TIP3   OH257208   2.437   6.150   4.767  0.1574 -0.4207 -0.6662
11906TIP3    H157209   2.383   6.071   4.770 -0.2426 -0.1638 -0.9212
11906TIP3    H257210   2.376   6.219   4.743  0.0685  0.3426  1.5067
11907TIP3   OH257211   0.848   3.107  13.914 -0.3515  0.2436  0.1152
11907TIP3    H157212   0.913   3.119  13.983  0.5328 -0.9400 -0.4727
11907TIP3    H257213   0.815   3.018  13.928  1.2289 -0.7712 -2.0746
11908TIP3   OH257214   1.343   2.832  14.772 -0.3669  0.1327 -0.3583
11908TIP3    H157215   1.257   2.791  14.781  0.0911 -0.7991 -0.1104
11908TIP3    H257216   1.405   2.759  14.773  0.3857  0.7350 -1.3386
11909TIP3   OH257217   0.659   1.309  14.353  0.6349 -0.1851 -0.1743
11909TIP3    H157218   0.672   1.262  14.435 -2.1430  1.2395  1.2133
11909TIP3    H257219   0.724   1.380  14.356 -1.2909  1.6569  2.3603
11910TIP3   OH257220   4.582   4.554   6.100  0.6498  0.0708 -0.7159
11910TIP3    H157221   4.547   4.609   6.030 -0.3198 -1.5848 -1.5749
11910TIP3    H257222   4.623   4.616   6.160 -0.3169  1.7253 -1.6850
11911TIP3   OH257223   5.580   1.025   2.213 -0.7358 -0.0745  0.3381
11911TIP3    H157224   5.627   1.095   2.167 -1.9868 -0.6526 -1.9599
11911TIP3    H257225   5.542   1.069   2.290 -0.6748  1.5708 -0.5103
11912TIP3   OH257226   0.825   2.263  13.867  0.7461  0.0923 -0.5025
11912TIP3    H157227   0.830   2.232  13.776  0.5333  0.2645 -0.5718
11912TIP3    H257228   0.757   2.330  13.866  1.0447  0.4009 -0.3016
11913TIP3   OH257229   5.145   1.335  10.976  0.2961  0.2880 -0.0391
11913TIP3    H157230   5.111   1.247  10.986  1.0813  0.1270  1.4366
11913TIP3    H257231   5.068   1.389  10.956 -0.1269 -0.7680 -1.3645
11914TIP3   OH257232   0.550   2.999  13.668  0.6494 -0.1787  0.4731
11914TIP3    H157233   0.472   2.976  13.618  1.7875 -3.4563 -0.0234
11914TIP3    H257234   0.528   3.083  13.708 -1.4051  1.2977 -3.1741
11915TIP3   OH257235   1.313   5.648  11.290 -0.2498  0.3681 -0.0892
11915TIP3    H157236   1.352   5.573  11.244 -3.4120 -2.9362  2.0541
11915TIP3    H257237   1.258   5.691  11.225  2.3083  1.5982 -1.5984
11916TIP3   OH257238   0.354   6.433   5.417  0.7488 -0.6266  0.3743
11916TIP3    H157239   0.299   6.485   5.359  1.1326 -1.3476 -0.6660
11916TIP3    H257240   0.296   6.410   5.490  0.7637  1.7732  1.2062
11917TIP3   OH257241   5.654   5.634   3.772 -0.5963 -0.5274 -0.2626
11917TIP3    H157242   5.648   5.698   3.701 -0.2724 -2.5888 -2.2775
11917TIP3    H257243   5.565   5.600   3.782 -0.7928  0.2613  0.8866
11918TIP3   OH257244   2.230   0.962  11.981 -0.0384 -0.6060 -0.4178
11918TIP3    H157245   2.226   0.866  11.984 -0.2805 -0.5802  0.0894
11918TIP3    H257246   2.243   0.982  11.888  0.3968 -1.1418 -0.4783
11919TIP3   OH257247   6.019   4.792   2.095 -0.3398 -0.4376  0.3310
11919TIP3    H157248   6.018   4.713   2.041 -0.4861  0.5318 -1.1432
11919TIP3    H257249   6.112   4.818   2.098 -0.4654  0.1882 -0.5452
11920TIP3   OH257250   6.791   4.914  13.727 -0.0051  0.5505  0.1804
11920TIP3    H157251   6.740   4.903  13.807 -0.4716  0.6641 -0.0993
11920TIP3    H257252   6.857   4.844  13.732 -1.1023 -0.5479 -0.1609
11921TIP3   OH257253   1.001   4.332   2.512 -0.1204 -0.1532 -0.1512
11921TIP3    H157254   1.036   4.259   2.564 -0.6982 -2.6375 -2.9596
11921TIP3    H257255   0.907   4.318   2.511 -0.3704  1.3767  0.2147
11922TIP3   OH257256   2.503   2.722   2.754  0.0495 -0.6071  0.0767
11922TIP3    H157257   2.494   2.627   2.752 -1.6912 -0.5028 -3.4304
11922TIP3    H257258   2.429   2.752   2.807 -1.0057 -1.1196 -1.0856
11923TIP3   OH257259   4.955   0.873  14.328  0.3425 -0.6874  0.1017
11923TIP3    H157260   4.947   0.854  14.421  1.4900  0.8790  0.5618
11923TIP3    H257261   5.049   0.867  14.310  0.6041  2.4559 -0.1025
11924TIP3   OH257262   3.862   4.597  14.107 -0.0128  0.4779 -0.0114
11924TIP3    H157263   3.924   4.540  14.153  0.1849 -1.0510 -2.0014
11924TIP3    H257264   3.904   4.683  14.105  0.5898  0.2353  1.3770
11925TIP3   OH257265   0.763   4.248   2.108 -0.3286 -0.0612 -0.2580
11925TIP3    H157266   0.737   4.211   2.193  3.2074 -0.1962  0.9348
11925TIP3    H257267   0.776   4.341   2.127 -1.0750  0.2301 -1.1164
11926TIP3   OH257268   6.237   2.620  15.815  0.1223 -0.5218  0.0533
11926TIP3    H157269   6.289   2.598  15.738 -0.4239 -1.0890 -0.1676
11926TIP3    H257270   6.151   2.643  15.779  0.8612  3.0908  0.1286
11927TIP3   OH257271   2.701   2.109  14.388  0.8475 -0.1481  0.1628
11927TIP3    H157272   2.620   2.134  14.434  0.5505 -0.3094 -0.2653
11927TIP3    H257273   2.771   2.128  14.451  0.6925  2.2880 -0.3277
11928TIP3   OH257274   0.008   4.171  13.044  0.3746 -0.0880 -0.1805
11928TIP3    H157275  -0.046   4.187  13.121  0.9817  0.3102  0.1663
11928TIP3    H257276  -0.051   4.125  12.983  0.2995 -1.7080  1.0560
11929TIP3   OH257277   2.181   1.554  13.274 -0.3712 -0.3918 -0.4092
11929TIP3    H157278   2.239   1.478  13.278 -3.0017 -2.6212 -1.3510
11929TIP3    H257279   2.199   1.593  13.188  0.7461 -0.1020 -0.0659
11930TIP3   OH257280   2.846   5.503   4.312  0.4746 -0.3174  0.0559
11930TIP3    H157281   2.855   5.420   4.264 -0.7727 -0.3029 -0.2408
11930TIP3    H257282   2.917   5.501   4.376  0.7912 -1.3714 -0.2951
11931TIP3   OH257283   4.091   0.519  17.126 -0.2976 -0.1440 -0.4560
11931TIP3    H157284   4.156   0.550  17.063  2.0258 -0.5862  1.5327
11931TIP3    H257285   4.094   0.583  17.197 -0.4086 -1.3200  0.6501
11932TIP3   OH257286   2.088   2.447  13.180 -0.1542  0.5834  0.1709
11932TIP3    H157287   2.162   2.388  13.163  0.1294  0.8945  0.3256
11932TIP3    H257288   2.094   2.466  13.273 -0.5708  0.4213  0.2294
11933TIP3   OH257289   4.026   3.383  10.712 -0.6193  0.6482  0.1672
11933TIP3    H157290   4.055   3.293  10.727  0.3877  1.1114  1.1239
11933TIP3    H257291   3.939   3.374  10.674 -0.0929 -0.7527 -0.7965
11934TIP3   OH257292   2.126   5.387  11.453 -0.1759 -0.0179  0.3759
11934TIP3    H157293   2.106   5.383  11.359 -1.9543  0.3546  0.7132
11934TIP3    H257294   2.212   5.429  11.456 -0.3358  0.5036 -1.0669
11935TIP3   OH257295   3.681   2.922   3.147  0.4522  0.5516 -0.1572
11935TIP3    H157296   3.683   2.881   3.060 -0.4738  0.9043 -0.3528
11935TIP3    H257297   3.643   2.855   3.204 -0.0304  0.7365 -0.2587
11936TIP3   OH257298   2.585   0.364   4.797  0.7150  0.0613  0.4587
11936TIP3    H157299   2.531   0.441   4.779 -2.4909 -2.1439 -0.0944
11936TIP3    H257300   2.643   0.357   4.721 -1.0920  0.2743 -1.0075
11937TIP3   OH257301   4.550   6.120  13.817 -0.0310 -0.2566 -0.3107
11937TIP3    H157302   4.495   6.138  13.894  0.2916 -1.4521  0.2244
11937TIP3    H257303   4.562   6.025  13.818  0.6762 -0.1955 -1.3735
11938TIP3   OH257304   0.071   0.747   2.320 -0.1818  0.4550  0.2724
11938TIP3    H157305   0.162   0.721   2.303 -0.0283  1.5577 -0.6622
11938TIP3    H257306   0.018   0.686   2.269 -0.0372 -0.7339  1.4730
11939TIP3   OH257307   0.726   0.074  14.324 -0.0010 -0.0995  0.1492
11939TIP3    H157308   0.727   0.024  14.243  0.5030 -0.8318  0.5947
11939TIP3    H257309   0.741   0.009  14.393 -1.5161  0.3431  0.9315
11940TIP3   OH257310   1.808   5.385  11.096 -0.1615 -0.6602  0.0676
11940TIP3    H157311   1.799   5.291  11.088 -1.7751 -0.4960 -0.3877
11940TIP3    H257312   1.816   5.417  11.006 -1.7231 -0.2168  0.0560
11941TIP3   OH257313   0.299   1.104   6.272 -0.5244 -0.2231 -0.2372
11941TIP3    H157314   0.259   1.029   6.316 -1.1345  0.5974  0.6469
11941TIP3    H257315   0.237   1.176   6.286  1.6937  1.4039  2.1634
11942TIP3   OH257316   5.475   6.450  12.751 -0.6535  0.2500 -0.5206
11942TIP3    H157317   5.417   6.402  12.692 -3.6359  2.1863  0.6481
11942TIP3    H257318   5.472   6.400  12.833  0.9523 -0.6802 -0.9826
11943TIP3   OH257319   5.734   6.741   1.014  0.4172  0.1966 -0.1225
11943TIP3    H157320   5.772   6.816   1.059 -1.2120  1.9425 -1.5173
11943TIP3    H257321   5.683   6.696   1.081 -0.1569  1.4599  0.3148
11944TIP3   OH257322   5.877   5.097  11.548 -0.5048 -0.2566 -0.6388
11944TIP3    H157323   5.823   5.066  11.621 -0.0656  1.4942  0.4960
11944TIP3    H257324   5.966   5.075  11.573 -0.1563  1.9362  0.2950
11945TIP3   OH257325   6.653   3.938  16.850 -0.5131  0.4278  0.2276
11945TIP3    H157326   6.593   3.869  16.822  1.3244 -1.1093 -0.1650
11945TIP3    H257327   6.701   3.900  16.923  0.3233  1.4109  0.2083
11946TIP3   OH257328   2.218   2.861   4.732  0.4605 -0.7644 -0.1719
11946TIP3    H157329   2.152   2.795   4.751 -0.4924  0.2922  0.2815
11946TIP3    H257330   2.299   2.825   4.770  0.9715 -3.5029 -3.3870
11947TIP3   OH257331   6.556   5.650   3.438  0.4638 -0.1263 -0.2381
11947TIP3    H157332   6.642   5.682   3.464  1.2307 -0.5215 -2.1886
11947TIP3    H257333   6.518   5.721   3.386 -0.8440  0.4487  1.3906
11948TIP3   OH257334   1.247   0.456  10.186 -0.4437  0.1555 -0.1272
11948TIP3    H157335   1.177   0.428  10.245  0.9001 -0.8208  1.0510
11948TIP3    H257336   1.249   0.551  10.195 -0.2932  0.0265  1.3879
11949TIP3   OH257337   5.377   5.623   4.409 -0.4208  0.1103  0.1582
11949TIP3    H157338   5.308   5.688   4.399 -1.5534 -1.2452 -1.5340
11949TIP3    H257339   5.357   5.579   4.491 -0.5756  0.8429  0.5200
11950TIP3   OH257340   1.449   1.957  14.737 -0.2608 -0.1925  0.1946
11950TIP3    H157341   1.365   1.923  14.767 -1.6914  2.6429 -0.2310
11950TIP3    H257342   1.428   2.045  14.703  2.2147 -0.8013 -3.4699
11951TIP3   OH257343   5.606   6.038   2.108  0.3691 -0.2031 -0.2838
11951TIP3    H157344   5.701   6.031   2.120  0.3602 -2.7522 -1.2097
11951TIP3    H257345   5.585   5.975   2.040 -2.5675 -3.1232  2.9257
11952TIP3   OH257346   2.746   6.793   3.896  0.2709  0.2700 -0.2569
11952TIP3    H157347   2.757   6.886   3.914  0.1263 -0.1137  2.1772
11952TIP3    H257348   2.835   6.762   3.875  0.3039  0.9462 -1.1520
11953TIP3   OH257349   5.684   0.923  12.889 -0.0052  0.6577  0.5470
11953TIP3    H157350   5.764   0.872  12.906  1.5840  2.8391 -0.0210
11953TIP3    H257351   5.710   0.990  12.826 -3.1622 -0.6528 -2.5125
11954TIP3   OH257352   5.311   1.922  13.063 -0.1194  1.2014 -0.0138
11954TIP3    H157353   5.246   1.956  13.124 -1.1139 -2.1382  1.0234
11954TIP3    H257354   5.383   1.892  13.119 -0.1449 -0.0634 -0.6222
11955TIP3   OH257355   5.883   1.536  14.152  0.0314 -0.4152  0.0106
11955TIP3    H157356   5.793   1.550  14.124 -0.4982 -2.4034  0.6021
11955TIP3    H257357   5.929   1.616  14.125 -2.0601  1.0117  0.4558
11956TIP3   OH257358   2.284   3.015  17.084  0.1998 -0.3180  0.0068
11956TIP3    H157359   2.199   3.023  17.127  0.1628  0.0816 -0.1379
11956TIP3    H257360   2.330   3.095  17.107 -0.1618  0.3462 -1.4376
11957TIP3   OH257361   5.561   4.054   0.363 -0.1734  0.5393  0.1851
11957TIP3    H157362   5.544   4.019   0.451  0.6313 -1.7663 -0.4993
11957TIP3    H257363   5.651   4.027   0.344  1.1560  4.3923  0.1065
11958TIP3   OH257364   6.795   3.276  12.027 -0.1795 -0.1359 -0.2686
11958TIP3    H157365   6.827   3.317  11.946 -0.8394 -0.6488 -0.7993
11958TIP3    H257366   6.874   3.240  12.068  0.4389  1.6915  0.2572
11959TIP3   OH257367   0.834   6.493  16.898  0.0860 -0.0288 -0.5038
11959TIP3    H157368   0.751   6.536  16.919 -0.7321 -1.1997 -1.1992
11959TIP3    H257369   0.835   6.414  16.953  0.7947  0.0426 -0.4118
11960TIP3   OH257370   5.986   0.685   3.617 -0.3626  0.1200 -0.4541
11960TIP3    H157371   6.075   0.650   3.607 -0.2409  0.0980  0.5401
11960TIP3    H257372   5.961   0.660   3.706 -0.9262  1.1102 -0.3205
11961TIP3   OH257373   5.473   5.087   4.108  0.0105  0.3376 -0.2412
11961TIP3    H157374   5.481   5.163   4.166 -0.4677  0.2666 -0.0773
11961TIP3    H257375   5.386   5.052   4.127  0.4314 -0.5692  0.0655
11962TIP3   OH257376   2.302   6.308  10.967 -0.7418 -0.1022 -0.0474
11962TIP3    H157377   2.225   6.293  10.912 -0.8402  0.9180 -0.2040
11962TIP3    H257378   2.344   6.385  10.929 -0.5110  0.2989  0.9939
11963TIP3   OH257379   3.088   3.319   3.850 -0.1304  0.3906 -0.0612
11963TIP3    H157380   3.072   3.226   3.839  0.5439  0.3870 -1.2110
11963TIP3    H257381   3.174   3.323   3.894 -0.3382  0.4734  0.3434
11964TIP3   OH257382   1.001   2.536   2.014  0.3184  0.2556 -0.0686
11964TIP3    H157383   0.932   2.597   1.991 -0.2988 -1.3268 -2.9086
11964TIP3    H257384   1.059   2.535   1.938  0.7849 -1.9777  0.2261
11965TIP3   OH257385   0.904   3.501  16.572  0.0705  0.7473  0.0651
11965TIP3    H157386   0.983   3.519  16.520  0.2985 -1.1260 -0.3087
11965TIP3    H257387   0.838   3.476  16.507 -0.5918  1.4836  0.4431
11966TIP3   OH257388   4.893   5.085   6.674  0.6408 -0.3814 -0.0386
11966TIP3    H157389   4.880   5.024   6.746 -0.4903  0.8979  0.9099
11966TIP3    H257390   4.969   5.137   6.699 -0.7483  1.1930  1.1320
11967TIP3   OH257391   4.610   1.789  14.996 -0.1842  0.1262  0.9373
11967TIP3    H157392   4.532   1.734  14.995  0.0748 -0.2743 -0.7012
11967TIP3    H257393   4.577   1.877  14.978 -0.3618  0.1063  1.1705
11968TIP3   OH257394   3.659   5.026   5.986  0.0587  0.4310 -0.4218
11968TIP3    H157395   3.705   4.944   6.008 -1.9462 -0.2972  1.5316
11968TIP3    H257396   3.688   5.088   6.053 -2.1742 -0.2648  1.3456
11969TIP3   OH257397   2.193   5.259   2.699  0.3075  0.0589  0.0423
11969TIP3    H157398   2.126   5.212   2.650 -0.1939 -0.1736  0.9528
11969TIP3    H257399   2.240   5.192   2.748  0.7051  0.3128  0.0204
11970TIP3   OH257400   3.966   6.154   1.127 -0.1347 -0.7182 -0.2466
11970TIP3    H157401   3.889   6.137   1.073 -0.4527  1.0284 -0.3719
11970TIP3    H257402   3.935   6.141   1.217 -0.3890 -0.7148 -0.3318
11971TIP3   OH257403   1.707   2.825  13.267  0.0803  0.1522 -0.2792
11971TIP3    H157404   1.763   2.754  13.235 -0.0768 -0.0366 -0.1393
11971TIP3    H257405   1.666   2.860  13.188  0.4088  0.3021 -0.3841
11972TIP3   OH257406   4.805   5.982   6.167 -0.1995  0.7775  0.1647
11972TIP3    H157407   4.766   5.936   6.092  0.2535  1.8867 -0.7867
11972TIP3    H257408   4.761   5.945   6.243 -2.0777  0.9519 -0.7709
11973TIP3   OH257409   2.762   2.259  15.317 -0.3141 -0.2528 -0.0919
11973TIP3    H157410   2.768   2.259  15.222 -0.0118 -0.6172 -0.0760
11973TIP3    H257411   2.697   2.327  15.338  0.7121  0.8790 -0.4863
11974TIP3   OH257412   4.796   1.133  13.688  0.7382  0.0214 -0.2059
11974TIP3    H157413   4.842   1.130  13.771  1.0595 -1.2797 -0.4156
11974TIP3    H257414   4.704   1.146  13.711  0.9566  0.7683  0.2856
11975TIP3   OH257415   5.308   2.812  14.514 -0.1943 -0.5264 -0.1541
11975TIP3    H157416   5.368   2.771  14.577 -0.0215 -1.3000 -0.8096
11975TIP3    H257417   5.259   2.739  14.477 -3.2410  0.2148  2.0135
11976TIP3   OH257418   0.237   0.348  13.052 -0.1043 -0.0507 -0.1580
11976TIP3    H157419   0.172   0.410  13.018  1.8496  1.5300 -1.2527
11976TIP3    H257420   0.194   0.306  13.126 -2.0794  1.5214 -0.3277
11977TIP3   OH257421   4.214   6.083   3.475 -0.8078  0.5452  0.2370
11977TIP3    H157422   4.169   6.024   3.536 -0.5855 -0.4005 -0.4821
11977TIP3    H257423   4.275   6.026   3.429  0.8020  1.7032  0.8520
11978TIP3   OH257424   4.143   2.291   3.142  0.2736  0.0389  0.6435
11978TIP3    H157425   4.049   2.281   3.125  0.2505  0.3352  0.5840
11978TIP3    H257426   4.158   2.386   3.138  0.7267 -0.0642 -0.1547
11979TIP3   OH257427   2.981   3.582  17.246  0.1684 -0.2952  0.4369
11979TIP3    H157428   3.074   3.579  17.227 -0.1174  0.1387 -1.1305
11979TIP3    H257429   2.974   3.641  17.322  1.1747 -0.5300  0.7249
11980TIP3   OH257430   0.391   1.167   3.683  0.2351  0.1652  0.1422
11980TIP3    H157431   0.312   1.202   3.725 -0.2561  0.0345 -0.6412
11980TIP3    H257432   0.382   1.193   3.591  0.8695 -0.2596 -0.0446
11981TIP3   OH257433   1.174   2.027  14.343 -0.1187 -0.2643 -0.6079
11981TIP3    H157434   1.138   2.054  14.428 -1.1601  1.1725 -1.4567
11981TIP3    H257435   1.182   2.109  14.294  1.2453 -0.9665 -1.6354
11982TIP3   OH257436   5.793   5.561   1.126 -0.3006  0.0424 -0.5854
11982TIP3    H157437   5.794   5.477   1.173 -0.1823 -0.4705 -1.4673
11982TIP3    H257438   5.700   5.584   1.120 -0.2083  1.5424  2.2920
11983TIP3   OH257439   2.707   2.819   3.370  0.0646  0.3765  0.1221
11983TIP3    H157440   2.731   2.792   3.282  0.1487  0.5148  0.1015
11983TIP3    H257441   2.735   2.911   3.375  0.3348  0.2813  0.3937
11984TIP3   OH257442   6.573   3.924  13.317  0.5557  0.8099  0.0584
11984TIP3    H157443   6.485   3.908  13.283  1.0858  0.7035 -1.3382
11984TIP3    H257444   6.616   3.839  13.316  1.1117  1.0905 -0.5843
11985TIP3   OH257445   0.296   4.282  12.810 -0.2728  0.0877  0.0011
11985TIP3    H157446   0.297   4.309  12.901 -0.0908  0.3036 -0.0627
11985TIP3    H257447   0.382   4.244  12.794 -0.3699 -0.1226 -0.0310
11986TIP3   OH257448   0.239   6.351   2.751  0.8241 -0.1833 -0.2811
11986TIP3    H157449   0.147   6.332   2.773  0.7649  1.3736  1.0217
11986TIP3    H257450   0.242   6.345   2.655 -0.7883  0.2346 -0.3959
11987TIP3   OH257451   5.335   3.810   4.229 -0.6457  0.1511  0.4583
11987TIP3    H157452   5.257   3.759   4.251 -0.7970  0.4045  0.5159
11987TIP3    H257453   5.366   3.773   4.146 -0.5165 -0.3037  0.7093
11988TIP3   OH257454   1.341   2.553  16.209  0.2034  0.3979  0.3291
11988TIP3    H157455   1.369   2.548  16.117 -1.7408  0.9660 -0.3375
11988TIP3    H257456   1.250   2.581  16.205  0.2480  1.0268  2.4825
11989TIP3   OH257457   5.040   4.395  17.200 -0.2907 -0.5363  0.1765
11989TIP3    H157458   5.129   4.361  17.213 -0.4959 -1.1923 -0.0653
11989TIP3    H257459   5.051   4.488  17.183  0.3804 -0.6761 -0.1693
11990TIP3   OH257460   2.008   3.018  17.172  0.6453 -0.0990 -0.0421
11990TIP3    H157461   1.932   2.973  17.209  0.6660  0.5180  0.7840
11990TIP3    H257462   1.993   3.016  17.077 -1.3850  1.6745  0.1605
11991TIP3   OH257463   6.441   3.532  14.816 -0.5538 -0.0073  0.0438
11991TIP3    H157464   6.422   3.602  14.754  0.9259 -0.1466 -0.6003
11991TIP3    H257465   6.447   3.453  14.761  0.9304 -0.1095  0.3242
11992TIP3   OH257466   0.537   2.548   0.790 -0.3040  0.3523 -0.1684
11992TIP3    H157467   0.448   2.583   0.792 -0.1916  0.6205  0.3158
11992TIP3    H257468   0.593   2.626   0.785 -0.1268  0.1523 -1.9333
11993TIP3   OH257469   2.231   3.990   5.279  0.1410 -0.2992  0.3311
11993TIP3    H157470   2.167   4.059   5.295  0.1572 -0.2137  0.0429
11993TIP3    H257471   2.228   3.977   5.184  0.4586 -0.3861  0.3327
11994TIP3   OH257472   6.548   5.148  13.332 -0.7754  0.5498 -0.4739
11994TIP3    H157473   6.564   5.076  13.271 -0.5481  0.9389 -0.8751
11994TIP3    H257474   6.559   5.108  13.418  0.1755  0.2947 -0.7077
11995TIP3   OH257475   1.381   1.947   1.845 -0.0928 -0.1940 -0.4566
11995TIP3    H157476   1.468   1.927   1.879  0.2797  0.7801 -0.8079
11995TIP3    H257477   1.394   2.022   1.786 -1.1936  0.1031 -0.3543
11996TIP3   OH257478   1.259   4.880  11.872 -0.0588 -0.5725 -0.2387
11996TIP3    H157479   1.229   4.796  11.907 -1.3453 -0.8772 -1.9593
11996TIP3    H257480   1.183   4.938  11.883 -0.8705 -0.9217 -3.2068
11997TIP3   OH257481   1.911   2.722   3.418  0.1342  0.0934 -0.0021
11997TIP3    H157482   1.976   2.700   3.351 -1.5749 -1.7941 -1.1761
11997TIP3    H257483   1.962   2.739   3.497  2.0494 -1.9836 -0.6780
11998TIP3   OH257484   2.892   1.111  10.608 -0.0650  0.2868  0.2985
11998TIP3    H157485   2.910   1.032  10.659  0.3912  0.3334  0.2066
11998TIP3    H257486   2.974   1.131  10.564  0.1063  1.3723  1.0793
11999TIP3   OH257487   2.230   1.434  11.834 -0.1150 -0.4046  0.0972
11999TIP3    H157488   2.206   1.470  11.920 -0.6194  1.8886 -0.9251
11999TIP3    H257489   2.150   1.439  11.783  0.2670 -1.4448 -0.6362
12000TIP3   OH257490   2.116   0.673   0.221  0.2634  0.5103 -0.2657
12000TIP3    H157491   2.111   0.650   0.314  0.4146 -0.5384 -0.4930
12000TIP3    H257492   2.208   0.699   0.208  0.4156 -0.0078 -0.2547
12001TIP3   OH257493   0.938   2.125  12.869 -0.5477  0.1525  0.5960
12001TIP3    H157494   0.945   2.105  12.776 -0.0443  0.7786  0.4935
12001TIP3    H257495   0.895   2.211  12.872  0.7117  0.7964  0.8766
12002TIP3   OH257496   0.969   4.104  16.194 -0.4375 -0.3852  0.0401
12002TIP3    H157497   1.012   4.188  16.177  1.9178 -1.8027 -1.7043
12002TIP3    H257498   0.916   4.089  16.115  1.1854 -1.6414 -0.8592
12003TIP3   OH257499   3.472   5.913   2.584  0.3016 -0.5182 -0.1663
12003TIP3    H157500   3.384   5.933   2.618 -0.0229 -0.3904 -1.0473
12003TIP3    H257501   3.492   5.987   2.526  0.1849 -1.4592 -1.4402
12004TIP3   OH257502   5.045   2.890  17.072  0.7325 -0.2448  0.1488
12004TIP3    H157503   5.035   2.841  16.991 -1.0807  0.6456 -0.1910
12004TIP3    H257504   5.018   2.829  17.141 -0.6392 -0.0392 -0.1939
12005TIP3   OH257505   0.814   1.852  15.287  0.1552  0.6004  0.4111
12005TIP3    H157506   0.832   1.769  15.244 -0.1143  1.2788 -1.0772
12005TIP3    H257507   0.872   1.914  15.243 -0.3129  1.3758  0.8676
12006TIP3   OH257508   5.740   1.393  15.050 -0.6629 -0.4445  0.3190
12006TIP3    H157509   5.696   1.328  14.994 -1.1519 -0.8532  1.1552
12006TIP3    H257510   5.674   1.461  15.063 -0.6834 -0.5301  0.6877
12007TIP3   OH257511   3.773   4.752   3.764  0.0927 -0.2041 -0.1484
12007TIP3    H157512   3.803   4.832   3.722 -0.4457  0.3251  0.4575
12007TIP3    H257513   3.776   4.771   3.858 -1.3949 -0.3798 -0.0419
12008TIP3   OH257514   6.120   2.123   0.010  0.2387  0.0754  0.5195
12008TIP3    H157515   6.182   2.050   0.017  0.6689  0.4979  1.2487
12008TIP3    H257516   6.108   2.153   0.100 -0.5035  0.4379  0.3042
12009TIP3   OH257517   1.150   1.834  12.081 -0.1687 -0.0455  0.2960
12009TIP3    H157518   1.055   1.844  12.082 -0.1417  0.3815 -0.4215
12009TIP3    H257519   1.180   1.901  12.020  0.5403 -0.5934  0.0306
12010TIP3   OH257520   0.402   0.086   5.466  0.6579 -0.7019 -0.1423
12010TIP3    H157521   0.490   0.050   5.476  0.7304 -0.0899  2.0831
12010TIP3    H257522   0.357   0.061   5.547 -0.8784 -0.0591 -0.7539
12011TIP3   OH257523   5.460   6.208   3.120 -0.4884 -0.0181 -0.1600
12011TIP3    H157524   5.428   6.145   3.055  1.1508 -2.3493  1.1438
12011TIP3    H257525   5.410   6.188   3.199  0.4916 -0.1853  0.4419
12012TIP3   OH257526   5.700   4.293  14.511  0.1081  0.7489  0.1319
12012TIP3    H157527   5.753   4.216  14.490 -0.1833  0.5786  0.0211
12012TIP3    H257528   5.636   4.262  14.575  0.5366  1.1015  0.7510
12013TIP3   OH257529   1.441   4.125  10.498 -0.7509  0.2238 -0.3490
12013TIP3    H157530   1.509   4.150  10.559  0.6428 -1.8548 -0.9441
12013TIP3    H257531   1.468   4.164  10.414 -0.4620 -0.3277 -0.5139
12014TIP3   OH257532   1.610   2.924   1.715 -0.4798 -0.5628 -0.1109
12014TIP3    H157533   1.573   2.908   1.801 -1.4471  0.4882 -0.3215
12014TIP3    H257534   1.705   2.922   1.729 -0.6180  1.1076  1.2610
12015TIP3   OH257535   3.634   5.916  15.933  0.3000  0.3025 -0.0866
12015TIP3    H157536   3.596   5.846  15.987  0.8453 -1.0856 -1.4097
12015TIP3    H257537   3.559   5.966  15.903 -0.3535 -1.1789 -1.0309
12016TIP3   OH257538   4.798   6.493  16.024  0.4051  0.1580 -0.3197
12016TIP3    H157539   4.861   6.542  15.970  0.0610  0.4868 -0.4330
12016TIP3    H257540   4.824   6.402  16.015  0.6444  0.2572 -0.6602
12017TIP3   OH257541   2.919   2.529  16.862 -0.5186 -0.6246 -0.0050
12017TIP3    H157542   2.924   2.624  16.874 -0.7050 -0.6112 -0.0273
12017TIP3    H257543   2.999   2.495  16.901 -0.0196 -0.3754 -0.7861
12018TIP3   OH257544   6.321   2.864  14.730  0.0712 -0.0925 -0.3608
12018TIP3    H157545   6.239   2.837  14.688 -0.2464  1.7598 -0.9998
12018TIP3    H257546   6.372   2.905  14.660  0.6641  0.6648  0.4917
12019TIP3   OH257547   5.255   1.793  10.774  0.3442 -0.5577  0.2662
12019TIP3    H157548   5.166   1.758  10.778  0.5040 -0.8968  1.0564
12019TIP3    H257549   5.258   1.844  10.693 -1.8690  2.9583  2.1695
12020TIP3   OH257550   0.749   2.029   2.910 -0.1594  0.5613  0.8942
12020TIP3    H157551   0.829   2.003   2.864 -0.6329  1.4556 -0.4820
12020TIP3    H257552   0.697   1.949   2.914 -0.4921  0.6506 -0.9677
12021TIP3   OH257553   0.328   0.941  11.308 -0.2521  0.4065 -0.3598
12021TIP3    H157554   0.314   0.906  11.396 -0.9692 -1.7974 -1.2718
12021TIP3    H257555   0.240   0.946  11.270  0.1332  0.1824 -1.3270
12022TIP3   OH257556   4.082   1.495   5.967 -0.0079 -0.0598  0.1091
12022TIP3    H157557   4.136   1.491   5.888 -1.1817  2.7799 -0.9995
12022TIP3    H257558   4.145   1.504   6.039  1.0411 -0.1018 -0.7783
12023TIP3   OH257559   0.237   5.332  16.805 -0.0265 -0.1110 -0.7685
12023TIP3    H157560   0.300   5.328  16.733 -0.2177 -1.5436 -0.8776
12023TIP3    H257561   0.205   5.243  16.815 -0.1114  0.0782  1.0207
12024TIP3   OH257562   2.147   2.420   5.523 -0.7086  0.5858 -0.1776
12024TIP3    H157563   2.236   2.438   5.550 -1.1785  0.9749  1.1643
12024TIP3    H257564   2.152   2.410   5.428  0.9000 -0.2873 -0.0219
12025TIP3   OH257565   0.974   2.371  13.337 -0.3365 -0.1292  0.4613
12025TIP3    H157566   1.050   2.425  13.356 -0.3082  0.1427 -0.3800
12025TIP3    H257567   0.996   2.329  13.253 -1.8596  1.3835 -0.7622
12026TIP3   OH257568   5.407   1.402  11.725  0.0895 -0.2422  0.6393
12026TIP3    H157569   5.427   1.495  11.721 -0.8689 -0.0508 -2.3246
12026TIP3    H257570   5.492   1.358  11.725  0.5331  0.6142  0.6265
12027TIP3   OH257571   5.974   2.825   0.755  0.1355  0.4592 -0.0565
12027TIP3    H157572   5.878   2.821   0.759  0.0865 -0.0673 -1.3990
12027TIP3    H257573   5.993   2.880   0.679  0.8642 -1.4836 -1.3637
12028TIP3   OH257574   1.822   2.861   4.865 -0.0542  0.1463  0.3155
12028TIP3    H157575   1.842   2.931   4.803  0.0239 -0.5404 -0.4532
12028TIP3    H257576   1.744   2.891   4.911  0.3251  1.0026  0.4273
12029TIP3   OH257577   4.524   4.791  11.370 -0.2646  0.3014 -0.2717
12029TIP3    H157578   4.577   4.850  11.317 -0.7323 -0.0244 -1.1352
12029TIP3    H257579   4.456   4.847  11.408 -0.1362  0.4806 -0.3073
12030TIP3   OH257580   1.744   0.445   1.379  0.0272  0.1988  0.2881
12030TIP3    H157581   1.758   0.444   1.474  1.7936 -1.5911  0.0653
12030TIP3    H257582   1.700   0.362   1.360  0.9520 -0.1097 -0.5971
12031TIP3   OH257583   6.280   6.519   2.417  0.2263  0.4659 -0.1890
12031TIP3    H157584   6.294   6.597   2.470  2.8148  0.4938 -0.7668
12031TIP3    H257585   6.185   6.509   2.413 -0.1628  3.2505  0.3258
12032TIP3   OH257586   4.164   1.182   2.970  0.0895 -0.4991 -0.5200
12032TIP3    H157587   4.260   1.186   2.972  0.0547  0.6754 -0.6398
12032TIP3    H257588   4.141   1.212   2.882 -0.4041 -0.6176 -0.4348
12033TIP3   OH257589   5.942   3.793  12.250 -0.0831  0.0383  0.2390
12033TIP3    H157590   5.930   3.703  12.279 -1.2788  0.1389  0.1230
12033TIP3    H257591   6.024   3.821  12.291  0.4707 -1.1849  0.0226
12034TIP3   OH257592   0.203   0.418  10.782  0.3354 -0.0825  0.3351
12034TIP3    H157593   0.197   0.323  10.796 -1.0668  0.0460  0.7625
12034TIP3    H257594   0.130   0.438  10.723  0.6546  0.7303  0.2061
12035TIP3   OH257595   4.089   0.523   3.672  0.2977 -0.1099 -0.0257
12035TIP3    H157596   4.022   0.560   3.729  0.2401  0.0833 -0.2176
12035TIP3    H257597   4.071   0.429   3.671 -0.0088 -0.0488 -0.1294
12036TIP3   OH257598   5.428   4.414  16.705 -0.1524  0.3407 -0.1917
12036TIP3    H157599   5.377   4.352  16.757 -0.5750  1.3365  0.6203
12036TIP3    H257600   5.500   4.441  16.762 -0.9853  1.9374  0.1691
12037TIP3   OH257601   3.520   0.709   5.418  0.0511 -0.1032 -0.4328
12037TIP3    H157602   3.494   0.628   5.462 -1.2034  0.7450  0.4698
12037TIP3    H257603   3.611   0.695   5.393 -0.0998 -1.7296 -0.1733
12038TIP3   OH257604   0.761   3.620   5.762  0.5301 -0.4431  0.6807
12038TIP3    H157605   0.764   3.659   5.675  1.9303 -1.0440  0.4244
12038TIP3    H257606   0.670   3.628   5.789 -0.4655 -2.2241 -1.7731
12039TIP3   OH257607   6.459   5.669   5.130 -0.1733  0.2699  0.7544
12039TIP3    H157608   6.407   5.593   5.104 -1.0600  1.4876 -1.3628
12039TIP3    H257609   6.467   5.720   5.049  1.3145  1.8868  1.8584
12040TIP3   OH257610   0.400   1.240   0.604 -0.4331 -0.7881  0.6061
12040TIP3    H157611   0.401   1.154   0.562  0.5765  0.9048 -3.4200
12040TIP3    H257612   0.493   1.266   0.607 -0.8626  1.6301 -2.2140
12041TIP3   OH257613   4.035   4.019  13.372 -0.1927 -0.5804  0.2738
12041TIP3    H157614   3.955   3.967  13.372 -1.0001  0.5766  1.6273
12041TIP3    H257615   4.055   4.033  13.464  3.6896 -3.8150  0.1926
12042TIP3   OH257616   0.878   2.543  17.204  0.1934 -0.5639  0.6263
12042TIP3    H157617   0.920   2.461  17.229  0.4813 -1.0600 -1.3272
12042TIP3    H257618   0.947   2.608  17.208  0.2383 -0.6382  1.0720
12043TIP3   OH257619   1.626   4.212   4.970  0.0004  0.0141  0.6134
12043TIP3    H157620   1.596   4.300   4.949 -1.2327 -0.5272  0.0323
12043TIP3    H257621   1.683   4.187   4.897 -0.1634  0.0822  0.4641
12044TIP3   OH257622   5.447   6.506  13.697 -0.5511  0.1278  0.1760
12044TIP3    H157623   5.540   6.485  13.705 -0.4843  0.4256  0.2128
12044TIP3    H257624   5.435   6.522  13.603 -0.3989  0.8274  0.2715
12045TIP3   OH257625   3.884   1.799   4.259  0.3192 -0.0519  0.6398
12045TIP3    H157626   3.933   1.743   4.198 -0.1846 -0.8383  0.9386
12045TIP3    H257627   3.907   1.888   4.233  1.2830 -0.3879  0.2643
12046TIP3   OH257628   4.378   1.845  15.205 -0.3698 -0.3644 -0.2185
12046TIP3    H157629   4.429   1.796  15.270 -1.0208 -0.9535 -0.1371
12046TIP3    H257630   4.289   1.810  15.213 -0.5046 -0.3109 -1.2820
12047TIP3   OH257631   6.582   2.793   4.118 -0.1922  0.4147 -0.0274
12047TIP3    H157632   6.511   2.794   4.054 -0.0402  2.7629 -0.2477
12047TIP3    H257633   6.540   2.769   4.200 -0.8254 -0.3485 -0.5631
12048TIP3   OH257634   0.503   3.284  12.424 -0.2705  0.2288  0.4929
12048TIP3    H157635   0.464   3.197  12.424  0.9770 -0.3925 -1.0667
12048TIP3    H257636   0.481   3.321  12.510 -2.3885 -0.8758  0.4835
12049TIP3   OH257637   5.612   2.797  11.142  0.2281 -1.0353 -0.2899
12049TIP3    H157638   5.625   2.853  11.065 -3.1341 -0.9521 -0.9624
12049TIP3    H257639   5.700   2.783  11.177  1.5285  2.0623 -1.9264
12050TIP3   OH257640   2.710   4.816   0.126 -0.0125  0.0606 -0.4476
12050TIP3    H157641   2.723   4.891   0.183 -0.0642 -0.1610 -0.1410
12050TIP3    H257642   2.717   4.740   0.184 -0.1562 -0.1623 -0.7184
12051TIP3   OH257643   3.830   3.238  11.575  0.1020 -0.3270 -0.4826
12051TIP3    H157644   3.780   3.160  11.551 -0.6501  0.1003 -0.3189
12051TIP3    H257645   3.781   3.278  11.647 -0.2008  0.9710 -1.3748
12052TIP3   OH257646   6.118   0.938  13.360  0.2285 -0.2366 -0.2609
12052TIP3    H157647   6.163   0.996  13.420 -0.6846  0.5295 -0.2990
12052TIP3    H257648   6.188   0.884  13.321  1.2509  1.6081 -1.1034
12053TIP3   OH257649   6.303   5.960   3.078 -0.5196 -0.1413 -0.4264
12053TIP3    H157650   6.234   5.954   3.012  0.6914  0.4063 -1.8142
12053TIP3    H257651   6.333   6.051   3.071  0.7697 -0.5480 -0.3352
12054TIP3   OH257652   1.041   2.481  13.796 -0.1956  0.3009 -0.3124
12054TIP3    H157653   1.015   2.391  13.815  0.0735  0.5706  1.4922
12054TIP3    H257654   1.134   2.474  13.773 -0.3293  0.0499 -0.7840
12055TIP3   OH257655   5.601   1.475  16.297  0.0011 -0.4743  0.6294
12055TIP3    H157656   5.678   1.479  16.240  0.4999 -1.3234  1.2186
12055TIP3    H257657   5.596   1.383  16.324 -0.3873 -0.1494  1.7248
12056TIP3   OH257658   0.180   1.133  14.903 -0.0399  0.0265 -0.0319
12056TIP3    H157659   0.166   1.085  14.985 -2.9443 -1.0878 -1.0207
12056TIP3    H257660   0.228   1.072  14.847 -0.9102 -0.5425 -0.1939
12057TIP3   OH257661   4.323   2.828  12.113  0.0847 -0.0405  0.5474
12057TIP3    H157662   4.277   2.903  12.151  2.0502  2.4748 -1.6889
12057TIP3    H257663   4.282   2.815  12.028  1.5238  0.3308 -0.2306
12058TIP3   OH257664   1.742   2.242  12.477 -0.1565  0.3951 -0.1920
12058TIP3    H157665   1.690   2.269  12.553  0.0068 -0.4093  0.2188
12058TIP3    H257666   1.827   2.216  12.514 -0.4761 -1.1687 -0.4835
12059TIP3   OH257667   2.670   0.984   3.310  0.2005 -0.1885 -0.3990
12059TIP3    H157668   2.693   0.902   3.266 -0.4596 -1.8024  2.0361
12059TIP3    H257669   2.575   0.988   3.306  0.0219 -0.9550  1.6586
12060TIP3   OH257670   3.940   3.034   2.446 -0.6266 -0.2413 -0.1249
12060TIP3    H157671   3.901   3.120   2.431 -1.2459 -0.6396 -0.8447
12060TIP3    H257672   3.929   2.988   2.363  2.1085 -0.1218 -0.6416
12061TIP3   OH257673   0.832   3.172   0.599 -0.3021 -0.1129  0.0323
12061TIP3    H157674   0.793   3.145   0.682  0.5153 -0.9282  0.1688
12061TIP3    H257675   0.767   3.149   0.533 -0.4676 -0.5419  0.3444
12062TIP3   OH257676   3.367   3.533   3.136 -0.0827  0.2824 -0.5578
12062TIP3    H157677   3.425   3.530   3.212 -0.2896 -1.5585 -0.4385
12062TIP3    H257678   3.410   3.477   3.071 -0.6541  0.6456 -1.2580
12063TIP3   OH257679   3.599   5.655   1.515 -0.3771 -0.7952  0.5189
12063TIP3    H157680   3.609   5.721   1.447 -2.0234  0.0974  1.0782
12063TIP3    H257681   3.676   5.599   1.507  1.0537  1.1612 -0.0008
12064TIP3   OH257682   0.064   2.591   1.262 -0.8454 -0.3646  0.4031
12064TIP3    H157683   0.117   2.514   1.284  0.5314  0.9900  2.1419
12064TIP3    H257684  -0.008   2.556   1.208  2.2083 -2.2028 -2.9363
12065TIP3   OH257685   5.766   6.377   3.099  0.0601  0.6015 -0.1576
12065TIP3    H157686   5.738   6.351   3.011 -0.4549  3.7757 -1.0715
12065TIP3    H257687   5.860   6.392   3.091  0.0877  0.4657 -0.0737
12066TIP3   OH257688   5.791   2.307  12.164  0.4335 -0.1464 -0.0835
12066TIP3    H157689   5.758   2.267  12.084 -0.4482  1.8625 -0.7899
12066TIP3    H257690   5.883   2.322  12.148  0.6623 -1.3166 -0.0061
12067TIP3   OH257691   0.575   5.470   1.539  0.6964 -0.0867 -0.0325
12067TIP3    H157692   0.583   5.513   1.624  0.8659 -0.5575  0.1920
12067TIP3    H257693   0.639   5.399   1.542  0.1482 -0.5931 -0.2537
12068TIP3   OH257694   5.775   6.496  16.270 -0.3642 -0.8732 -0.4756
12068TIP3    H157695   5.692   6.459  16.298 -1.6392  0.5768 -2.1283
12068TIP3    H257696   5.800   6.443  16.193  0.4458 -1.5169  0.2102
12069TIP3   OH257697   5.325   5.586   5.527 -0.1911 -0.1452 -0.1033
12069TIP3    H157698   5.242   5.562   5.485 -0.0090 -2.3419  0.6927
12069TIP3    H257699   5.314   5.561   5.618  0.7910  1.0273  0.3542
12070TIP3   OH257700   5.511   1.053  12.089  0.3018  0.4992 -0.3597
12070TIP3    H157701   5.523   0.958  12.096 -0.5753  0.3368 -0.9245
12070TIP3    H257702   5.550   1.088  12.170  2.9894 -0.0866 -1.2978
12071TIP3   OH257703   6.317   6.385  12.212  0.0514  0.0144  0.3045
12071TIP3    H157704   6.302   6.368  12.305  1.9817 -2.9552  0.1978
12071TIP3    H257705   6.396   6.439  12.210  0.1757 -0.1633  0.3874
12072TIP3   OH257706   4.516   3.999  12.197  0.5344  0.1035  0.1510
12072TIP3    H157707   4.427   4.030  12.215 -0.2818 -1.2185 -1.3621
12072TIP3    H257708   4.559   3.998  12.283 -0.4213  2.1131  0.7176
12073TIP3   OH257709   2.165   1.999  11.633  0.1749  0.5388 -0.1834
12073TIP3    H157710   2.225   2.057  11.586  0.3816 -0.4802 -1.2117
12073TIP3    H257711   2.222   1.947  11.690  0.4031 -0.9892 -1.7460
12074TIP3   OH257712   4.956   2.434   2.324  0.6501  0.0109  0.0506
12074TIP3    H157713   4.945   2.405   2.233 -0.8510  0.9279 -0.0950
12074TIP3    H257714   4.970   2.528   2.318 -0.2132  0.2089  0.7815
12075TIP3   OH257715   2.094   3.692   0.926 -0.1936 -0.7862 -0.6175
12075TIP3    H157716   2.184   3.718   0.908 -0.8720  0.9020 -1.8444
12075TIP3    H257717   2.059   3.762   0.981 -0.3972 -2.1291  1.0606
12076TIP3   OH257718   1.892   1.917   2.218 -0.2684  0.1277 -0.2851
12076TIP3    H157719   1.824   1.887   2.157 -0.6739  1.4990 -0.5407
12076TIP3    H257720   1.854   1.902   2.304 -1.0858  1.2372 -0.4280
12077TIP3   OH257721   2.739   5.290  11.688 -0.0911  0.4383  0.3333
12077TIP3    H157722   2.809   5.313  11.749 -2.8906  0.2149  3.8929
12077TIP3    H257723   2.697   5.214  11.726 -1.0681 -0.7709 -2.8238
12078TIP3   OH257724   1.026   0.662   3.855 -0.2864 -0.0948  0.5610
12078TIP3    H157725   1.076   0.651   3.935  0.9841 -1.7979 -0.3931
12078TIP3    H257726   0.934   0.657   3.883  0.1371 -1.5046  1.8204
12079TIP3   OH257727   2.803   6.230   4.183  0.3792  0.1229 -0.7792
12079TIP3    H157728   2.736   6.223   4.251  1.2786 -0.3141  0.0812
12079TIP3    H257729   2.776   6.306   4.131 -0.8678 -0.1428 -0.5606
12080TIP3   OH257730   1.479   1.241   2.737  0.1765  0.4742 -0.2197
12080TIP3    H157731   1.391   1.214   2.711  0.3730 -0.1551 -0.2404
12080TIP3    H257732   1.465   1.302   2.810 -0.2128 -1.2131  1.1806
12081TIP3   OH257733   4.496   2.933   3.956  0.0366 -0.3320 -0.1376
12081TIP3    H157734   4.528   2.958   3.869 -0.8136  0.6585 -0.1882
12081TIP3    H257735   4.421   2.990   3.971 -1.6625 -2.5016  0.0141
12082TIP3   OH257736   0.250   4.684   4.732 -0.5919  0.7840  0.2259
12082TIP3    H157737   0.179   4.646   4.680  2.0989 -0.8230 -2.5725
12082TIP3    H257738   0.266   4.619   4.801 -0.9328  0.4885  0.0294
12083TIP3   OH257739   1.111   0.221  12.035 -0.1321 -0.3380  0.4263
12083TIP3    H157740   1.053   0.168  12.090 -0.4592 -0.4225  0.0075
12083TIP3    H257741   1.191   0.231  12.087 -0.1628 -1.0326  0.6161
12084TIP3   OH257742   3.777   4.893   5.348 -0.2913 -0.8106 -0.0386
12084TIP3    H157743   3.828   4.835   5.291  0.5329 -0.1132 -0.0317
12084TIP3    H257744   3.841   4.955   5.383 -1.0314 -0.3484  0.5330
12085TIP3   OH257745   4.055   5.418   2.325  0.5082  0.0190 -0.1747
12085TIP3    H157746   4.109   5.448   2.252  1.9872 -1.2978  0.3317
12085TIP3    H257747   4.097   5.453   2.403  1.7520 -2.4841  0.3572
12086TIP3   OH257748   3.179   4.400  14.609 -0.0006  0.5586 -0.3241
12086TIP3    H157749   3.124   4.406  14.531  0.2213  2.3529 -0.3689
12086TIP3    H257750   3.116   4.403  14.682 -0.1925 -0.9447 -0.3820
12087TIP3   OH257751   5.220   1.883  11.324  0.0445 -0.0501  0.4650
12087TIP3    H157752   5.220   1.865  11.230 -0.5276  0.2838  0.4014
12087TIP3    H257753   5.242   1.799  11.364  2.3588  0.2205 -0.0358
12088TIP3   OH257754   3.602   3.259  11.338  0.2197  0.1667  0.6522
12088TIP3    H157755   3.597   3.169  11.370 -2.9841  0.4638  1.2859
12088TIP3    H257756   3.644   3.252  11.252  3.2772 -1.4096  2.1193
12089TIP3   OH257757   5.373   3.463  16.820 -0.0759 -0.0102  0.2993
12089TIP3    H157758   5.336   3.383  16.781  1.4053 -0.4849 -0.1780
12089TIP3    H257759   5.300   3.525  16.820 -0.4672 -0.3703 -2.1426
12090TIP3   OH257760   0.202   6.058   5.257  0.2547  0.3626  0.2509
12090TIP3    H157761   0.269   6.102   5.205  0.3509 -1.2217 -1.0615
12090TIP3    H257762   0.252   6.003   5.318  0.1640 -0.1536 -0.1334
12091TIP3   OH257763   1.611   1.379  13.168 -0.1886 -0.7599  0.5226
12091TIP3    H157764   1.532   1.414  13.210 -2.7572 -1.0015 -3.4930
12091TIP3    H257765   1.608   1.285  13.186  0.1421 -0.5519  1.7292
12092TIP3   OH257766   6.683   0.596   1.215 -0.1145 -0.3934 -0.2943
12092TIP3    H157767   6.634   0.673   1.245 -1.7856 -1.0575 -1.2016
12092TIP3    H257768   6.714   0.554   1.296  1.3209  1.4843  0.2061
12093TIP3   OH257769   6.541   5.830   5.823 -0.1600  0.4304 -0.1016
12093TIP3    H157770   6.533   5.749   5.773 -0.2298  0.5304 -0.2535
12093TIP3    H257771   6.555   5.801   5.913 -0.8418  0.2466 -0.0445
12094TIP3   OH257772   2.004   4.457   5.488 -0.5894  0.2725  0.2948
12094TIP3    H157773   2.058   4.463   5.567  0.2989  3.3623 -0.4029
12094TIP3    H257774   2.066   4.472   5.416 -1.8310  0.3553 -0.7877
12095TIP3   OH257775   2.118   1.493   1.043 -0.2948 -0.0135 -0.0774
12095TIP3    H157776   2.028   1.516   1.065  0.1041  1.6455 -0.0221
12095TIP3    H257777   2.156   1.461   1.125 -0.7248 -0.3491 -0.0105
12096TIP3   OH257778   2.113   2.644   1.342 -0.7068  0.0018  0.0455
12096TIP3    H157779   2.135   2.635   1.249 -1.1278  0.0708 -0.0618
12096TIP3    H257780   2.109   2.738   1.357 -0.3386 -0.0080  0.2061
12097TIP3   OH257781   6.674   0.027   5.435  0.9423  0.3034  0.4445
12097TIP3    H157782   6.658  -0.021   5.516  2.3597  2.0845  1.8699
12097TIP3    H257783   6.719   0.107   5.463  1.0530  1.2094 -2.0661
12098TIP3   OH257784   6.108   3.398  13.789  0.4429 -0.5763  0.1587
12098TIP3    H157785   6.041   3.393  13.857 -0.8171 -2.0595 -1.1106
12098TIP3    H257786   6.190   3.404  13.837 -0.5105  0.1406  1.7794
12099TIP3   OH257787   6.062   6.083  12.850 -0.5055 -0.5583  0.1971
12099TIP3    H157788   6.120   6.070  12.775  0.3094 -2.2474  1.0662
12099TIP3    H257789   6.059   6.177  12.862  1.7638 -0.3986 -0.1270
12100TIP3   OH257790   5.613   6.048  13.901  0.5221  0.2954 -0.1867
12100TIP3    H157791   5.600   5.961  13.939  1.0254  0.5875  0.6734
12100TIP3    H257792   5.690   6.083  13.945  0.7921  0.8787 -1.0793
12101TIP3   OH257793   0.728   0.787   6.112 -0.0122  0.2180  0.6387
12101TIP3    H157794   0.710   0.800   6.206  0.4592  0.3159  0.7154
12101TIP3    H257795   0.642   0.796   6.070 -0.1348  0.7712  0.9952
12102TIP3   OH257796   2.389   1.922   4.189 -0.7097  0.0858 -0.2655
12102TIP3    H157797   2.349   2.001   4.225 -0.7072 -0.4424  0.9575
12102TIP3    H257798   2.442   1.887   4.261  0.9263  0.0535 -1.4280
12103TIP3   OH257799   6.359   5.032   0.541 -0.4684  0.5444  0.1191
12103TIP3    H157800   6.450   5.030   0.511 -0.4426 -0.7674  0.2393
12103TIP3    H257801   6.327   5.119   0.516  0.6573  0.8170 -0.4022
12104TIP3   OH257802   5.374   2.792  12.741  0.9575  0.4268  0.2564
12104TIP3    H157803   5.382   2.697  12.729  0.6251 -0.1577  3.7135
12104TIP3    H257804   5.444   2.828  12.687  1.3377 -1.7797 -0.8669
12105TIP3   OH257805   0.634   3.706   1.094  0.2482  0.0579  0.3073
12105TIP3    H157806   0.686   3.758   1.034 -1.8521  2.0364  0.0336
12105TIP3    H257807   0.692   3.687   1.168  2.1137 -0.2806 -1.1885
12106TIP3   OH257808   0.636   5.078   2.213  0.3851 -0.0059  0.5153
12106TIP3    H157809   0.728   5.073   2.239  0.3064  1.5238  1.1348
12106TIP3    H257810   0.630   5.157   2.160 -0.0454 -1.5478 -1.9161
12107TIP3   OH257811   2.112   5.358  11.178  0.5581  0.0123 -0.7396
12107TIP3    H157812   2.163   5.391  11.104  0.6361  0.1076 -0.6440
12107TIP3    H257813   2.021   5.370  11.152  0.5678 -1.1537 -1.3545
12108TIP3   OH257814   5.351   4.356  17.156  0.7290  0.3554  0.0016
12108TIP3    H157815   5.437   4.315  17.148 -0.2198 -1.7258 -0.3215
12108TIP3    H257816   5.305   4.303  17.221 -0.4361  1.2051 -0.0883
12109TIP3   OH257817   0.409   3.251   2.966 -0.3642  0.1408  0.3380
12109TIP3    H157818   0.349   3.191   3.010  0.1747 -0.3976  0.3563
12109TIP3    H257819   0.429   3.208   2.883 -1.6886  1.3403 -0.6460
12110TIP3   OH257820   3.290   1.051  12.017 -0.1949 -0.0590 -0.0111
12110TIP3    H157821   3.344   1.027  12.093  0.5549  0.6247 -0.3185
12110TIP3    H257822   3.258   1.139  12.037 -0.8714 -0.2928 -0.0245
12111TIP3   OH257823   5.324   1.124   0.021  0.2829 -0.1896 -0.2885
12111TIP3    H157824   5.390   1.159   0.080  0.0211 -0.8883  0.4298
12111TIP3    H257825   5.374   1.095  -0.056  0.9979 -1.8529  0.7461
12112TIP3   OH257826   4.559   3.989  14.779  0.0378  0.1285 -0.1296
12112TIP3    H157827   4.522   4.007  14.866 -0.5918 -1.1269 -0.1223
12112TIP3    H257828   4.505   4.042  14.719 -0.1332  0.2614  0.1407
12113TIP3   OH257829   5.921   6.595  11.375 -0.2947 -0.5544 -0.2973
12113TIP3    H157830   5.998   6.598  11.319  1.8623  3.4061  2.4266
12113TIP3    H257831   5.944   6.534  11.445 -0.0776 -0.1997 -0.0585
12114TIP3   OH257832   5.307   4.678  16.759  0.0958  0.3976 -0.2078
12114TIP3    H157833   5.356   4.614  16.811  1.5656 -0.1767 -2.1805
12114TIP3    H257834   5.215   4.655  16.771  0.5238 -1.1206  0.3192
12115TIP3   OH257835   0.786   1.245   2.207 -0.1035 -0.1120 -0.5952
12115TIP3    H157836   0.732   1.167   2.194  0.4451 -0.5963 -0.0698
12115TIP3    H257837   0.770   1.299   2.130  0.1443 -1.1245 -1.3682
12116TIP3   OH257838   6.473   3.811  11.465  0.0336  0.7622 -0.4580
12116TIP3    H157839   6.401   3.781  11.410 -0.5381 -0.4230  0.8606
12116TIP3    H257840   6.435   3.881  11.518 -0.1109  0.2460  0.1250
12117TIP3   OH257841   1.697   0.233  14.242 -0.0173  0.5827  0.3317
12117TIP3    H157842   1.641   0.214  14.167  0.3325 -1.3678  0.5064
12117TIP3    H257843   1.784   0.249  14.204 -0.0793  0.7323  0.2518
12118TIP3   OH257844   3.790   4.819  15.660  0.2729  0.4492 -0.2406
12118TIP3    H157845   3.835   4.867  15.591  3.2395  0.8709  1.8098
12118TIP3    H257846   3.760   4.886  15.721 -1.6936  0.0315 -0.6530
12119TIP3   OH257847   1.663   1.843  11.331  0.0947  0.4198 -0.4084
12119TIP3    H157848   1.683   1.873  11.242  0.4125 -0.0625 -0.5013
12119TIP3    H257849   1.745   1.853  11.379  0.5558 -1.4194 -0.7492
12120TIP3   OH257850   3.708   2.951  16.763 -0.5575  0.0072 -0.0931
12120TIP3    H157851   3.762   3.005  16.705  0.3964  0.4820  1.1970
12120TIP3    H257852   3.771   2.913  16.824 -1.5705 -0.3160  0.7634
12121TIP3   OH257853   3.796   1.818   0.638 -0.2921  0.1601  0.3290
12121TIP3    H157854   3.884   1.830   0.672 -0.1618  3.2724 -0.7846
12121TIP3    H257855   3.739   1.844   0.711 -0.3847 -2.1699  1.1621
12122TIP3   OH257856   6.242   3.051  16.818 -0.2458  0.0172 -0.4277
12122TIP3    H157857   6.291   3.092  16.889  0.2092 -0.4608 -0.4676
12122TIP3    H257858   6.257   3.108  16.742  0.0484  0.0029 -0.3808
12123TIP3   OH257859   2.691   0.862  15.006 -0.1203  0.7892 -0.0594
12123TIP3    H157860   2.693   0.943  15.056 -2.5011  0.9929 -0.1586
12123TIP3    H257861   2.598   0.849  14.985  0.1611 -1.9752 -0.0122
12124TIP3   OH257862   3.211   5.917  14.031 -0.0123 -0.1176  0.1596
12124TIP3    H157863   3.193   5.904  13.938  0.3180 -0.5231  0.1500
12124TIP3    H257864   3.139   5.972  14.062  0.4713  0.9773 -0.5833
12125TIP3   OH257865   0.502   1.398  11.886  0.5318  0.5508  0.0585
12125TIP3    H157866   0.571   1.333  11.900  0.9025  0.9620  0.1361
12125TIP3    H257867   0.536   1.454  11.816 -0.0835  0.2483 -0.5019
12126TIP3   OH257868   3.797   0.825   1.379 -0.7782  0.0667 -0.0129
12126TIP3    H157869   3.875   0.802   1.430 -1.6054 -0.9568  0.8299
12126TIP3    H257870   3.804   0.920   1.367  0.3279  0.0690  0.4893
12127TIP3   OH257871   4.058   0.964  10.786 -0.7875  0.1420  0.6010
12127TIP3    H157872   4.044   1.020  10.862 -1.2185 -0.9407  1.3468
12127TIP3    H257873   4.017   1.010  10.713 -1.2429  0.7245  1.2194
12128TIP3   OH257874   6.529   0.366  16.975  0.0461  0.1642 -0.1585
12128TIP3    H157875   6.619   0.386  17.003 -0.2542  2.1446 -0.4575
12128TIP3    H257876   6.475   0.425  17.027 -1.0033 -0.2474 -0.7589
12129TIP3   OH257877   6.089   5.569  16.421 -0.1812 -0.3568 -0.3411
12129TIP3    H157878   6.180   5.548  16.399  0.1110  0.7157 -0.2623
12129TIP3    H257879   6.038   5.536  16.348  0.5259  1.0178 -1.5193
12130TIP3   OH257880   6.179   6.660   6.516  0.5043  0.2590 -0.0285
12130TIP3    H157881   6.260   6.706   6.538  0.8280 -0.4416  0.2915
12130TIP3    H257882   6.138   6.714   6.448  1.5523  0.3116 -0.6440
12131TIP3   OH257883   0.613   0.282   1.625 -0.0504  0.0918 -0.9562
12131TIP3    H157884   0.611   0.194   1.587 -0.6372  0.1834 -1.1562
12131TIP3    H257885   0.698   0.288   1.667  1.8529  0.9222 -4.4951
12132TIP3   OH257886   5.492   4.502   5.406 -0.3779  0.1508 -0.3414
12132TIP3    H157887   5.405   4.474   5.436 -0.6949  1.7531  0.3559
12132TIP3    H257888   5.550   4.430   5.432 -1.0913  0.2115  1.6254
12133TIP3   OH257889   4.839   1.450   0.938  0.0146 -0.4041 -0.0899
12133TIP3    H157890   4.883   1.531   0.911 -0.9804 -0.3151 -1.5936
12133TIP3    H257891   4.817   1.407   0.855 -0.3409 -1.7353  0.6780
12134TIP3   OH257892   3.886   2.827  16.921 -0.6580  0.1457 -0.5376
12134TIP3    H157893   3.926   2.880  16.990 -1.4717 -1.0110  0.8852
12134TIP3    H257894   3.955   2.765  16.895 -0.8503 -0.5046  0.4500
12135TIP3   OH257895   2.623   1.644   0.675 -0.3117 -0.7780  0.2993
12135TIP3    H157896   2.565   1.571   0.654  0.0923 -0.4641 -2.2525
12135TIP3    H257897   2.663   1.621   0.759 -1.3913 -2.7118  0.3165
12136TIP3   OH257898   3.432   1.911   0.577  0.4610 -0.0244 -0.7307
12136TIP3    H157899   3.449   1.819   0.556 -0.7001 -0.4131 -0.0284
12136TIP3    H257900   3.413   1.952   0.492  0.0808 -0.6291 -0.9439
12137TIP3   OH257901   3.943   4.036   4.354  0.0909 -0.1398  0.3891
12137TIP3    H157902   3.862   3.996   4.319  1.1213 -0.6511 -1.5722
12137TIP3    H257903   3.943   4.012   4.447 -1.3532 -1.2703  0.1430
12138TIP3   OH257904   2.659   4.732  13.324  0.4319 -0.1418 -0.3486
12138TIP3    H157905   2.707   4.652  13.305  0.8970 -0.3892  1.6288
12138TIP3    H257906   2.592   4.706  13.387 -0.7759  0.6566 -1.2669
12139TIP3   OH257907   2.764   1.766  17.275 -0.5776 -0.1554  0.1158
12139TIP3    H157908   2.829   1.819  17.230 -1.0941 -0.5253 -1.1039
12139TIP3    H257909   2.696   1.750  17.209 -0.8175 -1.6653  0.6867
12140TIP3   OH257910   2.152   3.078  14.173 -0.3889  0.1321  0.4204
12140TIP3    H157911   2.077   3.037  14.130  0.4853 -0.9752 -0.0928
12140TIP3    H257912   2.174   3.019  14.244  1.5286 -0.9097 -0.9500
12141TIP3   OH257913   6.341   1.817  15.043  0.4146  0.7090  0.3836
12141TIP3    H157914   6.426   1.796  15.082  0.3359  0.3291  0.3569
12141TIP3    H257915   6.354   1.902  15.001  0.5481  1.0505  1.0975
12142TIP3   OH257916   1.253   3.695  12.847  0.2740  0.1139 -0.0602
12142TIP3    H157917   1.245   3.783  12.809 -1.2328  0.9603  1.9757
12142TIP3    H257918   1.347   3.683  12.861  0.4063  2.3596  1.5603
12143TIP3   OH257919   6.298   1.907  17.267 -0.3816  0.7597 -0.4361
12143TIP3    H157920   6.383   1.913  17.309 -1.1178  2.4755  0.9412
12143TIP3    H257921   6.284   1.813  17.253  1.8321  0.4744 -0.9802
12144TIP3   OH257922   5.312   2.313  14.743 -0.0123  0.2484  0.2662
12144TIP3    H157923   5.240   2.271  14.696 -0.5640 -0.1587  1.4257
12144TIP3    H257924   5.272   2.387  14.788  0.6506  1.0796 -0.4661
12145TIP3   OH257925   0.102   0.139   1.726  0.2765  0.0026 -0.3220
12145TIP3    H157926   0.122   0.232   1.725 -0.0837  0.0931  0.2996
12145TIP3    H257927   0.034   0.130   1.792  1.1765 -0.8643  0.5293
12146TIP3   OH257928   4.766   2.883  16.833  0.5407  0.3280  0.4470
12146TIP3    H157929   4.772   2.788  16.821 -2.0758  0.2534 -0.9950
12146TIP3    H257930   4.734   2.916  16.750  0.3895  2.3757  1.2545
12147TIP3   OH257931   5.369   5.744   5.081  0.0185 -0.0158  0.0329
12147TIP3    H157932   5.386   5.664   5.129 -1.2388 -1.5909 -1.9804
12147TIP3    H257933   5.408   5.730   4.995 -1.3446  0.9499 -0.7930
12148TIP3   OH257934   6.213   0.177  14.676 -0.4426  0.1863 -0.0621
12148TIP3    H157935   6.269   0.254  14.683  0.4778 -0.5595  1.0779
12148TIP3    H257936   6.273   0.105  14.660 -1.3922 -0.1641 -2.4173
12149TIP3   OH257937   6.379   3.360   1.293 -0.5768 -0.3012  0.2587
12149TIP3    H157938   6.395   3.332   1.383 -1.1293 -0.3308  0.3535
12149TIP3    H257939   6.292   3.400   1.296 -0.3042  0.3402 -0.1205
12150TIP3   OH257940   1.321   0.209   2.153 -0.0793 -0.4556  0.2905
12150TIP3    H157941   1.397   0.152   2.165 -0.0629 -0.5936 -0.4687
12150TIP3    H257942   1.259   0.179   2.220 -0.0625 -1.3654 -0.0780
12151TIP3   OH257943   6.047   2.754  11.434 -0.1197 -0.0724  0.0300
12151TIP3    H157944   6.107   2.809  11.382  0.7953  1.6965  2.7558
12151TIP3    H257945   6.099   2.726  11.509 -0.6092 -4.7096 -1.0458
12152TIP3   OH257946   0.529   4.255   1.900 -0.3237  0.5491 -0.6405
12152TIP3    H157947   0.556   4.183   1.957 -0.0002  0.5779 -0.7550
12152TIP3    H257948   0.447   4.225   1.862  0.3834 -0.2624 -1.5789
12153TIP3   OH257949   4.956   4.223  13.368  0.7995  0.2292 -0.3531
12153TIP3    H157950   5.020   4.212  13.298  2.4262  0.0656  1.1073
12153TIP3    H257951   4.980   4.157  13.433  0.2841  1.3605  1.0410
12154TIP3   OH257952   5.024   0.688   3.750 -0.4788 -0.1345 -0.0001
12154TIP3    H157953   5.022   0.724   3.662 -1.2069 -0.3582 -0.0862
12154TIP3    H257954   4.932   0.685   3.776 -0.1628  1.9600  1.6013
12155TIP3   OH257955   5.952   5.525  13.457  0.2396 -0.4750 -0.3494
12155TIP3    H157956   5.888   5.584  13.417  1.3639 -0.0918 -1.6598
12155TIP3    H257957   5.899   5.455  13.496 -1.0393  0.6536  0.0165
12156TIP3   OH257958   4.769   5.752  12.652  0.5041 -0.7909  0.0373
12156TIP3    H157959   4.833   5.779  12.718 -0.6027  2.2880 -0.0069
12156TIP3    H257960   4.820   5.744  12.571  1.2523 -0.9832  0.5156
12157TIP3   OH257961   2.757   3.346  14.670  0.1733  0.0208  0.2401
12157TIP3    H157962   2.800   3.432  14.672  0.5848 -0.1914  1.4513
12157TIP3    H257963   2.809   3.292  14.729 -0.7338 -0.7412  0.3663
12158TIP3   OH257964   6.061   5.601  12.103 -0.1624 -0.1827  0.0715
12158TIP3    H157965   6.127   5.669  12.092 -0.7545  0.1592 -1.7472
12158TIP3    H257966   6.001   5.636  12.170  0.8355  0.0103  0.8809
12159TIP3   OH257967   5.648   1.672  15.280 -0.6541 -0.3608  0.2413
12159TIP3    H157968   5.734   1.701  15.248  0.9049 -3.2487  1.4694
12159TIP3    H257969   5.590   1.685  15.206  0.7362  1.9289 -0.5594
12160TIP3   OH257970   3.249   1.665   1.648  0.7347  0.4438  0.6097
12160TIP3    H157971   3.233   1.744   1.596  2.0301  0.2990 -0.0497
12160TIP3    H257972   3.337   1.636   1.622  0.5026 -0.9162  1.2349
12161TIP3   OH257973   4.089   1.178  16.379 -0.6290  0.1777  0.1622
12161TIP3    H157974   4.118   1.157  16.467 -1.3004  0.4502  0.4520
12161TIP3    H257975   4.019   1.116  16.361  0.2011 -0.5748 -0.5928
12162TIP3   OH257976   5.292   5.488  13.223 -0.4000  0.1487  0.1726
12162TIP3    H157977   5.304   5.570  13.175  1.3184 -0.3915 -0.3969
12162TIP3    H257978   5.226   5.440  13.173  0.3902  0.1611 -0.8994
12163TIP3   OH257979   5.238   4.985  15.868  0.0310  0.1142  0.4129
12163TIP3    H157980   5.306   5.028  15.920 -1.1672  2.8396 -0.1082
12163TIP3    H257981   5.155   5.015  15.907 -0.9101 -1.8166  0.0133
12164TIP3   OH257982   5.115   1.129  11.244  0.1054  0.3145 -0.8136
12164TIP3    H157983   5.156   1.049  11.214 -0.1236 -0.2116  0.2411
12164TIP3    H257984   5.181   1.197  11.230  0.5034 -0.1472 -1.1906
12165TIP3   OH257985   5.830   3.359   5.996 -0.1347 -0.3958  0.1006
12165TIP3    H157986   5.818   3.264   5.995 -0.7289 -0.3244  0.0256
12165TIP3    H257987   5.808   3.385   6.085 -2.6449 -0.0209 -0.5500
12166TIP3   OH257988   0.798   4.979   6.515 -0.1403 -0.6163  0.3486
12166TIP3    H157989   0.742   4.919   6.565  0.0250 -0.5710  0.5899
12166TIP3    H257990   0.880   4.982   6.565  0.9488 -2.5109 -1.2187
12167TIP3   OH257991   4.514   2.888   5.087  0.4719 -0.0551  0.4723
12167TIP3    H157992   4.421   2.883   5.067  0.8179 -1.1192 -1.0757
12167TIP3    H257993   4.540   2.797   5.104  1.6247 -0.1093 -1.2675
12168TIP3   OH257994   3.110   3.614   3.128  0.3490  0.7768 -0.0063
12168TIP3    H157995   3.196   3.571   3.128 -1.3279 -2.9542 -0.9205
12168TIP3    H257996   3.097   3.641   3.037 -0.4352 -1.0443 -0.4734
12169TIP3   OH257997   5.888   1.130   4.184  0.1884 -0.0717 -0.9114
12169TIP3    H157998   5.883   1.038   4.156  1.6888 -0.2006 -0.8593
12169TIP3    H257999   5.823   1.175   4.131 -0.8147 -1.2183 -0.7029
12170TIP3   OH258000   3.445   3.941   3.910  0.0418 -0.2916  0.0785
12170TIP3    H158001   3.408   3.975   3.828  0.8241  0.5433  0.0625
12170TIP3    H258002   3.371   3.897   3.953 -0.5124 -0.2644 -0.8141
12171TIP3   OH258003   3.361   4.038   4.544 -0.4480  0.1135  0.4081
12171TIP3    H158004   3.438   4.092   4.564 -0.9199  0.5027  1.2199
12171TIP3    H258005   3.309   4.093   4.485  0.4879 -0.6594 -1.2087
12172TIP3   OH258006   4.235   3.553  13.613 -0.5886  0.1160  0.2284
12172TIP3    H158007   4.259   3.529  13.702  0.9495 -3.0415 -0.8832
12172TIP3    H258008   4.139   3.547  13.612 -0.5227 -2.9227  1.0261
12173TIP3   OH258009   3.158   1.939   6.910 -0.5841  0.4010  0.0412
12173TIP3    H158010   3.161   2.017   6.855 -1.4547 -0.0726 -0.7083
12173TIP3    H258011   3.084   1.955   6.969 -1.0263 -0.0183 -0.3892
12174TIP3   OH258012   1.133   0.430  16.434 -0.4326 -0.3968 -0.3562
12174TIP3    H158013   1.211   0.432  16.489 -1.1103  0.2783  0.6113
12174TIP3    H258014   1.101   0.520  16.434 -0.6499 -0.4610 -1.5756
12175TIP3   OH258015   1.528   3.498   5.208  0.1304 -0.2911  0.1049
12175TIP3    H158016   1.467   3.469   5.276  0.3568 -0.4686  0.2346
12175TIP3    H258017   1.515   3.436   5.136  0.6409 -0.7531  0.3966
12176TIP3   OH258018   6.229   3.613   1.671  0.6255  0.1378  0.0784
12176TIP3    H158019   6.138   3.629   1.697  0.8769 -0.9240  1.7524
12176TIP3    H258020   6.232   3.520   1.650  1.5983 -0.1303  1.3308
12177TIP3   OH258021   6.646   5.264   5.886 -0.4767 -0.4040 -0.7402
12177TIP3    H158022   6.556   5.287   5.862  0.0210  1.3640 -1.0789
12177TIP3    H258023   6.692   5.349   5.891  1.1342 -1.2517 -0.4484
12178TIP3   OH258024   0.026   2.770   4.464  0.2420 -1.1308  0.2009
12178TIP3    H158025  -0.050   2.720   4.436  1.0385 -2.6008  0.5968
12178TIP3    H258026   0.085   2.706   4.503  1.0533  0.1890  1.2657
12179TIP3   OH258027   6.800   0.728  15.711  0.2179 -0.0739  0.0152
12179TIP3    H158028   6.830   0.668  15.643  1.5527  1.6973 -1.0253
12179TIP3    H258029   6.874   0.787  15.727 -0.9735  1.2196  1.0883
12180TIP3   OH258030   2.238   3.953   0.132  0.2611 -0.7018  0.9348
12180TIP3    H158031   2.251   3.957   0.038  0.9051 -0.4515  1.0329
12180TIP3    H258032   2.283   4.030   0.167 -1.1447 -0.0218  1.3266
12181TIP3   OH258033   5.412   1.912   2.043  0.1752 -0.0039 -0.0730
12181TIP3    H158034   5.399   2.005   2.065  0.2496  0.1331 -0.5853
12181TIP3    H258035   5.504   1.895   2.065  0.1020 -0.0171  0.2270
12182TIP3   OH258036   6.028   6.742   0.198 -0.3167  0.0800  0.1346
12182TIP3    H158037   6.068   6.758   0.113 -1.3239  0.2940 -0.3172
12182TIP3    H258038   5.934   6.742   0.181 -0.5134 -0.9470  1.0633
12183TIP3   OH258039   4.747   0.760   4.589 -0.1047 -0.1346  0.3821
12183TIP3    H158040   4.819   0.822   4.580 -1.2260  0.9309 -2.1447
12183TIP3    H258041   4.694   0.773   4.511 -2.2567 -1.9266  1.4244
12184TIP3   OH258042   0.013   2.032   5.829 -0.9530  0.6435 -0.3807
12184TIP3    H158043   0.008   1.947   5.871 -1.5551  0.8585 -0.0045
12184TIP3    H258044   0.103   2.039   5.799 -1.1070 -0.4685 -1.1406
12185TIP3   OH258045   2.634   1.854  14.049 -0.6971 -0.6054  0.5650
12185TIP3    H158046   2.727   1.869  14.066 -0.7770 -0.5957  1.0132
12185TIP3    H258047   2.631   1.774  13.996 -0.4513 -0.7640  0.7903
12186TIP3   OH258048   2.274   4.069  12.212  0.7023  0.4837  0.0847
12186TIP3    H158049   2.359   4.055  12.169  0.8644 -0.6708  0.7385
12186TIP3    H258050   2.286   4.149  12.263  0.7558  1.4422 -1.3434
12187TIP3   OH258051   6.111   5.770   4.796  0.5784 -0.3747  0.0988
12187TIP3    H158052   6.126   5.737   4.885 -2.5372 -1.1081  0.4754
12187TIP3    H258053   6.177   5.839   4.785  0.9645 -0.1062  3.0552
12188TIP3   OH258054   0.571   2.324  11.897 -0.6172  0.1383  0.0859
12188TIP3    H158055   0.602   2.318  11.807 -0.3389 -0.6333  0.2263
12188TIP3    H258056   0.506   2.395  11.895 -1.0243 -0.2386 -0.8403
12189TIP3   OH258057   2.788   5.074   0.197 -0.1859  0.0408 -0.3593
12189TIP3    H158058   2.745   5.160   0.204 -1.5388 -0.4078 -2.3315
12189TIP3    H258059   2.846   5.082   0.122  1.5741 -0.0829  0.9119
12190TIP3   OH258060   0.419   6.633  14.385 -0.3371  0.3601 -0.1996
12190TIP3    H158061   0.388   6.720  14.412 -1.2947  0.0859 -0.3620
12190TIP3    H258062   0.398   6.628  14.292  0.6323  0.3322 -0.4196
12191TIP3   OH258063   6.140   1.657   1.545 -0.5408  0.0356 -0.5335
12191TIP3    H158064   6.086   1.592   1.500 -0.8730 -0.6417  0.7937
12191TIP3    H258065   6.224   1.612   1.560 -1.0715 -0.4573  1.1920
12192TIP3   OH258066   3.900   2.548  12.365  0.5521  0.6499  0.7065
12192TIP3    H158067   3.927   2.499  12.288 -0.4592  1.3956 -0.1552
12192TIP3    H258068   3.970   2.533  12.429  2.1356  1.1736 -0.8375
12193TIP3   OH258069   3.572   2.042   1.064  0.0190  0.2478  0.4259
12193TIP3    H158070   3.543   1.997   0.985  0.2266 -0.5226  0.7860
12193TIP3    H258071   3.532   2.129   1.058 -0.1763  0.1053 -0.3957
12194TIP3   OH258072   0.356   5.791   1.546  0.4378  0.4991 -0.2206
12194TIP3    H158073   0.272   5.801   1.590 -1.1590 -1.4915 -2.5157
12194TIP3    H258074   0.408   5.865   1.576 -2.2531  2.0321  1.0441
12195TIP3   OH258075   2.342   0.448   0.489 -0.1172 -0.2656 -0.0214
12195TIP3    H158076   2.298   0.397   0.557  0.5930 -1.5217 -0.4624
12195TIP3    H258077   2.391   0.514   0.537 -1.3833  0.2899  0.5475
12196TIP3   OH258078   2.833   5.175  12.450 -0.2689 -0.3889 -0.0257
12196TIP3    H158079   2.858   5.092  12.490  0.5009 -0.2326 -0.1734
12196TIP3    H258080   2.760   5.153  12.392 -1.5284 -0.5907  1.5753
12197TIP3   OH258081   4.638   2.605   5.990  0.2815 -0.0448  0.1306
12197TIP3    H158082   4.678   2.651   6.063  0.1412  1.0410 -0.4525
12197TIP3    H258083   4.600   2.675   5.935 -2.4661 -0.9848  0.6645
12198TIP3   OH258084   0.526   4.072   4.392 -0.0327  0.2599 -0.3240
12198TIP3    H158085   0.517   4.167   4.389 -0.9193  0.3570  2.6210
12198TIP3    H258086   0.437   4.038   4.386  0.1926 -0.3481 -0.3819
12199TIP3   OH258087   0.956   0.333  16.645  0.4545  0.1152  0.2702
12199TIP3    H158088   0.998   0.319  16.561 -0.3863 -0.6701 -0.0283
12199TIP3    H258089   1.021   0.381  16.697  0.7515  1.1540 -1.0173
12200TIP3   OH258090   4.478   6.161   5.303 -0.0882 -0.0331  0.1495
12200TIP3    H158091   4.398   6.131   5.345  0.3369 -1.6686 -0.1407
12200TIP3    H258092   4.472   6.257   5.304 -1.1456 -0.0895  1.8438
12201TIP3   OH258093   4.834   5.834  11.319  0.1876  0.2921  0.2323
12201TIP3    H158094   4.841   5.877  11.234 -1.0704  1.7172  0.7999
12201TIP3    H258095   4.749   5.789  11.317  1.2493 -1.7865 -0.1508
12202TIP3   OH258096   1.385   4.264   2.777  0.1630  0.6707 -0.1565
12202TIP3    H158097   1.408   4.299   2.863 -0.2153 -1.5432  0.8970
12202TIP3    H258098   1.370   4.342   2.723 -1.8567  2.1776  2.3612
12203TIP3   OH258099   2.606   0.832   2.813  0.3890  0.0206  0.4253
12203TIP3    H158100   2.552   0.775   2.759 -0.8468  2.5984 -1.2207
12203TIP3    H258101   2.583   0.808   2.903 -2.7203  0.2551 -0.2151
12204TIP3   OH258102   0.994   1.801  14.622  0.1450 -0.2507 -0.3901
12204TIP3    H158103   1.029   1.712  14.612  0.6679 -0.6010  3.2693
12204TIP3    H258104   0.965   1.825  14.534  1.0935 -3.5472 -1.7647
12205TIP3   OH258105   0.912   0.402  11.804  0.2042  0.1604  0.4494
12205TIP3    H158106   0.896   0.462  11.731 -1.1300  1.3606  1.6406
12205TIP3    H258107   0.995   0.359  11.783  0.3511  1.1932 -1.2682
12206TIP3   OH258108   6.617   2.408  13.104  0.3784 -0.6944  0.2243
12206TIP3    H158109   6.528   2.373  13.112 -0.2132  0.1699 -1.9473
12206TIP3    H258110   6.606   2.503  13.095  1.4521 -0.6159 -0.6070
12207TIP3   OH258111   0.120   0.098  11.899 -0.1403  0.1299  0.2087
12207TIP3    H158112   0.048   0.122  11.957  0.3405  1.2946  0.3448
12207TIP3    H258113   0.082   0.035  11.838 -1.3351  0.9082  0.1297
12208TIP3   OH258114   2.890   4.790  16.629  0.3077  0.0873  0.4017
12208TIP3    H158115   2.953   4.851  16.591  1.1120 -1.1031 -0.2121
12208TIP3    H258116   2.812   4.799  16.575  0.4562  0.4927  0.2517
12209TIP3   OH258117   5.983   3.558  16.047  0.7243 -0.2302  0.0067
12209TIP3    H158118   5.898   3.560  16.005  0.9275 -1.1198 -0.4831
12209TIP3    H258119   6.014   3.649  16.045  0.5952 -0.1949 -1.5089
12210TIP3   OH258120   1.493   6.281  15.879  0.0059  0.1139 -0.1413
12210TIP3    H158121   1.433   6.217  15.918  0.2266 -0.3938 -0.6210
12210TIP3    H258122   1.553   6.304  15.950  2.5146 -3.2971 -0.9379
12211TIP3   OH258123   0.646   6.048  16.667 -0.2461 -0.5043  0.2111
12211TIP3    H158124   0.636   6.037  16.762 -2.2347 -0.4155  0.0545
12211TIP3    H258125   0.588   5.982  16.629  0.9509 -0.9101 -0.9753
12212TIP3   OH258126   1.845   5.260  17.036  0.0739  0.5480  0.4025
12212TIP3    H158127   1.851   5.184  17.093 -0.2383 -0.3410 -0.7182
12212TIP3    H258128   1.918   5.316  17.062  0.2100 -0.0593  1.3402
12213TIP3   OH258129   1.671   3.610   0.921 -0.2905  0.0414  0.7792
12213TIP3    H158130   1.758   3.572   0.910 -0.9610 -1.4617  0.3887
12213TIP3    H258131   1.676   3.695   0.876  0.5906 -0.6303 -0.4550
12214TIP3   OH258132   6.052   6.761   4.574  0.0074  0.4659  0.3725
12214TIP3    H158133   6.088   6.835   4.525 -0.8670  0.5941 -0.0872
12214TIP3    H258134   6.091   6.769   4.661 -0.0270  1.4286  0.3113
12215TIP3   OH258135   2.335   1.422  14.362  0.1936 -0.1896  0.2851
12215TIP3    H158136   2.398   1.470  14.416  1.2905  0.8145 -1.7351
12215TIP3    H258137   2.344   1.331  14.389 -0.0940  0.3817  2.4813
12216TIP3   OH258138   6.322   6.108   2.036  0.1481 -0.0946  0.1643
12216TIP3    H158139   6.269   6.181   2.068  1.6297  0.1968  2.1847
12216TIP3    H258140   6.264   6.032   2.043 -0.7650  0.5705 -0.0084
12217TIP3   OH258141   5.162   0.443  16.169  0.0803 -0.2683 -0.6718
12217TIP3    H158142   5.088   0.490  16.132  0.6029 -0.4064 -1.9445
12217TIP3    H258143   5.135   0.423  16.259 -0.3967  1.8862 -0.2880
12218TIP3   OH258144   5.161   5.510   1.041  0.0212 -0.0250 -0.2469
12218TIP3    H158145   5.175   5.603   1.062  0.2414  0.3955 -2.1063
12218TIP3    H258146   5.066   5.501   1.034 -0.0560 -0.1693  0.8421
12219TIP3   OH258147   3.164   1.067  14.235  0.6689  0.2317  0.8614
12219TIP3    H158148   3.224   1.101  14.169 -2.6073 -1.5124 -3.4426
12219TIP3    H258149   3.114   1.144  14.263  0.3656  0.6607 -0.7583
12220TIP3   OH258150   1.381   4.310  13.287  0.4349 -0.4607 -0.2824
12220TIP3    H158151   1.389   4.227  13.334  1.0263 -1.2250 -1.6661
12220TIP3    H258152   1.465   4.322  13.243  0.1397  0.5539 -0.6191
12221TIP3   OH258153   6.754   5.724   1.191  0.0491  0.1660  0.0941
12221TIP3    H158154   6.819   5.655   1.209  0.3080  0.0759 -1.1439
12221TIP3    H258155   6.772   5.752   1.102 -0.8153  1.0355  0.1768
12222TIP3   OH258156   4.254   2.321   0.605 -0.2527  0.3729  0.3102
12222TIP3    H158157   4.275   2.355   0.518  0.2708 -1.9131 -0.5219
12222TIP3    H258158   4.190   2.252   0.590 -0.0290 -0.1758  1.7172
12223TIP3   OH258159   3.967   6.241  14.535  0.2445 -0.0715  0.1279
12223TIP3    H158160   3.914   6.166  14.562  0.5951 -0.9026 -1.3821
12223TIP3    H258161   3.917   6.282  14.464  0.9126  0.0086 -0.3103
12224TIP3   OH258162   1.773   6.248  10.469 -0.0371  0.3779  0.1204
12224TIP3    H158163   1.834   6.184  10.505 -0.0567  0.8917  1.1051
12224TIP3    H258164   1.824   6.294  10.401  0.4773  0.3798  0.5006
12225TIP3   OH258165   6.293   3.365  12.891  0.8719 -0.0077  0.4667
12225TIP3    H158166   6.319   3.292  12.947 -1.9226 -1.4522  0.0019
12225TIP3    H258167   6.213   3.399  12.931  0.0203  0.3344 -1.4287
12226TIP3   OH258168   4.162   5.994   4.656  0.6408  0.4142  0.1613
12226TIP3    H158169   4.083   5.960   4.614  1.1022  0.7634 -1.0246
12226TIP3    H258170   4.200   5.918   4.700 -0.4589  0.2906  0.9355
12227TIP3   OH258171   4.063   2.043  13.767  0.5434  0.2933  0.4224
12227TIP3    H158172   4.057   2.108  13.696  1.1708  0.9537  0.9612
12227TIP3    H258173   4.109   1.969  13.727 -1.9480 -0.7298 -0.8051
12228TIP3   OH258174   2.777   0.986   0.323 -0.4044  0.1970  0.0840
12228TIP3    H158175   2.806   1.065   0.276 -0.0066  0.3468  0.5697
12228TIP3    H258176   2.807   1.000   0.413 -1.4941  0.0825  0.4693
12229TIP3   OH258177   3.244   0.204   0.673  0.0838 -0.0713  0.0195
12229TIP3    H158178   3.235   0.187   0.767  2.7041  0.7991  0.5071
12229TIP3    H258179   3.326   0.252   0.665 -0.1015 -0.0588 -2.7346
12230TIP3   OH258180   0.596   3.444   3.449  0.1336 -0.1088  0.2781
12230TIP3    H158181   0.579   3.357   3.413  0.1897  0.2750 -0.7239
12230TIP3    H258182   0.668   3.430   3.511  0.9048 -0.6226 -0.6900
12231TIP3   OH258183   0.746   0.110   3.991 -0.0805  0.6090  0.8283
12231TIP3    H158184   0.807   0.049   4.032 -1.9683 -0.7683  1.7763
12231TIP3    H258185   0.678   0.054   3.953 -1.7960  2.0875  1.5737
12232TIP3   OH258186   0.401   4.577  16.354 -0.1056  0.1234  0.0150
12232TIP3    H158187   0.341   4.505  16.334 -1.9317  1.6949 -0.4859
12232TIP3    H258188   0.375   4.608  16.440 -1.5168  2.1449 -1.0450
12233TIP3   OH258189   2.989   5.634   0.729  0.2112  0.0496  0.2548
12233TIP3    H158190   3.084   5.639   0.719  0.2933 -0.4488  0.7830
12233TIP3    H258191   2.964   5.718   0.768  0.4009  0.2854 -0.1272
12234TIP3   OH258192   1.294   4.898   6.402 -0.0878  0.5305  0.4333
12234TIP3    H158193   1.331   4.903   6.314  0.9646  1.6609  0.9153
12234TIP3    H258194   1.210   4.943   6.394 -0.3235  0.0116 -0.1418
12235TIP3   OH258195   2.238   3.447   3.652 -0.7168 -1.1483  0.4447
12235TIP3    H158196   2.208   3.537   3.662  2.5590  0.0932  0.2280
12235TIP3    H258197   2.317   3.453   3.598  1.7970 -3.6650  3.4231
12236TIP3   OH258198   2.709   6.535   3.287 -0.0508  0.7668  0.2109
12236TIP3    H158199   2.730   6.444   3.307  0.8671  0.4407 -1.9815
12236TIP3    H258200   2.705   6.578   3.373  1.2420 -0.9620  1.2000
12237TIP3   OH258201   4.302   2.553   1.401  0.1523 -0.4227  0.2374
12237TIP3    H158202   4.317   2.463   1.372  1.3557 -0.9356  2.2458
12237TIP3    H258203   4.390   2.587   1.419 -0.1855  1.5544 -1.4518
12238TIP3   OH258204   3.603   1.811   1.226 -0.4405  0.3093 -0.1266
12238TIP3    H158205   3.630   1.893   1.184  0.4974  0.8395  1.4126
12238TIP3    H258206   3.675   1.750   1.207 -0.1875  0.4451  0.3643
12239TIP3   OH258207   3.696   3.540  13.682  0.3768 -0.0755  0.2678
12239TIP3    H158208   3.668   3.609  13.622 -2.4078 -1.1943  0.1505
12239TIP3    H258209   3.651   3.461  13.652  0.5223 -1.1442  2.5826
12240TIP3   OH258210   3.676   3.484  11.552  0.0477 -0.2312  0.1109
12240TIP3    H158211   3.592   3.453  11.517  0.3324 -1.0530  0.1289
12240TIP3    H258212   3.736   3.480  11.477  0.5893 -1.7250  0.5853
12241TIP3   OH258213   0.283   1.661   3.158  0.1202  0.0744  0.5430
12241TIP3    H158214   0.271   1.650   3.252 -0.1130  1.5071  0.7001
12241TIP3    H258215   0.325   1.747   3.148 -1.3616  0.7025 -0.7304
12242TIP3   OH258216   1.009   3.585  12.819  0.1520  0.2982  0.5589
12242TIP3    H158217   1.093   3.630  12.826 -0.2366  1.1371 -0.1146
12242TIP3    H258218   0.944   3.651  12.843 -0.4201  0.1041 -0.4132
12243TIP3   OH258219   5.660   2.449   0.914 -0.2645 -0.1502  0.2354
12243TIP3    H158220   5.748   2.416   0.927 -0.3736 -1.0112 -1.0324
12243TIP3    H258221   5.629   2.406   0.834 -2.1813 -0.6048  1.1473
12244TIP3   OH258222   3.439   3.513  14.753 -0.5393  0.7096 -0.3440
12244TIP3    H158223   3.370   3.503  14.687 -0.2084  0.5757 -0.6746
12244TIP3    H258224   3.518   3.481  14.710  0.0254  2.1754 -0.4772
12245TIP3   OH258225   0.912   0.193  17.119  0.4052  0.3443 -0.5156
12245TIP3    H158226   0.889   0.159  17.033  1.2512 -0.0945 -0.5842
12245TIP3    H258227   1.004   0.167  17.131 -0.4075 -1.8724  1.6094
12246TIP3   OH258228   1.936   6.726  12.522  0.5500  0.1135 -0.3611
12246TIP3    H158229   2.014   6.743  12.469  1.3811 -0.6354  0.5518
12246TIP3    H258230   1.962   6.752  12.611  0.2472 -1.3736  0.2017
12247TIP3   OH258231   2.499   5.223   3.841 -0.3581 -0.0932  0.0033
12247TIP3    H158232   2.439   5.295   3.821 -0.4078 -0.0435  0.3158
12247TIP3    H258233   2.554   5.257   3.912 -1.2766 -0.8267  1.0935
12248TIP3   OH258234   1.650   0.781   5.537 -0.0147  0.3125  0.3329
12248TIP3    H158235   1.562   0.809   5.511  0.0326  0.9975  0.8725
12248TIP3    H258236   1.671   0.836   5.613  1.2869  0.8645 -0.3996
12249TIP3   OH258237   2.827   3.759   4.075 -0.1460  0.2172 -0.2050
12249TIP3    H158238   2.858   3.681   4.027 -0.4263  0.3778 -0.6543
12249TIP3    H258239   2.907   3.809   4.092  0.3471 -1.1722  1.9688
12250TIP3   OH258240   0.597   3.896  16.571  0.1198  0.2007  0.5550
12250TIP3    H158241   0.607   3.972  16.514 -0.6237  0.6138  0.9602
12250TIP3    H258242   0.503   3.878  16.571  0.0942  0.2505  1.6907
12251TIP3   OH258243   0.581   2.253  15.952 -0.2269 -0.5934  0.4902
12251TIP3    H158244   0.598   2.166  15.990  0.1061 -0.1988  1.2772
12251TIP3    H258245   0.489   2.249  15.925  0.4873 -2.0935 -2.0125
12252TIP3   OH258246   2.511   2.231   6.424 -0.5325 -0.4949  0.0911
12252TIP3    H158247   2.585   2.252   6.482 -0.9218 -0.4687  0.5840
12252TIP3    H258248   2.520   2.137   6.407  0.7271 -0.1491 -1.4384
12253TIP3   OH258249   6.743   0.816   6.321  0.6708  0.4793 -0.2187
12253TIP3    H158250   6.680   0.813   6.249 -0.4322  0.2103  0.7171
12253TIP3    H258251   6.693   0.850   6.395  2.3308  2.8583 -0.0820
12254TIP3   OH258252   5.102   2.530  15.801  0.5488 -0.2653  0.3018
12254TIP3    H158253   5.030   2.524  15.863  0.6957 -0.5153  0.4501
12254TIP3    H258254   5.132   2.440  15.790 -0.3778 -0.4204 -1.1946
12255TIP3   OH258255   3.412   1.482   3.684 -0.0105  0.4234  0.3876
12255TIP3    H158256   3.361   1.478   3.764 -0.1507  1.9764  0.4213
12255TIP3    H258257   3.402   1.573   3.654  0.7982  0.1265 -0.8813
12256TIP3   OH258258   1.358   6.520   0.254 -0.3033  0.3490 -0.2905
12256TIP3    H158259   1.438   6.478   0.222 -1.9741 -3.0413 -0.4336
12256TIP3    H258260   1.303   6.531   0.176 -2.3498 -3.2236  0.4344
12257TIP3   OH258261   2.310   2.617   5.365  0.0808 -0.5119 -0.0993
12257TIP3    H158262   2.223   2.581   5.351 -0.2679  0.4391 -0.4517
12257TIP3    H258263   2.308   2.703   5.323  0.3476  0.6560  2.1209
12258TIP3   OH258264   0.813   0.619  15.742  0.1159 -0.1356 -0.4691
12258TIP3    H158265   0.813   0.567  15.822 -0.3433  0.0112 -0.3649
12258TIP3    H258266   0.859   0.700  15.765  2.8469 -1.3527 -1.2462
12259TIP3   OH258267   3.270   1.340   2.583  0.4155  0.1074  0.5122
12259TIP3    H158268   3.217   1.339   2.663  0.6742  0.5095  0.6887
12259TIP3    H258269   3.246   1.422   2.540 -1.2630 -1.0284 -0.8720
12260TIP3   OH258270   0.737   6.183  16.392  0.2747 -0.6940 -0.0757
12260TIP3    H158271   0.661   6.183  16.333  0.5710 -1.6439 -0.4783
12260TIP3    H258272   0.700   6.185  16.480 -0.2158 -0.8945 -0.2738
12261TIP3   OH258273   4.480   6.385   3.548  0.2873 -0.9176 -0.3247
12261TIP3    H158274   4.506   6.451   3.484 -2.4901  0.0720 -0.5815
12261TIP3    H258275   4.505   6.422   3.633 -0.8189  0.3112 -0.5020
12262TIP3   OH258276   1.269   0.181  10.869 -0.5657 -0.0116  0.0168
12262TIP3    H158277   1.214   0.235  10.925 -1.3686 -1.3334  0.5451
12262TIP3    H258278   1.307   0.242  10.806 -5.0200  0.6816 -2.4002
12263TIP3   OH258279   2.223   4.071  16.692  0.0414  0.0492  0.3069
12263TIP3    H158280   2.155   4.100  16.754  1.1880  1.3843  0.9959
12263TIP3    H258281   2.209   3.977  16.683 -0.4261 -0.1132  2.2818
12264TIP3   OH258282   4.749   1.608  13.383  0.2806 -0.0590 -0.1258
12264TIP3    H158283   4.727   1.607  13.290  0.4979  1.6461 -0.2352
12264TIP3    H258284   4.792   1.524  13.398  1.2469  0.0664 -1.8318
12265TIP3   OH258285   5.677   6.450   3.924  0.3818  0.5575  0.2735
12265TIP3    H158286   5.639   6.425   3.840 -0.0967  1.5276  0.1832
12265TIP3    H258287   5.659   6.544   3.931  0.5752  0.5228  1.3731
12266TIP3   OH258288   2.576   3.023  13.744 -0.1456  0.3260 -0.1427
12266TIP3    H158289   2.552   3.033  13.836 -1.6753 -0.2857 -0.4445
12266TIP3    H258290   2.511   3.076  13.697  0.1759  0.0534 -0.8989
12267TIP3   OH258291   5.634   5.087   3.860  0.4323  0.0921  0.0112
12267TIP3    H158292   5.655   5.180   3.874  1.9382 -0.2306  0.0132
12267TIP3    H258293   5.565   5.069   3.925 -2.0517  1.8998 -1.8979
12268TIP3   OH258294   5.644   1.490   5.636  0.0440  0.3808 -0.3813
12268TIP3    H158295   5.648   1.435   5.558 -1.9715  0.9041 -0.9180
12268TIP3    H258296   5.735   1.504   5.661  0.6573 -1.4961 -1.4119
12269TIP3   OH258297   5.785   0.598  15.202 -0.4826  0.1686 -0.4687
12269TIP3    H158298   5.721   0.666  15.221 -0.7152  0.1860 -1.2956
12269TIP3    H258299   5.770   0.532  15.270 -1.3387  0.1960 -0.6224
12270TIP3   OH258300   5.748   4.431  13.032 -0.0415 -0.0609 -0.0887
12270TIP3    H158301   5.749   4.519  13.070 -0.6208  0.3271 -0.9400
12270TIP3    H258302   5.803   4.438  12.953 -1.8195  0.1325 -1.3695
12271TIP3   OH258303   5.852   5.441   2.213 -0.4226  0.1847  0.5187
12271TIP3    H158304   5.791   5.474   2.148  1.3563  0.5703 -1.0460
12271TIP3    H258305   5.824   5.351   2.229 -0.6821 -0.0461 -1.0957
12272TIP3   OH258306   5.969   4.686   2.360 -0.2364 -0.1702  0.3688
12272TIP3    H158307   5.992   4.771   2.398  0.7429  0.0371 -0.6261
12272TIP3    H258308   5.950   4.705   2.268 -3.2870 -0.5471  0.8429
12273TIP3   OH258309   0.459   3.247  14.109  0.0927 -0.7867 -0.2656
12273TIP3    H158310   0.531   3.248  14.045 -0.5453 -0.7541 -1.0061
12273TIP3    H258311   0.448   3.155  14.132  1.3287 -0.6489  0.9832
12274TIP3   OH258312   0.796   4.081   0.776  0.2033 -0.2639  0.4122
12274TIP3    H158313   0.873   4.113   0.729 -0.0602  2.4040  1.6172
12274TIP3    H258314   0.829   4.062   0.864 -0.3557  0.1653  0.7195
12275TIP3   OH258315   4.126   2.963  13.834 -0.4443  0.4278  0.1505
12275TIP3    H158316   4.033   2.982  13.848 -0.9523 -0.7743 -1.3318
12275TIP3    H258317   4.127   2.872  13.806  1.3480 -0.0555  1.5983
12276TIP3   OH258318   2.423   1.541   4.198  0.3423 -0.0021  0.2378
12276TIP3    H158319   2.430   1.580   4.285 -0.5918  1.5092 -0.3334
12276TIP3    H258320   2.436   1.614   4.138  0.6488 -0.9704 -0.8961
12277TIP3   OH258321   0.342   1.401  11.186  1.0359 -0.2605  0.4700
12277TIP3    H158322   0.277   1.334  11.208 -0.6377  1.6287  1.6674
12277TIP3    H258323   0.417   1.381  11.241 -0.4588  0.3183  2.9089
12278TIP3   OH258324   6.039   6.813  16.327  0.6790 -0.4088 -0.0804
12278TIP3    H158325   6.046   6.870  16.250  1.4877  1.0055  0.9845
12278TIP3    H258326   6.083   6.732  16.301 -1.7183 -1.2092 -2.1208
12279TIP3   OH258327   2.911   2.084   5.999  0.9425 -0.3570  0.2497
12279TIP3    H158328   2.962   2.116   6.074 -0.8519  0.7942  1.0282
12279TIP3    H258329   2.865   2.162   5.967  0.3313 -1.2010 -0.9698
12280TIP3   OH258330   5.627   2.687  13.084  0.1611  0.0774 -0.5143
12280TIP3    H158331   5.684   2.712  13.157 -0.7873  1.8106 -0.3121
12280TIP3    H258332   5.549   2.741  13.095 -1.1274 -1.5340 -1.3310
12281TIP3   OH258333   2.149   3.834  16.924 -0.0754 -0.2806  0.1155
12281TIP3    H158334   2.109   3.793  17.000 -1.7400  0.7466 -0.1431
12281TIP3    H258335   2.242   3.816  16.932 -0.4749 -2.0600  1.2188
12282TIP3   OH258336   0.266   6.732   3.707 -0.6466 -0.7425  0.3979
12282TIP3    H158337   0.324   6.712   3.633  0.7137 -0.7894  1.4323
12282TIP3    H258338   0.178   6.717   3.674 -0.0587 -0.9201 -1.1622
12283TIP3   OH258339   2.339   1.167  14.487  0.3816 -0.4017 -0.5945
12283TIP3    H158340   2.431   1.150  14.508 -0.3433 -1.4396  2.3196
12283TIP3    H258341   2.313   1.235  14.549 -0.7957 -0.0072 -1.4866
12284TIP3   OH258342   3.001   3.275  15.001  0.4549 -0.2610  0.1873
12284TIP3    H158343   3.080   3.238  15.041  0.8464 -0.2598 -0.5625
12284TIP3    H258344   2.986   3.222  14.923 -0.8448 -0.8649  0.8109
12285TIP3   OH258345   1.495   3.316  14.525 -0.4940 -0.9880  0.6391
12285TIP3    H158346   1.427   3.372  14.563  0.0788 -0.7611  1.3569
12285TIP3    H258347   1.453   3.231  14.512 -1.2918 -0.4770 -0.1942
12286TIP3   OH258348   2.624   6.299   2.650  0.3956 -0.2248  0.5005
12286TIP3    H158349   2.619   6.211   2.612 -0.4873 -0.6901  1.6027
12286TIP3    H258350   2.703   6.337   2.613 -1.1308 -0.0423 -2.9590
12287TIP3   OH258351   5.061   6.097   3.147  0.0222  0.0357 -0.1449
12287TIP3    H158352   4.989   6.039   3.170 -0.6334  1.0891  0.5840
12287TIP3    H258353   5.025   6.154   3.078  0.4559 -0.0385 -0.4352
12288TIP3   OH258354   2.911   1.226  16.671 -0.3660  0.7659  0.3435
12288TIP3    H158355   2.828   1.181  16.655  0.3561 -0.6991  0.5475
12288TIP3    H258356   2.937   1.261  16.586 -1.0846  1.0570  0.2406
12289TIP3   OH258357   2.615   3.572   5.087  0.0703 -0.3324 -0.0021
12289TIP3    H158358   2.584   3.611   5.168 -1.6512  0.0904 -0.8230
12289TIP3    H258359   2.690   3.518   5.113 -0.2607  0.0282  1.7971
12290TIP3   OH258360   5.538   4.332   4.442 -1.0756 -1.1225 -0.7362
12290TIP3    H158361   5.528   4.322   4.347 -0.0234 -0.2778 -0.9517
12290TIP3    H258362   5.579   4.251   4.470  0.3274 -0.6378 -1.3048
12291TIP3   OH258363   3.835   4.697  16.022  0.0611 -0.2223  0.2232
12291TIP3    H158364   3.780   4.682  16.099  0.8581  0.4726  0.9536
12291TIP3    H258365   3.839   4.793  16.014  2.6025 -0.1433  1.3078
12292TIP3   OH258366   5.987   3.000   2.489  0.2166  0.0967  0.1620
12292TIP3    H158367   6.049   3.023   2.421 -0.4033 -0.1647 -0.5028
12292TIP3    H258368   5.919   2.950   2.444 -0.8542  0.9933  0.7290
12293TIP3   OH258369   2.539   6.116  11.014  0.4216 -0.0642  0.0494
12293TIP3    H158370   2.570   6.206  11.008  1.4332 -0.2760  1.5583
12293TIP3    H258371   2.590   6.078  11.086 -0.1619 -1.7665 -0.3984
12294TIP3   OH258372   2.043   3.194   0.301  0.5998 -0.0535 -0.0831
12294TIP3    H158373   1.972   3.137   0.270  1.0417 -0.7776  0.1888
12294TIP3    H258374   2.010   3.283   0.290  0.3388 -0.3126 -1.6561
12295TIP3   OH258375   4.835   2.412   2.572  0.6522  0.4783 -0.0799
12295TIP3    H158376   4.921   2.439   2.539  0.1038 -0.9388 -3.0048
12295TIP3    H258377   4.775   2.428   2.499 -1.0445 -1.1797  0.8591
12296TIP3   OH258378   6.582   6.039   3.902  0.1560  0.3139  0.5823
12296TIP3    H158379   6.619   5.954   3.924  1.4839 -0.0025 -2.3548
12296TIP3    H258380   6.490   6.021   3.880  0.6297 -0.5610 -0.7976
12297TIP3   OH258381   5.695   3.098   4.248 -0.0027 -0.4202 -0.1698
12297TIP3    H158382   5.728   3.047   4.322  0.0209  0.8988  0.7643
12297TIP3    H258383   5.684   3.186   4.283 -2.5916 -0.3435 -0.9963
12298TIP3   OH258384   3.741   5.787   5.430 -0.0482  0.1528  0.6370
12298TIP3    H158385   3.811   5.825   5.377 -0.1398  0.6979  0.9006
12298TIP3    H258386   3.752   5.827   5.517 -0.4077 -0.1039  0.8035
12299TIP3   OH258387   5.964   2.956   5.095 -0.3946  0.2551  0.2391
12299TIP3    H158388   6.023   3.028   5.074 -0.7859  0.1833 -1.2067
12299TIP3    H258389   5.937   2.973   5.185  2.0086  0.1381  1.0479
12300TIP3   OH258390   2.783   2.568  14.560 -0.3189 -0.0336  0.0250
12300TIP3    H158391   2.801   2.661  14.577  0.6033  0.0312 -1.1915
12300TIP3    H258392   2.867   2.532  14.530 -0.4492 -1.4772  1.3081
12301TIP3   OH258393   5.644   5.916  12.903 -0.6130 -0.5706 -0.1153
12301TIP3    H158394   5.589   5.885  12.830 -0.4435 -0.9690 -0.0770
12301TIP3    H258395   5.676   5.836  12.944  0.5055 -0.3433 -0.5169
12302TIP3   OH258396   6.421   6.173   1.566  0.0661  0.3650 -0.3431
12302TIP3    H158397   6.478   6.216   1.629 -0.3753  0.3824  0.0544
12302TIP3    H258398   6.421   6.081   1.591 -1.0834  0.5621  0.4688
12303TIP3   OH258399   2.222   4.656  11.582 -0.4178 -0.4912  0.1301
12303TIP3    H158400   2.166   4.731  11.559  0.1350  0.2798  1.1965
12303TIP3    H258401   2.160   4.587  11.604 -0.9469 -0.0951 -0.0843
12304TIP3   OH258402   5.121   3.860   0.102 -0.1238 -0.0782  0.6555
12304TIP3    H158403   5.153   3.774   0.076  1.4961  1.0891 -1.5603
12304TIP3    H258404   5.166   3.878   0.185 -0.6107 -1.3914  1.2254
12305TIP3   OH258405   4.603   2.760   3.561 -0.1324  0.1058  0.4706
12305TIP3    H158406   4.698   2.756   3.546 -0.0465 -0.9452  1.1819
12305TIP3    H258407   4.564   2.749   3.474  0.3904 -0.6472  0.3247
12306TIP3   OH258408   4.757   5.265  13.704 -0.0968 -0.1629  0.0812
12306TIP3    H158409   4.761   5.317  13.624  0.1432  0.3870  0.4455
12306TIP3    H258410   4.667   5.272  13.734  0.1920  1.0096  0.7492
12307TIP3   OH258411   1.415   1.161  14.580 -0.0970  0.1522 -0.6939
12307TIP3    H158412   1.343   1.120  14.532 -0.6141 -0.4822  0.5658
12307TIP3    H258413   1.489   1.102  14.568  0.1666  0.6731 -1.7757
12308TIP3   OH258414   1.002   3.865   4.589  0.2873 -0.4213  0.0174
12308TIP3    H158415   1.094   3.856   4.616  0.1302  1.4338  1.4270
12308TIP3    H258416   0.953   3.818   4.656  0.1914 -1.2317 -0.6184
12309TIP3   OH258417   5.444   0.830   5.018  0.5816  0.2197  0.4471
12309TIP3    H158418   5.533   0.865   5.021  1.4884 -1.7662 -1.2252
12309TIP3    H258419   5.445   0.754   5.076  1.0089 -1.8023 -2.0575
12310TIP3   OH258420   1.587   1.434   4.209 -0.1512 -0.3840 -0.1376
12310TIP3    H158421   1.506   1.387   4.189 -1.3082  0.2653  2.6641
12310TIP3    H258422   1.578   1.517   4.162 -0.4200 -0.8733 -0.9870
12311TIP3   OH258423   2.746   1.947   5.283 -0.1506 -0.8873 -0.2996
12311TIP3    H158424   2.836   1.926   5.306  0.1172  0.6569  0.1582
12311TIP3    H258425   2.711   1.990   5.361 -1.3012 -1.4945 -0.4594
12312TIP3   OH258426   4.456   4.693   5.911  0.3141 -0.1325 -0.7802
12312TIP3    H158427   4.435   4.782   5.884 -1.8502 -1.0210 -2.3115
12312TIP3    H258428   4.373   4.655   5.938  0.8010 -2.2500 -2.0055
12313TIP3   OH258429   3.774   3.060   0.716 -0.4085 -0.7030  0.6297
12313TIP3    H158430   3.686   3.042   0.748 -0.9173 -0.4196 -0.5497
12313TIP3    H258431   3.818   2.975   0.717 -1.1341 -1.0977 -0.0099
12314TIP3   OH258432   5.526   1.062   4.084  0.1062  0.1267 -0.6666
12314TIP3    H158433   5.441   1.058   4.041 -0.5141  1.6046  0.3366
12314TIP3    H258434   5.580   1.114   4.025  0.6887 -1.7046 -1.8262
12315TIP3   OH258435   4.800   4.161   4.697 -0.1583  0.0228 -0.2935
12315TIP3    H158436   4.842   4.157   4.783 -0.5748  1.3011 -0.0126
12315TIP3    H258437   4.733   4.093   4.701  1.8698 -2.1259 -0.7861
12316TIP3   OH258438   6.325   3.126   5.309 -0.7065 -0.3873 -0.0826
12316TIP3    H158439   6.250   3.083   5.349 -1.8290  0.0518 -1.6125
12316TIP3    H258440   6.338   3.080   5.226  0.4514 -0.1754 -0.0426
12317TIP3   OH258441   5.345   5.664  15.661 -0.3478  0.1717 -0.3763
12317TIP3    H158442   5.422   5.706  15.700 -0.6912  1.1541 -0.7354
12317TIP3    H258443   5.361   5.667  15.567 -0.2892 -0.6996 -0.4013
12318TIP3   OH258444   5.080   1.796  14.461  0.0246 -0.1851  0.2648
12318TIP3    H158445   5.175   1.793  14.472  0.2753 -1.9010 -1.6999
12318TIP3    H258446   5.046   1.734  14.526  0.2635  0.1983  0.7602
12319TIP3   OH258447   6.569   1.891  11.410  0.0897  0.4956  0.1161
12319TIP3    H158448   6.535   1.836  11.481 -0.6482 -0.2165 -0.7754
12319TIP3    H258449   6.611   1.830  11.350 -0.0314  0.9937 -0.4894
12320TIP3   OH258450   6.000   4.975   0.638 -0.4027  0.6088  0.0475
12320TIP3    H158451   5.953   4.901   0.677  0.2834  0.5816  0.8640
12320TIP3    H258452   6.032   4.942   0.554  0.3801 -0.2247  0.6565
12321TIP3   OH258453   4.153   1.319   2.184  0.5413  0.9165  0.5263
12321TIP3    H158454   4.176   1.404   2.223  2.4051  0.6369  0.1228
12321TIP3    H258455   4.198   1.319   2.100 -0.9754  0.2657 -0.3160
12322TIP3   OH258456   6.078   0.187  12.546 -0.4327  0.0035  0.1526
12322TIP3    H158457   6.048   0.229  12.627  0.5365 -0.6629  0.8833
12322TIP3    H258458   6.161   0.147  12.569 -0.1299 -0.1963 -1.1954
12323TIP3   OH258459   5.924   1.146   1.660 -0.0063 -0.1396  0.1435
12323TIP3    H158460   5.977   1.217   1.695  0.7855 -0.2230 -0.8313
12323TIP3    H258461   5.981   1.104   1.595 -0.3645 -1.8262  0.8813
12324TIP3   OH258462   3.552   3.072  12.458 -0.3247  0.6816  0.1971
12324TIP3    H158463   3.490   3.131  12.502 -0.6350  1.0444 -0.7030
12324TIP3    H258464   3.501   2.992  12.443 -0.5344  0.9290 -0.4168
12325TIP3   OH258465   2.055   4.528   4.457 -0.6477 -0.0239  0.3526
12325TIP3    H158466   2.095   4.506   4.373 -0.9366 -1.4528  0.5664
12325TIP3    H258467   2.053   4.446   4.505  1.0192  1.0648  2.4420
12326TIP3   OH258468   0.912   4.720  13.918  0.1040 -0.4061  0.1227
12326TIP3    H158469   0.858   4.648  13.950  0.4703 -0.9110 -0.3762
12326TIP3    H258470   0.862   4.756  13.844  0.2166 -0.5446 -0.0196
12327TIP3   OH258471   1.772   4.884  14.843  0.1909  0.4658  0.3203
12327TIP3    H158472   1.788   4.978  14.828 -0.6711  0.6404  0.4414
12327TIP3    H258473   1.763   4.848  14.755 -1.9298  0.9586  0.2870
12328TIP3   OH258474   6.495   3.429   3.699 -0.0712  0.3079  0.0244
12328TIP3    H158475   6.416   3.446   3.751  0.3325  1.3531  0.3345
12328TIP3    H258476   6.557   3.392   3.762 -0.6334 -1.5556 -0.4488
12329TIP3   OH258477   3.162   2.761   0.195  0.0785  0.0933  0.3873
12329TIP3    H158478   3.183   2.668   0.182  0.1275  0.0580  0.7262
12329TIP3    H258479   3.208   2.805   0.123  1.5814  0.0453  1.2803
12330TIP3   OH258480   2.093   3.171   5.634 -0.5603  0.1090  0.2569
12330TIP3    H158481   2.122   3.084   5.609 -1.3971  0.4572 -2.1766
12330TIP3    H258482   2.020   3.191   5.575 -3.2102  0.8540  3.4502
12331TIP3   OH258483   3.770   0.472   3.688 -0.1409 -0.0403 -0.3206
12331TIP3    H158484   3.820   0.391   3.684 -0.8548 -0.5288  0.2929
12331TIP3    H258485   3.805   0.518   3.764  0.6192  0.4882 -0.9693
12332TIP3   OH258486   1.493   1.378  13.541  0.1880 -0.1235 -0.7800
12332TIP3    H158487   1.480   1.437  13.616 -0.5489 -0.3416 -0.7247
12332TIP3    H258488   1.433   1.411  13.474 -1.6109 -1.8324 -0.1309
12333TIP3   OH258489   4.674   4.425   1.969 -0.0617 -0.3315 -0.6622
12333TIP3    H158490   4.599   4.481   1.991 -1.0876 -2.3062  1.2379
12333TIP3    H258491   4.728   4.425   2.047  1.7422  0.6499 -1.8338
12334TIP3   OH258492   2.251   6.189  14.934  0.2868 -0.3679 -0.0352
12334TIP3    H158493   2.198   6.153  14.863 -1.6140 -0.2518  1.2388
12334TIP3    H258494   2.188   6.232  14.992  1.8010 -0.0912  1.5120
12335TIP3   OH258495   4.372   4.519   4.211 -0.7312  0.0148 -0.3202
12335TIP3    H158496   4.297   4.579   4.214 -1.1324 -0.4697 -0.6311
12335TIP3    H258497   4.334   4.432   4.220 -0.1425 -0.1987  0.1624
12336TIP3   OH258498   4.609   2.072   4.813  0.2494  0.3634 -0.4192
12336TIP3    H158499   4.549   2.064   4.886 -0.6707  1.4919 -1.0315
12336TIP3    H258500   4.696   2.061   4.852 -0.2839 -0.3771  0.6087
12337TIP3   OH258501   3.713   3.852   4.244  0.0151 -0.0665 -0.0365
12337TIP3    H158502   3.686   3.769   4.206 -0.8814 -0.6177  1.7188
12337TIP3    H258503   3.690   3.917   4.177 -0.1708 -1.1211 -1.0256
12338TIP3   OH258504   4.238   0.636   0.638 -0.0340  0.0167 -0.6041
12338TIP3    H158505   4.218   0.728   0.618  0.4984 -0.1530 -2.0432
12338TIP3    H258506   4.265   0.599   0.554 -0.1326 -1.4362 -0.0193
12339TIP3   OH258507   0.388   1.564   5.401 -0.3585  0.1665  0.3302
12339TIP3    H158508   0.401   1.626   5.473  0.0348  1.0002 -0.4350
12339TIP3    H258509   0.467   1.574   5.346  0.2804 -1.8489  0.7837
12340TIP3   OH258510   2.708   2.075   5.514  0.1301  0.3340 -0.5965
12340TIP3    H158511   2.787   2.115   5.550 -0.1585  0.6900 -0.3524
12340TIP3    H258512   2.643   2.084   5.584 -0.0263 -0.2813 -0.6531
12341TIP3   OH258513   0.529   6.127   1.309 -0.2055 -0.1404  0.1550
12341TIP3    H158514   0.507   6.184   1.383  0.1050  1.6096 -1.0302
12341TIP3    H258515   0.460   6.061   1.308 -1.1092  0.7553  1.0474
12342TIP3   OH258516   1.611   0.788   0.841 -0.3827  0.4612 -0.1262
12342TIP3    H158517   1.600   0.707   0.891  1.7201  1.1172  1.5554
12342TIP3    H258518   1.586   0.765   0.752 -1.5322 -1.5472  0.6580
12343TIP3   OH258519   6.298   5.341  16.764  0.5835 -0.4515  0.2769
12343TIP3    H158520   6.381   5.383  16.744  0.4300 -0.6779 -0.9265
12343TIP3    H258521   6.290   5.271  16.699 -0.9283  0.1011 -0.1606
12344TIP3   OH258522   0.534   5.864  11.013 -0.0849  0.2407 -0.4254
12344TIP3    H158523   0.564   5.909  10.934  0.1434 -1.1324 -1.1533
12344TIP3    H258524   0.602   5.881  11.078 -1.2478  3.1416  0.2111
12345TIP3   OH258525   1.706   6.643  16.887 -0.4524 -0.3868  0.4959
12345TIP3    H158526   1.628   6.607  16.844 -0.3017 -1.8269  1.3692
12345TIP3    H258527   1.769   6.653  16.816 -0.7128 -1.2688  0.1243
12346TIP3   OH258528   3.279   4.580   3.667  0.2795  0.1314 -0.3620
12346TIP3    H158529   3.290   4.610   3.758  0.9491 -1.4087  0.1041
12346TIP3    H258530   3.362   4.536   3.647 -0.8031 -1.8234 -0.7894
12347TIP3   OH258531   6.271   0.979   1.012  0.4307  0.5364  1.1875
12347TIP3    H158532   6.267   0.973   0.917 -0.7446  1.3704  1.1593
12347TIP3    H258533   6.217   1.054   1.034  0.7116  0.3850  2.5211
12348TIP3   OH258534   6.284   0.719  11.634  0.2981  0.0822 -0.4068
12348TIP3    H158535   6.249   0.752  11.717  0.3780 -1.5421  0.3122
12348TIP3    H258536   6.254   0.782  11.569 -0.1316  1.1709  0.7991
12349TIP3   OH258537   0.223   3.793   1.528 -0.7536 -0.0839 -0.0070
12349TIP3    H158538   0.219   3.796   1.432 -2.5229 -1.8072 -0.0524
12349TIP3    H258539   0.147   3.740   1.553 -0.7599  0.9679  2.4096
12350TIP3   OH258540   6.449   3.906   1.775  0.3947  0.3120 -0.9247
12350TIP3    H158541   6.375   3.967   1.765 -0.1080 -0.0602  0.3410
12350TIP3    H258542   6.415   3.836   1.831  1.1248 -0.8790 -1.9232
12351TIP3   OH258543   5.892   2.623  15.840  0.1352 -0.3024  0.6599
12351TIP3    H158544   5.865   2.713  15.824 -2.0592 -0.9100  0.6667
12351TIP3    H258545   5.837   2.594  15.913  0.8739 -1.6164  0.7335
12352TIP3   OH258546   1.770   5.909   1.137 -0.4831 -0.5048 -0.0832
12352TIP3    H158547   1.707   5.859   1.190 -1.5407  0.4472 -0.4153
12352TIP3    H258548   1.716   5.957   1.074  0.6236 -0.0984 -0.7419
12353TIP3   OH258549   5.337   1.759  13.387 -0.3687 -0.6581  0.3806
12353TIP3    H158550   5.333   1.697  13.314 -1.2685  0.4678 -0.5671
12353TIP3    H258551   5.245   1.775  13.409 -0.2099  1.2570 -0.2120
12354TIP3   OH258552   4.608   2.345  13.859 -0.2146  0.0895 -0.6317
12354TIP3    H158553   4.673   2.294  13.908 -2.3406 -0.9784  1.2944
12354TIP3    H258554   4.594   2.295  13.779 -0.2750 -0.9512 -0.0004
12355TIP3   OH258555   3.440   1.745   0.249  0.4855  0.2522 -0.4163
12355TIP3    H158556   3.440   1.746   0.153  1.3222 -0.1454 -0.4279
12355TIP3    H258557   3.351   1.769   0.273 -0.2135 -1.3443 -1.3160
12356TIP3   OH258558   3.849   4.741   2.353 -0.2226  1.4271  0.4944
12356TIP3    H158559   3.891   4.818   2.391  2.3149 -0.2852  1.4203
12356TIP3    H258560   3.869   4.746   2.260 -0.1320  1.9558  0.5431
12357TIP3   OH258561   6.010   5.731  11.309 -0.6526  0.4440  0.4943
12357TIP3    H158562   5.978   5.669  11.243 -0.3912  0.7842  0.0447
12357TIP3    H258563   5.987   5.817  11.274 -0.9671  0.6051  1.0916
12358TIP3   OH258564   3.982   0.347  13.243  0.5276  0.4815  0.4680
12358TIP3    H158565   4.011   0.285  13.176 -1.3182 -0.2690  0.2862
12358TIP3    H258566   4.044   0.420  13.237  1.5681 -0.4508 -0.6953
12359TIP3   OH258567   6.181   6.663   5.023  0.2755  0.3140 -0.4906
12359TIP3    H158568   6.158   6.592   5.083  2.4079 -0.7150 -0.7702
12359TIP3    H258569   6.156   6.743   5.069  1.2555 -0.4627  1.5447
12360TIP3   OH258570   5.478   2.561   5.101 -0.2777  0.0278 -0.3158
12360TIP3    H158571   5.455   2.478   5.142  0.2069 -0.6334 -1.3258
12360TIP3    H258572   5.465   2.545   5.007  1.8321  0.4044 -0.7261
12361TIP3   OH258573   2.268   1.108   1.998 -0.3322 -0.3885  0.4438
12361TIP3    H158574   2.210   1.152   1.935 -0.7337  1.8575  2.2562
12361TIP3    H258575   2.292   1.026   1.955 -2.0909  0.1790 -1.8177
12362TIP3   OH258576   2.000   5.879   3.455 -0.2378  0.0790 -0.1170
12362TIP3    H158577   2.081   5.889   3.406 -0.6575 -0.0646 -0.8563
12362TIP3    H258578   1.950   5.958   3.435 -0.7420 -0.3449 -0.5579
12363TIP3   OH258579   0.818   5.438   4.037  0.0291 -0.1946  0.0322
12363TIP3    H158580   0.850   5.411   4.123  0.5626 -0.1827 -0.1600
12363TIP3    H258581   0.735   5.481   4.055  0.0684 -0.3157  0.5285
12364TIP3   OH258582   1.805   2.620  15.307  0.0455  0.4183 -0.0848
12364TIP3    H158583   1.893   2.603  15.273 -1.1516 -1.0552 -2.7380
12364TIP3    H258584   1.779   2.538  15.348 -0.2322  0.7497  0.4131
12365TIP3   OH258585   5.077   6.226   0.591  0.4279  0.1329 -0.5304
12365TIP3    H158586   5.085   6.132   0.606  4.1672  0.4590  0.4362
12365TIP3    H258587   5.033   6.259   0.669  0.2758 -0.6560 -0.2739
12366TIP3   OH258588   0.737   2.503   5.439  0.1760  0.0584  0.0686
12366TIP3    H158589   0.798   2.465   5.376  1.1362  0.3669  0.7877
12366TIP3    H258590   0.667   2.439   5.448 -0.4666  0.4089 -2.0032
12367TIP3   OH258591   5.470   0.924   3.587 -0.5712 -0.0502  0.8569
12367TIP3    H158592   5.417   0.852   3.621 -1.2836 -0.2366 -0.5946
12367TIP3    H258593   5.548   0.882   3.551 -0.8643 -0.0873  0.2499
12368TIP3   OH258594   2.239   5.468   3.040  0.1339 -0.2533 -0.0909
12368TIP3    H158595   2.183   5.519   2.981 -0.9722 -2.1015 -0.7412
12368TIP3    H258596   2.201   5.380   3.038 -0.7627 -0.2021  4.3671
12369TIP3   OH258597   4.535   5.545   0.198  0.6995  0.5913 -0.1368
12369TIP3    H158598   4.575   5.555   0.284 -1.8236  0.8482  1.1201
12369TIP3    H258599   4.526   5.634   0.165 -2.7306  1.0826  1.6436
12370TIP3   OH258600   3.702   3.470   0.105 -0.0493  0.3420  0.2629
12370TIP3    H158601   3.651   3.540   0.063  0.6916  0.7453  0.0077
12370TIP3    H258602   3.684   3.392   0.052  0.9375  0.8609 -0.8904
12371TIP3   OH258603   4.335   4.498  16.086  0.7726  0.0260  0.2007
12371TIP3    H158604   4.356   4.406  16.075 -0.2127 -0.0906 -0.8172
12371TIP3    H258605   4.245   4.507  16.055  1.2993  1.5728 -1.0515
12372TIP3   OH258606   5.477   4.656   0.631  0.2603  0.0736 -0.3279
12372TIP3    H158607   5.440   4.571   0.652 -0.0093 -0.1511 -1.6268
12372TIP3    H258608   5.452   4.712   0.705 -0.5021 -0.6900  0.0126
12373TIP3   OH258609   4.523   5.687   5.581  0.2845 -0.4478 -0.5814
12373TIP3    H158610   4.475   5.610   5.553 -1.1689 -0.2233  1.1487
12373TIP3    H258611   4.546   5.670   5.672  1.2649  0.5445 -0.6141
12374TIP3   OH258612   4.193   1.508  14.566  0.1347  0.2645  0.0707
12374TIP3    H158613   4.106   1.520  14.603 -0.5305 -1.0977 -0.9763
12374TIP3    H258614   4.185   1.432  14.508  2.7327 -2.0656  2.4198
12375TIP3   OH258615   6.312   2.439  12.233 -0.1622  0.3329 -0.1526
12375TIP3    H158616   6.329   2.348  12.257  1.0415  0.9735  1.6344
12375TIP3    H258617   6.381   2.489  12.277 -3.0654  2.5306  2.3262
12376TIP3   OH258618   5.361   1.663   0.099  0.1742  0.3260 -0.0636
12376TIP3    H158619   5.441   1.694   0.058 -0.6099  0.5011 -1.5064
12376TIP3    H258620   5.292   1.723   0.069 -1.1767 -2.0251 -2.0045
12377TIP3   OH258621   4.632   5.029   2.231 -0.4650  0.7971 -0.2533
12377TIP3    H158622   4.546   5.053   2.199 -0.6966  0.5338  0.1589
12377TIP3    H258623   4.658   5.101   2.289 -0.3635  0.9257 -0.4591
12378TIP3   OH258624   6.023   4.958   2.471  0.2898  0.2900 -0.2729
12378TIP3    H158625   6.069   5.004   2.401  1.5331 -0.9312 -0.3031
12378TIP3    H258626   6.056   4.998   2.551 -2.5439  3.0191 -0.3036
12379TIP3   OH258627   3.232   3.620  16.413  0.3006  0.5851  0.0589
12379TIP3    H158628   3.238   3.527  16.437 -0.7837  0.8835  1.6437
12379TIP3    H258629   3.216   3.665  16.495 -2.7526  1.7993 -1.0603
12380TIP3   OH258630   4.554   5.947   5.927 -0.1177 -0.3543 -0.0752
12380TIP3    H158631   4.576   6.035   5.957  0.2582 -0.5129  0.1227
12380TIP3    H258632   4.500   5.961   5.850 -2.0808  0.0875  1.3030
12381TIP3   OH258633   5.912   3.474   0.818 -0.0939  0.2224 -0.1790
12381TIP3    H158634   5.820   3.459   0.840 -0.1507 -1.4540 -1.3438
12381TIP3    H258635   5.912   3.554   0.766 -0.9689 -0.0796 -0.6589
12382TIP3   OH258636   6.353   1.586  12.536  0.6311  0.5414  0.0199
12382TIP3    H158637   6.341   1.647  12.608 -0.7806  0.9127 -0.5038
12382TIP3    H258638   6.281   1.525  12.543  0.2577  0.7949 -1.2710
12383TIP3   OH258639   5.735   4.679  11.848  0.1455  0.4474  0.3908
12383TIP3    H158640   5.800   4.747  11.830  0.2400  0.1760 -0.3125
12383TIP3    H258641   5.781   4.614  11.900  0.2468  0.5937  0.4839
12384TIP3   OH258642   3.192   4.429   1.843 -0.4441  0.3483 -0.6077
12384TIP3    H158643   3.204   4.409   1.750  0.2459  0.2537 -0.5074
12384TIP3    H258644   3.276   4.465   1.870 -0.0851 -1.1157  0.3540
12385TIP3   OH258645   6.093   2.381  10.787 -0.5683  0.0873  0.2423
12385TIP3    H158646   6.037   2.320  10.739  0.7472 -0.3357 -0.8170
12385TIP3    H258647   6.172   2.389  10.734  0.9346 -0.3120  2.2818
12386TIP3   OH258648   6.205   2.364  15.885  0.0116  0.6325  0.3582
12386TIP3    H158649   6.111   2.355  15.872 -0.0849  0.5075  1.0965
12386TIP3    H258650   6.221   2.458  15.885 -0.1489  0.6584  0.4900
12387TIP3   OH258651   3.258   1.706  15.687  0.2958  0.9892  0.0296
12387TIP3    H158652   3.341   1.688  15.731  0.7925  0.8873 -0.9215
12387TIP3    H258653   3.233   1.622  15.649  0.4682  1.3265 -0.8516
12388TIP3   OH258654   0.092   3.703   4.177 -0.6306  0.1778  0.6103
12388TIP3    H158655   0.165   3.642   4.183 -1.5753 -0.8741  1.6655
12388TIP3    H258656   0.038   3.669   4.106  0.2998  1.4573 -0.7940
12389TIP3   OH258657   3.946   3.748  14.220 -0.0519 -0.2759 -0.3726
12389TIP3    H158658   3.861   3.734  14.178 -0.3034  0.5561 -0.1429
12389TIP3    H258659   3.965   3.841  14.206 -0.0437 -0.0213  1.1817
12390TIP3   OH258660   6.200   1.236   2.997 -0.1873 -0.3398  0.0611
12390TIP3    H158661   6.140   1.175   3.039  0.1742 -1.8342 -1.4901
12390TIP3    H258662   6.287   1.204   3.021  0.0577 -1.9114 -2.6116
12391TIP3   OH258663   2.665   5.635  12.565  0.1581  0.4421 -0.2272
12391TIP3    H158664   2.572   5.614  12.570  0.4224 -0.6557  0.5864
12391TIP3    H258665   2.706   5.572  12.624  1.3578  1.2747 -0.1424
12392TIP3   OH258666   4.549   1.908   3.680 -0.3762  0.3474  0.1884
12392TIP3    H158667   4.633   1.920   3.725 -0.9235 -1.2783  1.7847
12392TIP3    H258668   4.503   1.991   3.692  0.3893  0.7102  0.6727
12393TIP3   OH258669   5.748   2.176   0.526 -0.9826 -0.2409 -0.7891
12393TIP3    H158670   5.793   2.095   0.549 -0.9747 -0.2264 -0.7540
12393TIP3    H258671   5.744   2.174   0.430  2.3660  1.4643 -1.1263
12394TIP3   OH258672   0.037   3.173  14.389  1.1174 -0.4223  0.3237
12394TIP3    H158673  -0.033   3.110  14.375  1.7866 -1.0109 -0.5405
12394TIP3    H258674   0.064   3.199  14.300  0.2067  1.8480  0.6364
12395TIP3   OH258675   5.137   4.433  11.649  0.4895  0.0869  0.1182
12395TIP3    H158676   5.168   4.388  11.727  0.5968 -0.6065 -0.3157
12395TIP3    H258677   5.052   4.393  11.630  0.1090  0.7784  0.3077
12396TIP3   OH258678   3.561   4.402   2.207 -0.5092  0.2404 -0.0427
12396TIP3    H158679   3.602   4.484   2.180 -0.4619  0.7397  1.4573
12396TIP3    H258680   3.609   4.376   2.286 -1.4305 -0.5054  0.2914
12397TIP3   OH258681   1.338   5.387   4.909  0.3686  0.2758  0.0696
12397TIP3    H158682   1.336   5.303   4.864 -1.1423  1.0936 -1.5188
12397TIP3    H258683   1.352   5.451   4.840 -0.6143  1.4794  0.9447
12398TIP3   OH258684   1.967   1.416  15.237  0.1509 -0.0620  0.5733
12398TIP3    H158685   1.940   1.505  15.214 -0.1822 -0.2015  0.4092
12398TIP3    H258686   1.894   1.382  15.289  0.0103 -0.4388  0.1365
12399TIP3   OH258687   4.395   4.945   5.843  1.0149  0.3317  0.0438
12399TIP3    H158688   4.429   5.003   5.911  2.9555 -0.1820 -0.4207
12399TIP3    H258689   4.442   4.971   5.764  0.3077 -0.4516 -0.6574
12400TIP3   OH258690   3.346   6.333   4.879  0.4779  0.0298 -0.3627
12400TIP3    H158691   3.380   6.332   4.789 -0.0225  0.5031 -0.5606
12400TIP3    H258692   3.397   6.401   4.923  0.7909 -0.2697 -0.2602
12401TIP3   OH258693   6.486   5.828   3.238 -0.2233 -0.5211 -0.4816
12401TIP3    H158694   6.440   5.785   3.165 -0.9486  0.9213 -0.9251
12401TIP3    H258695   6.426   5.897   3.266  1.3380  0.9466 -0.5704
12402TIP3   OH258696   6.434   0.573   5.777 -0.6617 -0.0492 -0.1403
12402TIP3    H158697   6.416   0.481   5.757  0.8416 -0.7561  1.4688
12402TIP3    H258698   6.410   0.620   5.697 -3.1435 -1.5907 -0.4188
12403TIP3   OH258699   0.773   6.454   0.250 -0.3938 -0.1644 -0.0655
12403TIP3    H158700   0.867   6.447   0.267 -0.6469  0.5217  1.9660
12403TIP3    H258701   0.767   6.506   0.170  0.9652 -3.9553 -2.9048
12404TIP3   OH258702   3.385   6.204  12.724  0.4059 -0.0155 -0.6750
12404TIP3    H158703   3.343   6.143  12.785  1.0523 -1.0141 -1.2153
12404TIP3    H258704   3.376   6.163  12.638  1.2347  0.4317 -0.9881
12405TIP3   OH258705   5.009   2.181  11.795  0.0037  0.6495  0.2603
12405TIP3    H158706   5.013   2.210  11.887 -0.6345 -0.0369  0.5148
12405TIP3    H258707   4.932   2.124  11.792  1.2304 -1.0239 -0.2291
12406TIP3   OH258708   3.563   4.528  11.305 -0.3128 -0.4193 -0.1189
12406TIP3    H158709   3.522   4.491  11.227 -0.2701 -0.7850  0.0297
12406TIP3    H258710   3.657   4.516  11.291 -0.3103 -0.6141  0.0462
12407TIP3   OH258711   1.807   5.222   4.862 -0.1378 -0.1269  0.1126
12407TIP3    H158712   1.822   5.195   4.771  1.5716  0.5911  0.1414
12407TIP3    H258713   1.888   5.201   4.907  0.1237  2.1368  0.8240
12408TIP3   OH258714   4.442   5.152   3.685  0.3176 -0.0575  0.5314
12408TIP3    H158715   4.372   5.197   3.638  0.7936 -0.4650 -0.5902
12408TIP3    H258716   4.406   5.065   3.703  0.8143 -0.5649 -0.8023
12409TIP3   OH258717   5.848   2.860   6.196 -0.1019  0.4151  0.0372
12409TIP3    H158718   5.847   2.770   6.230  0.0234  0.8564  1.2646
12409TIP3    H258719   5.936   2.892   6.214 -0.1371  0.7836 -0.4221
12410TIP3   OH258720   4.946   1.219   4.430 -0.0106 -0.2053 -0.0277
12410TIP3    H158721   5.036   1.188   4.423 -0.3818 -1.0178 -2.5407
12410TIP3    H258722   4.893   1.140   4.424 -0.9011  0.3889 -0.1951
12411TIP3   OH258723   0.693   5.982  12.580  0.4288 -0.0197 -0.7470
12411TIP3    H158724   0.642   6.058  12.551  1.5758 -0.1187 -3.3059
12411TIP3    H258725   0.784   6.006  12.562  1.0574 -1.0335  0.8471
12412TIP3   OH258726   0.947   3.528  11.664 -0.4315  0.5414  0.2969
12412TIP3    H158727   1.021   3.586  11.644 -0.5302  0.8346  0.7755
12412TIP3    H258728   0.893   3.577  11.726  0.6689 -0.8772  2.5603
12413TIP3   OH258729   5.652   0.529   6.250  0.1714 -0.1031  0.4372
12413TIP3    H158730   5.654   0.487   6.163  0.3992  0.8194 -0.0180
12413TIP3    H258731   5.706   0.472   6.305 -0.2741 -0.9011  0.0830
12414TIP3   OH258732   4.485   1.296  11.905 -0.1395  0.1294  0.8237
12414TIP3    H158733   4.500   1.219  11.850 -0.5655 -0.0431  0.9457
12414TIP3    H258734   4.473   1.368  11.843 -2.3781 -0.3589  0.5948
12415TIP3   OH258735   0.722   2.861   0.490 -0.0828 -0.2727  0.5356
12415TIP3    H158736   0.695   2.911   0.414 -1.0146  1.5920  2.0267
12415TIP3    H258737   0.812   2.888   0.506  0.0599 -0.5474  0.2222
12416TIP3   OH258738   2.387   5.831  13.625 -0.4203 -0.0486 -0.4221
12416TIP3    H158739   2.347   5.912  13.656  0.4584  0.8378 -1.5140
12416TIP3    H258740   2.399   5.778  13.704 -3.3634 -0.2407  0.0197
12417TIP3   OH258741   2.166   1.089   4.567  0.5837 -0.0303  0.0215
12417TIP3    H158742   2.204   1.025   4.627 -0.6298 -0.3971  0.4239
12417TIP3    H258743   2.205   1.069   4.483  1.2865 -0.3827  0.4242
12418TIP3   OH258744   1.271   0.103   3.502  0.3595 -0.1710  0.2574
12418TIP3    H158745   1.306   0.035   3.444  0.6860 -0.1412  0.4183
12418TIP3    H258746   1.305   0.081   3.589 -0.2615 -0.3059  0.4689
12419TIP3   OH258747   5.740   2.356  14.082 -1.0058 -0.3727 -0.2121
12419TIP3    H158748   5.830   2.324  14.094 -0.5153  1.1753  0.5083
12419TIP3    H258749   5.690   2.312  14.151 -0.0904  1.2575  1.5844
12420TIP3   OH258750   0.752   3.568   2.181 -0.6913  0.3850  0.1907
12420TIP3    H158751   0.797   3.529   2.105 -2.6984 -1.0544 -0.3481
12420TIP3    H258752   0.715   3.649   2.147  0.8323  1.2309  0.4573
12421TIP3   OH258753   1.714   3.372   6.753  0.4080 -0.3651  0.0740
12421TIP3    H158754   1.748   3.415   6.674 -1.0623  2.3230  0.7766
12421TIP3    H258755   1.786   3.378   6.816  1.1886 -1.5116 -0.6589
12422TIP3   OH258756   5.504   6.264  15.290  0.3688 -0.2480 -0.0560
12422TIP3    H158757   5.439   6.304  15.347  1.5955  0.7835  0.6671
12422TIP3    H258758   5.483   6.170  15.292 -0.3811 -0.0783  1.0676
12423TIP3   OH258759   0.091   4.528  16.419  0.7094 -0.2239  0.5555
12423TIP3    H158760   0.152   4.600  16.404 -0.8386  1.2221  0.8405
12423TIP3    H258761   0.128   4.481  16.494  2.0804 -0.1325 -0.0354
12424TIP3   OH258762   4.660   0.726   4.161 -0.2552  0.3449  0.2861
12424TIP3    H158763   4.614   0.670   4.098 -0.3681  0.9355 -0.1562
12424TIP3    H258764   4.602   0.728   4.237  0.7384 -1.9379  1.2031
12425TIP3   OH258765   2.202   4.478   2.656 -0.0364 -0.1520  0.2335
12425TIP3    H158766   2.121   4.426   2.647  1.2103 -2.0198 -0.8442
12425TIP3    H258767   2.263   4.437   2.596  1.4438  1.8607  0.2732
12426TIP3   OH258768   0.440   5.642  15.329 -0.4880  0.1979  0.4518
12426TIP3    H158769   0.536   5.652  15.334 -0.2095 -0.2003 -2.2965
12426TIP3    H258770   0.406   5.715  15.381  1.3930  2.3290 -1.0628
12427TIP3   OH258771   0.796   5.367  16.521 -0.5627  0.3622  0.3173
12427TIP3    H158772   0.865   5.404  16.465 -1.8985 -0.5242 -2.0540
12427TIP3    H258773   0.842   5.337  16.599  1.4044  1.6748 -0.2629
12428TIP3   OH258774   3.951   1.243   0.613 -0.0987  0.2945  0.0239
12428TIP3    H158775   3.888   1.309   0.641 -0.5141 -0.5820  1.2378
12428TIP3    H258776   4.021   1.248   0.678  0.1201 -0.1062 -0.1796
12429TIP3   OH258777   5.463   5.328  11.355 -0.2090 -0.1739 -0.1255
12429TIP3    H158778   5.506   5.381  11.287  2.2188  1.3629  2.4112
12429TIP3    H258779   5.505   5.242  11.348  2.1744  0.7946  1.1577
12430TIP3   OH258780   0.354   1.248  16.907 -0.5302  0.0210  0.5561
12430TIP3    H158781   0.411   1.324  16.895 -0.9864  0.2640 -0.0991
12430TIP3    H258782   0.302   1.270  16.985  0.0766 -0.0844  0.9941
12431TIP3   OH258783   1.571   6.455  13.720  0.4042  0.1384  0.4817
12431TIP3    H158784   1.481   6.471  13.750  0.1405 -0.7081  0.1622
12431TIP3    H258785   1.611   6.407  13.792  0.2633 -0.4559  0.1688
12432TIP3   OH258786   2.891   3.925  12.206  0.6065  0.0073  0.2070
12432TIP3    H158787   2.957   3.946  12.140  0.2549  2.4557  0.5287
12432TIP3    H258788   2.941   3.915  12.287  0.7636  0.1380  0.1282
12433TIP3   OH258789   1.729   2.656  17.131 -0.8596  0.0140 -0.2754
12433TIP3    H158790   1.707   2.598  17.204  1.3850  2.1259  2.2921
12433TIP3    H258791   1.780   2.600  17.071  0.3486 -0.9790  1.5845
12434TIP3   OH258792   5.286   0.057   5.500 -0.3698 -0.7942  0.0068
12434TIP3    H158793   5.371   0.041   5.542 -0.5889 -1.3914  0.2322
12434TIP3    H258794   5.222   0.021   5.561 -0.8925  0.8600  0.4794
12435TIP3   OH258795   5.281   4.318  13.384 -0.4173 -0.0035  0.1647
12435TIP3    H158796   5.276   4.376  13.460  1.6591 -1.1453  1.2488
12435TIP3    H258797   5.300   4.376  13.311  0.9207  0.7880  1.1053
12436TIP3   OH258798   4.231   0.844  13.065 -0.6439  0.4654 -0.1003
12436TIP3    H158799   4.197   0.856  12.976 -0.8752 -0.0474 -0.0814
12436TIP3    H258800   4.253   0.933  13.094  1.6957  0.4499 -1.5593
12437TIP3   OH258801   4.666   0.226   5.222  0.1500  0.0355 -0.2302
12437TIP3    H158802   4.583   0.257   5.258  0.5550  1.0921 -0.1834
12437TIP3    H258803   4.719   0.204   5.299  1.0025  2.2608 -0.1208
12438TIP3   OH258804   0.390   2.937   0.562  0.7251  0.1511 -0.4600
12438TIP3    H158805   0.386   3.029   0.536 -0.4684  0.0131 -0.8323
12438TIP3    H258806   0.340   2.932   0.643  0.2893 -0.2569 -0.7462
12439TIP3   OH258807   5.859   6.264   2.538 -0.0262  0.2075 -0.3103
12439TIP3    H158808   5.785   6.264   2.478 -0.7389 -1.3520  0.5128
12439TIP3    H258809   5.835   6.327   2.606  0.1291  0.8835 -0.8736
12440TIP3   OH258810   5.897   5.822  10.362 -0.2295  0.3191  0.4955
12440TIP3    H158811   5.882   5.912  10.391 -1.5572  0.9387 -1.8309
12440TIP3    H258812   5.813   5.778  10.377  0.0558 -0.2174  0.5415
12441TIP3   OH258813   3.883   5.178  11.986 -0.3874 -0.4393  0.1113
12441TIP3    H158814   3.858   5.175  11.894 -1.8675  0.0011  0.4756
12441TIP3    H258815   3.878   5.088  12.016  0.3676 -0.6256 -0.2832
12442TIP3   OH258816   5.737   3.819  13.490  0.3449  0.3716 -0.5530
12442TIP3    H158817   5.796   3.767  13.545  0.0287 -1.4128 -1.8129
12442TIP3    H258818   5.678   3.861  13.552  1.5928  0.4887  0.6065
12443TIP3   OH258819   6.733   1.529   4.859 -0.3025 -0.1016  0.0873
12443TIP3    H158820   6.759   1.475   4.934 -2.5966 -0.6524  0.5715
12443TIP3    H258821   6.730   1.468   4.786 -1.9198 -0.4664  0.4241
12444TIP3   OH258822   3.292   0.160  12.583  0.0320  0.0035 -0.3028
12444TIP3    H158823   3.375   0.150  12.536  0.6218  1.1494  0.4548
12444TIP3    H258824   3.244   0.225  12.533 -0.3808 -0.5999 -0.6948
12445TIP3   OH258825   4.437   5.740  14.041 -0.0838 -0.6707 -0.1841
12445TIP3    H158826   4.465   5.682  13.971  0.8372  1.3455 -1.5679
12445TIP3    H258827   4.518   5.765  14.086 -0.3646  0.0894 -0.0741
12446TIP3   OH258828   3.239   0.149  13.397  0.4018 -0.4376 -0.1351
12446TIP3    H158829   3.276   0.138  13.485 -0.5028 -0.2226  0.2853
12446TIP3    H258830   3.157   0.196  13.411  0.6031  0.2482 -1.1742
12447TIP3   OH258831   5.632   4.316   3.537  0.3807 -0.1498 -0.4652
12447TIP3    H158832   5.553   4.295   3.487 -0.1437 -0.9961  0.6746
12447TIP3    H258833   5.600   4.358   3.616  0.9585 -1.6600  0.6156
12448TIP3   OH258834   0.138   5.983   5.588  0.0077 -0.1687 -0.0684
12448TIP3    H158835   0.184   5.899   5.586  1.7829  0.7604 -0.3166
12448TIP3    H258836   0.046   5.959   5.602  0.2820 -2.2089 -1.2309
12449TIP3   OH258837   3.307   4.064  17.286  0.5120 -0.3695  0.4931
12449TIP3    H158838   3.360   4.058  17.365  1.4086 -0.5924 -0.1060
12449TIP3    H258839   3.305   4.158  17.265  0.5831 -0.3498  0.5780
12450TIP3   OH258840   2.384   6.326  15.436 -0.4583 -0.4902  0.3132
12450TIP3    H158841   2.307   6.269  15.449 -0.9484  0.5010  2.0999
12450TIP3    H258842   2.361   6.380  15.360 -0.9880 -1.0477  0.0639
12451TIP3   OH258843   6.476   0.179  15.627 -0.1152 -0.2372 -0.2060
12451TIP3    H158844   6.560   0.135  15.610 -0.7580 -2.5161  1.8389
12451TIP3    H258845   6.495   0.272  15.615  2.8681 -0.6091  0.6504
12452TIP3   OH258846   0.685   5.364   4.794 -0.1704  0.4871  0.5006
12452TIP3    H158847   0.653   5.363   4.704  0.3705 -0.0117  0.3059
12452TIP3    H258848   0.706   5.456   4.811 -0.4381  0.6083  0.1741
12453TIP3   OH258849   0.917   5.118  11.857 -0.4324 -0.7774  0.1972
12453TIP3    H158850   0.952   5.122  11.768 -0.8740 -0.8000  0.0224
12453TIP3    H258851   0.987   5.155  11.912 -1.0918  1.4922 -0.4191
12454TIP3   OH258852   2.358   3.682  15.086  0.1891 -0.5029 -0.3702
12454TIP3    H158853   2.447   3.699  15.117  0.2935 -1.2654 -0.2157
12454TIP3    H258854   2.349   3.587  15.091 -1.7848 -0.2924  2.8311
12455TIP3   OH258855   3.026   6.424  16.351  0.1855 -0.3028  0.2516
12455TIP3    H158856   3.068   6.362  16.292  0.4062  1.5034 -1.6122
12455TIP3    H258857   3.098   6.466  16.397  0.2354  0.3770 -0.4220
12456TIP3   OH258858   6.514   5.329   5.597  0.6393 -0.0852 -0.2320
12456TIP3    H158859   6.452   5.268   5.638  1.1247  0.0364  0.7303
12456TIP3    H258860   6.459   5.387   5.544 -0.1377  0.2516  0.8839
12457TIP3   OH258861   0.400   2.556   4.313  0.9644  0.8033  0.2972
12457TIP3    H158862   0.347   2.600   4.247 -1.0635 -1.7137  0.0855
12457TIP3    H258863   0.475   2.521   4.264 -0.2573 -0.5967 -0.6529
12458TIP3   OH258864   5.498   6.117  14.260 -0.2222 -0.4829  0.0788
12458TIP3    H158865   5.415   6.094  14.301 -0.3473 -0.2839 -0.0604
12458TIP3    H258866   5.508   6.054  14.189 -0.5779 -0.1075 -0.3174
12459TIP3   OH258867   4.962   6.680  14.759  0.6037  0.2470 -0.2703
12459TIP3    H158868   4.891   6.633  14.714 -2.2439  0.8696  3.0733
12459TIP3    H258869   4.952   6.770  14.730  1.0904  0.0867 -0.9645
12460TIP3   OH258870   4.876   6.004   2.107  0.1263  0.0741  0.5173
12460TIP3    H158871   4.825   5.969   2.180 -0.0317 -3.0070 -0.9198
12460TIP3    H258872   4.967   5.985   2.129  0.1593  0.0724  0.3816
12461TIP3   OH258873   2.120   5.161  17.163 -0.1487  0.1098  0.1128
12461TIP3    H158874   2.057   5.217  17.208  0.8492 -0.6289  2.5756
12461TIP3    H258875   2.203   5.179  17.207  0.8312 -0.9062 -1.2537
12462TIP3   OH258876   4.587   2.442   5.605 -0.4018 -0.7681  0.3647
12462TIP3    H158877   4.611   2.384   5.677 -0.6976  0.3539  1.3907
12462TIP3    H258878   4.493   2.430   5.595 -0.5042 -0.2640  0.7487
12463TIP3   OH258879   0.334   3.225  11.678 -0.0043  0.2015 -0.3465
12463TIP3    H158880   0.384   3.151  11.712 -1.4174 -0.7649 -0.2945
12463TIP3    H258881   0.344   3.219  11.583  1.7212  1.3040 -0.2697
12464TIP3   OH258882   0.579   3.753  16.327 -0.1531  0.0997 -0.0889
12464TIP3    H158883   0.654   3.713  16.282 -0.4120  0.5024 -0.9076
12464TIP3    H258884   0.614   3.783  16.410  0.5040 -0.0811 -0.2936
12465TIP3   OH258885   1.862   6.054   0.766 -0.1528  0.3968  0.0226
12465TIP3    H158886   1.829   5.999   0.695  0.2395  1.3804 -0.9514
12465TIP3    H258887   1.929   6.001   0.809 -1.5356 -0.8477  0.7417
12466TIP3   OH258888   6.443   4.169   2.675  0.3773  0.1977  0.4006
12466TIP3    H158889   6.362   4.215   2.696 -0.2136  0.1335 -1.4762
12466TIP3    H258890   6.512   4.225   2.709 -0.4179  0.9664  0.8107
12467TIP3   OH258891   3.302   0.647   3.138  0.2417 -0.1213 -0.5099
12467TIP3    H158892   3.327   0.566   3.182  1.0701 -0.0799 -0.8901
12467TIP3    H258893   3.269   0.703   3.208 -1.4231 -1.1704 -0.3852
12468TIP3   OH258894   6.296   3.057  13.902 -0.9486 -0.1240  0.3916
12468TIP3    H158895   6.376   3.096  13.869 -1.9591  2.3459  0.6304
12468TIP3    H258896   6.227   3.090  13.843 -2.2542  1.1164  2.4528
12469TIP3   OH258897   4.883   2.488   6.208  0.1139  0.1019  0.1541
12469TIP3    H158898   4.854   2.446   6.289  1.6269 -0.0297  0.6536
12469TIP3    H258899   4.876   2.582   6.226  0.8496  0.0782  0.6119
12470TIP3   OH258900   5.753   3.955   3.156 -0.3863  0.4098 -0.3916
12470TIP3    H158901   5.840   3.958   3.115  0.4334 -1.0487  1.1441
12470TIP3    H258902   5.762   4.008   3.235 -1.0747  0.7107 -0.5095
12471TIP3   OH258903   6.214   4.547  13.835 -0.4329  0.3268  0.1049
12471TIP3    H158904   6.286   4.506  13.787  0.7676  1.5802  0.7493
12471TIP3    H258905   6.166   4.598  13.769 -1.4375 -1.3811 -0.5384
12472TIP3   OH258906   5.538   5.256   0.978  0.0044  0.1987  0.0850
12472TIP3    H158907   5.562   5.298   0.895  2.1747  0.8042  0.9611
12472TIP3    H258908   5.510   5.328   1.035 -1.0649 -0.1689  0.0641
12473TIP3   OH258909   6.640   4.935   2.525  0.0830  0.3009 -0.0565
12473TIP3    H158910   6.733   4.912   2.534  0.2690  0.8626 -0.4706
12473TIP3    H258911   6.594   4.868   2.575  0.7402  0.3263  0.6005
12474TIP3   OH258912   1.613   5.105   1.750 -0.2062 -0.6399  0.5378
12474TIP3    H158913   1.572   5.052   1.818 -0.7057  0.1061  0.8359
12474TIP3    H258914   1.585   5.195   1.770 -0.9448 -0.4800 -1.0530
12475TIP3   OH258915   2.535   3.155  16.093 -0.6789 -0.0063 -0.2060
12475TIP3    H158916   2.542   3.063  16.120 -0.1933 -0.1307 -0.7220
12475TIP3    H258917   2.622   3.192  16.111 -0.8961  0.3698  0.0703
12476TIP3   OH258918   0.526   1.446   5.098  0.5682  0.1612  0.1603
12476TIP3    H158919   0.443   1.450   5.145  1.1537  0.5524  1.2001
12476TIP3    H258920   0.555   1.355   5.108  0.1318 -0.0516 -0.4603
12477TIP3   OH258921   4.402   5.055   2.632  0.2553  0.4339  0.4497
12477TIP3    H158922   4.378   5.117   2.701  1.4516  1.0494  0.3575
12477TIP3    H258923   4.497   5.068   2.621  0.2024 -0.1107 -0.8547
12478TIP3   OH258924   1.620   4.541   4.169 -1.0018  0.0351  0.0351
12478TIP3    H158925   1.650   4.456   4.201 -0.3554 -0.5975 -2.1233
12478TIP3    H258926   1.698   4.582   4.133 -1.4172  1.3544  0.5822
12479TIP3   OH258927   1.836   5.925   3.707 -0.3924 -0.3066 -0.3462
12479TIP3    H158928   1.919   5.943   3.752 -1.0741  1.6436  0.2617
12479TIP3    H258929   1.769   5.937   3.775 -1.3462  1.0915 -1.4700
12480TIP3   OH258930   0.024   3.223   0.509  0.2336  0.1512  0.9879
12480TIP3    H158931   0.093   3.162   0.484  1.6523  0.9320  2.7740
12480TIP3    H258932   0.008   3.275   0.431  0.4192 -1.1722  0.0397
12481TIP3   OH258933   5.764   0.575  13.916 -0.0993 -0.0665 -0.1497
12481TIP3    H158934   5.833   0.538  13.860 -0.0550 -2.1672  1.1889
12481TIP3    H258935   5.696   0.602  13.855  1.5414  1.3387 -1.4528
12482TIP3   OH258936   5.919   3.435  11.627 -0.3341 -0.0889  0.1194
12482TIP3    H158937   5.890   3.450  11.717  1.1899 -1.4481  0.9049
12482TIP3    H258938   5.878   3.352  11.602 -1.3411  0.6431 -0.7495
12483TIP3   OH258939   5.429   1.724   3.315  0.1333 -0.0446 -0.5317
12483TIP3    H158940   5.354   1.782   3.303  0.7961  0.5991 -1.6792
12483TIP3    H258941   5.415   1.652   3.255  1.2546  0.9477 -2.0567
12484TIP3   OH258942   6.576   2.380  12.309  0.0813  0.0688  0.4805
12484TIP3    H158943   6.637   2.424  12.369 -0.2857  0.6955  0.3978
12484TIP3    H258944   6.540   2.308  12.361 -0.1487  0.5367  0.9885
12485TIP3   OH258945   4.526   6.690  11.861 -0.3328 -0.4120  0.3143
12485TIP3    H158946   4.499   6.713  11.771 -0.0175 -3.1628 -0.5583
12485TIP3    H258947   4.575   6.767  11.890 -0.2744  0.5071 -1.9292
12486TIP3   OH258948   3.034   0.682   5.206 -0.2611 -0.3435 -0.0291
12486TIP3    H158949   3.000   0.707   5.291 -0.4568  0.0420 -0.2155
12486TIP3    H258950   2.996   0.597   5.188  0.6178 -0.9153  0.7325
12487TIP3   OH258951   0.755   6.127  12.238 -0.0574 -0.2092 -0.1674
12487TIP3    H158952   0.844   6.145  12.267  0.6515 -0.3913 -2.0854
12487TIP3    H258953   0.701   6.191  12.285  1.1253  0.2356  0.6445
12488TIP3   OH258954   2.769   5.929  16.922 -0.1885  0.2056 -0.3379
12488TIP3    H158955   2.835   5.993  16.897  0.2126 -0.5464 -1.2977
12488TIP3    H258956   2.816   5.867  16.978 -0.4793  0.5249  0.2697
12489TIP3   OH258957   1.361   3.781  12.106 -0.3464  0.5228 -0.0479
12489TIP3    H158958   1.441   3.744  12.143 -0.5321 -0.6696 -0.7835
12489TIP3    H258959   1.390   3.860  12.062  0.3702  0.3012  0.0040
12490TIP3   OH258960   4.683   6.193   3.577 -0.1762  0.0902  0.1653
12490TIP3    H158961   4.688   6.137   3.655 -1.0043 -3.1909 -1.9582
12490TIP3    H258962   4.597   6.236   3.584 -0.6810 -0.9534  0.6163
12491TIP3   OH258963   5.242   4.564   5.065  0.1610  0.5985 -0.0201
12491TIP3    H158964   5.191   4.566   4.985 -1.8513 -0.6406  1.1451
12491TIP3    H258965   5.256   4.657   5.088  0.9550  0.9665 -1.8387
12492TIP3   OH258966   6.565   3.150  16.106  0.3493  0.1506  0.6664
12492TIP3    H158967   6.572   3.202  16.026 -0.1565 -0.7946 -0.0135
12492TIP3    H258968   6.483   3.178  16.146 -0.5086 -0.8749 -0.2874
12493TIP3   OH258969   1.173   0.157   1.310 -0.1888 -0.9266 -0.4703
12493TIP3    H158970   1.148   0.239   1.267  0.8333 -0.1856  0.2983
12493TIP3    H258971   1.266   0.148   1.292 -0.1139 -1.4818  0.1614
12494TIP3   OH258972   2.956   2.505  15.758 -0.8250  0.1923  0.1569
12494TIP3    H158973   2.975   2.569  15.827  0.4929  2.0449 -1.7697
12494TIP3    H258974   2.932   2.425  15.805  1.9306  0.7333  2.8149
12495TIP3   OH258975   4.280   6.097  15.844 -0.1484  0.0012 -0.0908
12495TIP3    H158976   4.310   6.008  15.862 -0.7632 -0.2614 -0.3015
12495TIP3    H258977   4.188   6.097  15.870 -0.4981  0.2081 -1.2277
12496TIP3   OH258978   2.560   4.560  16.466 -0.2360  0.0591 -0.0752
12496TIP3    H158979   2.513   4.513  16.536  0.2998  0.6446  0.6878
12496TIP3    H258980   2.559   4.498  16.393 -0.6106 -0.6628  0.5112
12497TIP3   OH258981   1.809   3.948   5.771  0.9489  0.6477  0.3436
12497TIP3    H158982   1.805   4.004   5.848 -1.8619 -0.9140  1.5245
12497TIP3    H258983   1.807   3.859   5.806  1.2982 -0.1482 -1.5185
12498TIP3   OH258984   0.719   2.798   0.156 -0.2952 -0.4968 -0.0550
12498TIP3    H158985   0.671   2.838   0.229 -1.4301 -0.1419 -0.9801
12498TIP3    H258986   0.676   2.830   0.078  2.4311  1.1276 -1.0438
12499TIP3   OH258987   5.655   0.114  15.920 -0.4674  0.5925 -0.0968
12499TIP3    H158988   5.645   0.142  16.010 -1.4651  0.4460 -0.1570
12499TIP3    H258989   5.718   0.042  15.924 -1.4274 -0.2206  0.6446
12500TIP3   OH258990   5.525   1.005   5.770 -0.3217 -0.9441 -0.1927
12500TIP3    H158991   5.439   1.025   5.806  0.2431  0.2138  0.5992
12500TIP3    H258992   5.533   0.910   5.778 -1.1105 -0.9554  0.7017
12501TIP3   OH258993   3.110   3.057   3.897  0.4716  0.8769 -0.3260
12501TIP3    H158994   3.034   3.016   3.938  0.7928 -0.1274 -0.6929
12501TIP3    H258995   3.176   2.988   3.896  0.9083  1.2887 -1.3056
12502TIP3   OH258996   5.219   6.411  11.930  0.0328  0.0021  0.0359
12502TIP3    H158997   5.180   6.401  12.017 -1.5687  1.8426 -0.4012
12502TIP3    H258998   5.239   6.321  11.903  0.5896 -0.6212  2.2686
12503TIP3   OH258999   4.945   1.574   2.446 -0.1443  0.2071  0.1770
12503TIP3    H159000   5.017   1.513   2.431 -0.7169 -0.5015  0.2103
12503TIP3    H259001   4.964   1.613   2.532 -0.4218 -0.8977  0.7664
12504TIP3   OH259002   4.025   6.732   3.072  0.2477  0.4242  0.0724
12504TIP3    H159003   3.930   6.736   3.087  0.1093  1.3476 -0.9809
12504TIP3    H259004   4.035   6.664   3.005  0.2845  0.6879 -0.1882
12505TIP3   OH259005   6.459   0.281  11.846  0.2142  0.3885  0.0097
12505TIP3    H159006   6.491   0.195  11.818  0.6385 -0.2190  2.1939
12505TIP3    H259007   6.365   0.267  11.860  0.4728 -0.0598  1.4371
12506TIP3   OH259008   0.723   1.235  11.903  0.4911  0.3228 -0.1257
12506TIP3    H159009   0.814   1.256  11.924 -0.3190  1.8223  2.3370
12506TIP3    H259010   0.728   1.152  11.855  3.0031 -1.1809  2.3929
12507TIP3   OH259011   6.646   1.358  11.408  0.1208  0.8795  0.0482
12507TIP3    H159012   6.666   1.291  11.473  1.4297  0.5015 -0.7175
12507TIP3    H259013   6.606   1.310  11.335 -0.0905  1.1210  0.0015
12508TIP3   OH259014   6.401   4.393  12.995  0.3267 -0.0770 -0.4966
12508TIP3    H159015   6.409   4.312  12.944  1.9885 -0.6905  0.6420
12508TIP3    H259016   6.340   4.371  13.065 -0.3117  0.1032 -0.9914
12509TIP3   OH259017   0.991   1.570  16.976  0.1354  0.9338  0.1731
12509TIP3    H159018   1.061   1.535  16.920 -0.9875  1.2871 -1.5260
12509TIP3    H259019   0.942   1.629  16.919 -1.3242  0.9926  1.4285
12510TIP3   OH259020   1.897   1.527  16.776 -0.5980  0.0343 -0.3796
12510TIP3    H159021   1.988   1.558  16.773 -0.5290  0.0552  1.0794
12510TIP3    H259022   1.880   1.496  16.687  2.0926 -3.3518  0.0284
12511TIP3   OH259023   6.291   3.187  14.998 -0.5465  0.5540  0.1074
12511TIP3    H159024   6.338   3.239  15.062 -0.2627  1.5827 -0.9021
12511TIP3    H259025   6.359   3.141  14.949 -0.5575  1.9332 -1.2606
12512TIP3   OH259026   6.453   4.315   6.602 -0.2332 -0.0870  0.3195
12512TIP3    H159027   6.405   4.266   6.535 -1.1524  1.0563  0.1270
12512TIP3    H259028   6.518   4.252   6.634  2.4417  0.1520 -3.8266
12513TIP3   OH259029   3.318   1.889  13.095 -0.3582 -0.1986 -0.5027
12513TIP3    H159030   3.291   1.827  13.028 -0.8626  0.3970 -0.8591
12513TIP3    H259031   3.392   1.847  13.139 -1.3329 -1.5159 -0.0535
12514TIP3   OH259032   0.773   0.282  14.846 -0.4330  1.0672  0.0965
12514TIP3    H159033   0.827   0.356  14.873  0.7586  0.0038  0.7309
12514TIP3    H259034   0.835   0.218  14.811 -1.3250 -0.0042  0.4012
12515TIP3   OH259035   2.914   6.338  12.588 -0.2224 -0.7170 -0.0456
12515TIP3    H159036   2.838   6.392  12.610  0.9007  1.5060 -1.2791
12515TIP3    H259037   2.881   6.276  12.522 -0.4909  2.1488 -2.8644
12516TIP3   OH259038   1.031   0.083   2.997  0.3547 -0.6137  0.2055
12516TIP3    H159039   1.060   0.070   3.088  1.5805  0.9808  0.0987
12516TIP3    H259040   1.105   0.056   2.944  0.9352  1.5023 -0.1596
12517TIP3   OH259041   5.863   6.058  14.055 -0.3906  0.1964  0.0935
12517TIP3    H159042   5.850   6.057  14.149  1.9689 -0.4790  0.4791
12517TIP3    H259043   5.941   6.111  14.042 -0.0537 -0.6036 -1.3688
12518TIP3   OH259044   6.360   1.419  13.127  0.1436 -0.5428  0.0288
12518TIP3    H159045   6.280   1.463  13.158  0.8742  1.6274 -1.0238
12518TIP3    H259046   6.331   1.330  13.106 -2.2032  0.3815 -1.0315
12519TIP3   OH259047   3.759   0.923  14.003 -0.2632  0.4271 -0.0747
12519TIP3    H159048   3.723   0.997  14.053 -1.1438  0.1817 -0.3406
12519TIP3    H259049   3.847   0.910  14.040 -0.3612  1.1641  0.4371
12520TIP3   OH259050   5.728   3.953   2.848 -0.2094 -0.2185  0.4224
12520TIP3    H159051   5.679   4.034   2.862  0.9116  0.5864 -0.1536
12520TIP3    H259052   5.817   3.973   2.879 -0.4015 -1.9182  2.2737
12521TIP3   OH259053   2.567   1.261   2.298 -0.2937 -0.3054  1.1866
12521TIP3    H159054   2.631   1.219   2.240 -0.5704 -0.5846  1.0817
12521TIP3    H259055   2.544   1.193   2.361 -0.0207 -0.0137  1.6097
12522TIP3   OH259056   2.961   3.188  11.376  0.0774 -0.2970 -0.2431
12522TIP3    H159057   3.000   3.107  11.410 -0.1601  0.1030  1.0068
12522TIP3    H259058   3.029   3.254  11.387  0.1977 -0.2622 -1.0834
12523TIP3   OH259059   5.995   3.225  10.710 -0.1372  0.3853 -0.0944
12523TIP3    H159060   5.980   3.141  10.754 -2.2434  1.0894  0.6481
12523TIP3    H259061   6.087   3.245  10.727  0.6757 -2.1305 -0.9955
12524TIP3   OH259062   6.283   4.909  17.262  0.0752  0.2613 -0.2028
12524TIP3    H159063   6.234   4.952  17.192  0.4586 -2.3095 -2.2128
12524TIP3    H259064   6.217   4.877  17.323 -0.4674  0.3235 -0.7536
12525TIP3   OH259065   1.937   0.053   4.211  0.1490  0.5001 -0.0367
12525TIP3    H159066   1.938   0.143   4.244 -1.0791  0.3989  0.3372
12525TIP3    H259067   1.847   0.024   4.223  0.1768 -0.2989 -1.4822
12526TIP3   OH259068   3.671   1.045  12.009  0.2273 -0.1157  0.0992
12526TIP3    H159069   3.618   1.091  11.944  2.2765  1.7577 -0.3343
12526TIP3    H259070   3.612   1.033  12.084 -1.4082 -0.0382 -1.1189
12527TIP3   OH259071   0.158   6.267  12.307  0.2542  0.2408  0.1014
12527TIP3    H159072   0.236   6.277  12.253  1.7841 -3.2955  1.3026
12527TIP3    H259073   0.107   6.199  12.263  0.0708 -0.6029  1.5347
12528TIP3   OH259074   6.298   4.704   0.163  0.0707 -0.0505  0.3230
12528TIP3    H159075   6.384   4.675   0.192 -0.3204  0.0438  1.6636
12528TIP3    H259076   6.295   4.683   0.069  0.6142 -2.3104  0.7571
12529TIP3   OH259077   0.160   5.068   0.170  0.0077  0.7547  0.4271
12529TIP3    H159078   0.096   5.003   0.144  0.9985 -0.3359  0.6502
12529TIP3    H259079   0.121   5.111   0.247 -0.2464 -0.2391  0.8623
12530TIP3   OH259080   4.869   2.264  15.347 -0.4439 -0.5165 -0.4272
12530TIP3    H159081   4.878   2.169  15.335 -0.9143 -0.9249  1.9229
12530TIP3    H259082   4.776   2.277  15.364 -0.4219  0.4177 -0.9696
12531TIP3   OH259083   4.770   0.191   3.674  0.5069 -0.2629 -0.7368
12531TIP3    H159084   4.818   0.259   3.721  0.5422  0.0269 -1.1775
12531TIP3    H259085   4.733   0.237   3.598 -1.4958 -0.2056  0.2081
12532TIP3   OH259086   2.536   5.506   1.462  0.6339  0.0222  0.1577
12532TIP3    H159087   2.626   5.500   1.431  1.0743  0.6579  1.2378
12532TIP3    H259088   2.516   5.419   1.495  1.1107  0.0601  0.5565
12533TIP3   OH259089   1.386   4.000   1.151 -0.1252  0.1430 -0.5044
12533TIP3    H159090   1.360   3.946   1.225 -0.1387 -1.9626 -1.9698
12533TIP3    H259091   1.480   3.987   1.143 -0.0610  0.6616 -0.6468
12534TIP3   OH259092   4.264   4.824   2.554  0.1752  0.3107 -0.2968
12534TIP3    H159093   4.307   4.900   2.595  0.1297  0.5195 -0.6305
12534TIP3    H259094   4.188   4.861   2.510 -0.6951 -0.1344  0.7804
12535TIP3   OH259095   2.896   6.159  16.803  0.0759  0.3457 -0.6332
12535TIP3    H159096   2.870   6.222  16.735 -0.0872  1.0074  0.0315
12535TIP3    H259097   2.977   6.195  16.839 -0.3237  0.4898  0.1450
12536TIP3   OH259098   0.340   5.439   5.586  0.1576  0.4079 -0.1039
12536TIP3    H159099   0.381   5.374   5.643 -0.8137 -0.0815  0.0692
12536TIP3    H259100   0.246   5.422   5.595 -0.0737  1.3166 -0.6859
12537TIP3   OH259101   4.093   6.534   2.334 -0.6114 -0.0133  0.5286
12537TIP3    H159102   4.065   6.625   2.323 -0.4750 -0.0189  0.1092
12537TIP3    H259103   4.121   6.507   2.246  2.6314  0.6466  1.2247
12538TIP3   OH259104   2.444   6.274   1.596 -0.0891  0.8147 -0.1620
12538TIP3    H159105   2.377   6.299   1.532 -1.9883  2.7761  2.4026
12538TIP3    H259106   2.511   6.342   1.588 -0.3075  1.0413 -0.0697
12539TIP3   OH259107   3.434   3.122   1.753 -0.1661 -0.8239 -0.5389
12539TIP3    H159108   3.386   3.201   1.729  2.7188  1.3386  0.2211
12539TIP3    H259109   3.398   3.054   1.697 -1.7591  1.3517 -2.3485
12540TIP3   OH259110   5.650   3.392   1.197 -0.4383 -0.7241  0.1879
12540TIP3    H159111   5.639   3.432   1.283 -1.7627 -2.2651  0.7909
12540TIP3    H259112   5.598   3.447   1.139 -1.2792 -0.8754  0.7800
12541TIP3   OH259113   4.613   0.281   5.952  0.2684  0.4001 -0.5430
12541TIP3    H159114   4.663   0.287   6.034 -0.3226  0.2035 -0.1582
12541TIP3    H259115   4.665   0.223   5.897 -0.8256 -2.0829  0.8646
12542TIP3   OH259116   6.009   6.073  16.174  0.6006  0.2734 -0.2670
12542TIP3    H159117   6.056   5.990  16.184 -1.3422 -0.7318  1.2395
12542TIP3    H259118   5.938   6.068  16.239 -0.5259  2.4444 -1.2355
12543TIP3   OH259119   3.931   1.254   2.007  0.6205 -0.0021 -0.3565
12543TIP3    H159120   3.855   1.195   2.009  1.1029 -0.6154  0.4567
12543TIP3    H259121   3.982   1.230   2.084  2.6870 -0.9881 -1.9351
12544TIP3   OH259122   0.915   2.973  15.434  0.4857  0.4167  0.4900
12544TIP3    H159123   0.878   2.919  15.504  1.1309  0.0119  0.5234
12544TIP3    H259124   0.975   3.032  15.480 -1.6278  2.5530  0.7396
12545TIP3   OH259125   3.708   4.435   3.456  0.2770  0.2111  0.1271
12545TIP3    H159126   3.626   4.476   3.484  0.1495 -0.5641  0.8987
12545TIP3    H259127   3.694   4.341   3.468  0.6694 -0.0735 -1.3515
12546TIP3   OH259128   0.310   3.697   3.260  0.2816 -0.1921  0.2668
12546TIP3    H159129   0.321   3.612   3.216  0.9610  0.1597 -0.2558
12546TIP3    H259130   0.215   3.707   3.270  0.1514 -0.5791 -0.5195
12547TIP3   OH259131   2.700   5.442   1.101 -0.6375  0.1717 -0.2340
12547TIP3    H159132   2.769   5.375   1.103 -1.3433 -0.5464  0.5346
12547TIP3    H259133   2.725   5.503   1.171 -0.6561  0.0530 -0.1248
12548TIP3   OH259134   6.019   5.309   1.904 -0.4468  0.3517  0.0719
12548TIP3    H159135   5.979   5.272   1.825 -0.8143 -0.2772  0.5494
12548TIP3    H259136   6.107   5.273   1.905 -0.4082  0.4387 -0.1015
12549TIP3   OH259137   1.620   1.300  14.742 -0.4094  0.3112 -0.1557
12549TIP3    H159138   1.667   1.218  14.759 -0.0808  0.7153  0.9919
12549TIP3    H259139   1.539   1.293  14.792 -0.6312  0.4717 -0.4869
12550TIP3   OH259140   0.673   5.033  13.960  0.0589 -0.9286  0.7669
12550TIP3    H159141   0.631   5.090  13.896 -1.4028 -1.4247  1.2476
12550TIP3    H259142   0.601   4.982  13.998  0.9594 -1.0931  2.3501
12551TIP3   OH259143   4.369   5.215   2.871  0.2585 -0.0703  0.2888
12551TIP3    H159144   4.346   5.265   2.950  2.0102  2.5148 -0.7282
12551TIP3    H259145   4.379   5.125   2.902 -0.6087  0.5902  2.7069
12552TIP3   OH259146   1.208   4.563   1.545 -0.0686 -0.0531 -0.6338
12552TIP3    H159147   1.265   4.490   1.522 -0.8095 -0.6959 -0.4756
12552TIP3    H259148   1.174   4.540   1.632 -1.8550 -0.5059 -1.4002
12553TIP3   OH259149   3.836   1.610   6.134 -0.2057  0.5625 -0.1465
12553TIP3    H159150   3.808   1.702   6.129 -0.4219  0.4498 -1.4097
12553TIP3    H259151   3.909   1.610   6.195 -1.5656  1.2272  1.5417
12554TIP3   OH259152   1.479   1.692   1.616 -0.3162  0.4232  0.2031
12554TIP3    H159153   1.386   1.706   1.633 -0.3122  0.2923  0.3325
12554TIP3    H259154   1.505   1.768   1.564 -0.2861  0.9354  0.9426
12555TIP3   OH259155   1.754   0.079  11.450 -0.2072 -0.1543 -0.5395
12555TIP3    H159156   1.789   0.113  11.367  0.8583  0.6851  0.2206
12555TIP3    H259157   1.738   0.157  11.502 -1.2256 -0.6614 -0.0797
12556TIP3   OH259158   0.335   2.056  17.149 -0.2179 -0.2425 -0.1662
12556TIP3    H159159   0.269   2.040  17.082  0.7976 -1.5329 -0.9122
12556TIP3    H259160   0.288   2.100  17.219 -2.1002 -1.9735 -0.2469
12557TIP3   OH259161   1.652   2.125  16.596  0.2494 -0.2082 -0.2178
12557TIP3    H159162   1.715   2.187  16.558  2.0690 -1.1828  1.0706
12557TIP3    H259163   1.706   2.057  16.636 -1.6571 -2.6546 -1.5297
12558TIP3   OH259164   1.186   0.767  16.459 -0.3638 -0.7404 -0.4497
12558TIP3    H159165   1.205   0.800  16.371  0.2490 -0.2877 -0.1567
12558TIP3    H259166   1.263   0.789  16.510  1.0117 -4.3782 -0.6606
12559TIP3   OH259167   0.933   5.129   0.617 -0.3944 -0.2971  0.4328
12559TIP3    H159168   1.009   5.078   0.647  1.0049  1.8631  0.7705
12559TIP3    H259169   0.911   5.091   0.532  1.6937 -0.4077 -0.1281
12560TIP3   OH259170   0.787   3.166   1.186 -0.4576  0.1281 -0.2043
12560TIP3    H159171   0.797   3.163   1.281 -0.0849 -0.2805 -0.2527
12560TIP3    H259172   0.699   3.131   1.171 -0.0846 -0.8969 -0.0749
12561TIP3   OH259173   4.649   1.116  14.426  0.3011  0.0501  0.1169
12561TIP3    H159174   4.667   1.101  14.519 -1.6654 -0.4384  0.4686
12561TIP3    H259175   4.641   1.029  14.388  3.3078  0.1578 -1.0963
12562TIP3   OH259176   0.314   4.882  10.953  0.2484 -0.3679 -0.2287
12562TIP3    H159177   0.265   4.893  10.871  0.5715 -2.4779 -0.7737
12562TIP3    H259178   0.289   4.957  11.007 -1.1315  0.2722 -1.6890
12563TIP3   OH259179   1.151   0.744  13.455 -0.1914 -0.1809 -0.5531
12563TIP3    H159180   1.075   0.765  13.400 -0.8032 -0.5820  0.1052
12563TIP3    H259181   1.157   0.648  13.451 -1.0244 -0.3357  1.0386
12564TIP3   OH259182   3.550   1.436   0.993  0.0684  0.6804 -0.4080
12564TIP3    H159183   3.544   1.521   0.948 -1.2809  1.0666  0.4584
12564TIP3    H259184   3.489   1.443   1.066 -1.5354 -1.7137 -1.4043
12565TIP3   OH259185   2.463   6.421   0.501  1.0120 -0.5529 -0.5900
12565TIP3    H159186   2.405   6.413   0.577  0.3045 -0.5121 -1.1134
12565TIP3    H259187   2.404   6.442   0.429  1.4058 -2.4720 -1.5359
12566TIP3   OH259188   3.665   5.415   3.966 -0.0192 -0.6206  0.9177
12566TIP3    H159189   3.649   5.451   4.053 -0.0413  3.3806 -0.5402
12566TIP3    H259190   3.578   5.412   3.926  0.1876 -0.7754  0.4828
12567TIP3   OH259191   3.524   2.344  13.716 -0.6050  0.2745  0.0056
12567TIP3    H159192   3.434   2.352  13.685 -1.0574 -0.3967  1.0971
12567TIP3    H259193   3.516   2.307  13.804  0.6111  2.0473  0.9355
12568TIP3   OH259194   3.284   2.543   0.837  0.5073  0.4200 -0.1441
12568TIP3    H159195   3.321   2.460   0.808  1.3273  0.5595  0.4683
12568TIP3    H259196   3.267   2.531   0.930 -1.2804  0.2766 -0.4539
12569TIP3   OH259197   0.365   0.544   5.416  0.5598 -0.2782 -0.2999
12569TIP3    H159198   0.442   0.600   5.421  1.0655 -0.8785 -1.1087
12569TIP3    H259199   0.325   0.567   5.332 -0.9074  0.9733  0.6814
12570TIP3   OH259200   1.356   6.687   5.024 -0.5161  0.5030 -0.4452
12570TIP3    H159201   1.337   6.628   5.097 -0.3252 -0.3804 -1.0806
12570TIP3    H259202   1.270   6.723   5.000 -0.8474 -0.4837 -0.8276
12571TIP3   OH259203   5.449   5.965   3.457 -0.4124 -0.1785  0.1099
12571TIP3    H159204   5.509   5.973   3.382 -1.0016 -0.9092 -0.4520
12571TIP3    H259205   5.363   5.954   3.417 -0.8504  0.2569  0.9119
12572TIP3   OH259206   4.707   6.461   5.609  0.4023  0.3675 -0.5821
12572TIP3    H159207   4.723   6.475   5.516  0.5280  0.6489 -0.5172
12572TIP3    H259208   4.657   6.379   5.612  0.6917  0.1746 -0.8727
12573TIP3   OH259209   1.406   4.645   1.887 -0.6832 -0.2463  0.2638
12573TIP3    H159210   1.358   4.707   1.832  0.9165  0.8336  0.0097
12573TIP3    H259211   1.350   4.631   1.963 -1.3319  1.0774  0.0606
12574TIP3   OH259212   2.484   2.816   1.914  0.0430 -0.2297 -0.5235
12574TIP3    H159213   2.518   2.848   1.998 -1.2340  0.2960 -0.1776
12574TIP3    H259214   2.557   2.768   1.875 -0.0588 -2.7509  2.0636
12575TIP3   OH259215   6.193   1.204   4.529 -0.2293  0.2504  0.7230
12575TIP3    H159216   6.260   1.204   4.460 -0.3411  0.9540  0.5973
12575TIP3    H259217   6.171   1.297   4.539 -1.6914 -0.0286  0.2751
12576TIP3   OH259218   6.516   1.654  15.858  0.2709  0.2669 -0.4067
12576TIP3    H159219   6.445   1.591  15.849  0.3465  0.1682 -0.3071
12576TIP3    H259220   6.572   1.638  15.783 -0.8113  1.6245 -1.5865
12577TIP3   OH259221   6.623   1.915   0.634  0.6519  0.1721  0.1966
12577TIP3    H159222   6.539   1.890   0.672  0.3565  1.1565  0.2416
12577TIP3    H259223   6.607   2.003   0.599  1.2717 -0.1987 -1.0646
12578TIP3   OH259224   5.489   6.416  16.038 -0.5176  0.1459  0.2845
12578TIP3    H159225   5.436   6.353  15.990 -1.0064  0.7374  0.0339
12578TIP3    H259226   5.580   6.388  16.023 -0.5852  0.9470 -1.8986
12579TIP3   OH259227   6.795   3.357  15.135 -0.8275  0.4130  0.2146
12579TIP3    H159228   6.735   3.422  15.097 -1.3829 -0.6189 -0.7515
12579TIP3    H259229   6.872   3.408  15.161 -0.9871  1.3848 -1.0965
12580TIP3   OH259230   5.725   5.127  13.824  0.2269 -0.4684 -0.3405
12580TIP3    H159231   5.793   5.176  13.869 -0.2631 -0.6097  0.5834
12580TIP3    H259232   5.645   5.178  13.839  0.2179  0.0404 -1.9590
12581TIP3   OH259233   1.809   0.485   2.244 -0.1201 -0.0740 -0.3073
12581TIP3    H159234   1.769   0.420   2.186  1.5204  0.2947 -1.9440
12581TIP3    H259235   1.838   0.433   2.320 -0.1886 -1.0126 -0.9002
12582TIP3   OH259236   3.736   4.676   4.239  0.0975 -0.7010 -0.4118
12582TIP3    H159237   3.670   4.613   4.269  1.4407 -1.0161  2.2057
12582TIP3    H259238   3.820   4.636   4.262  1.0199  2.5475  2.7786
12583TIP3   OH259239   5.203   2.102   1.681 -0.6814 -0.0073 -0.3539
12583TIP3    H159240   5.278   2.114   1.622 -0.3691  1.0853  0.2378
12583TIP3    H259241   5.234   2.042   1.748  0.3186  1.8606  0.9311
12584TIP3   OH259242   4.658   1.696  16.699 -0.2081 -0.6407  0.2776
12584TIP3    H159243   4.601   1.738  16.634  0.7942 -2.0895 -1.6461
12584TIP3    H259244   4.647   1.602  16.683  0.6081 -1.0266  1.7691
12585TIP3   OH259245   6.790   6.094  12.181 -0.4242 -0.5935 -0.2083
12585TIP3    H159246   6.697   6.107  12.201 -0.4526 -0.8341 -0.1860
12585TIP3    H259247   6.795   6.005  12.147  0.0011 -1.0787  1.0675
12586TIP3   OH259248   2.747   3.769  13.228  0.3133 -0.2752  0.2567
12586TIP3    H159249   2.722   3.860  13.244 -1.2883 -0.8447  1.2462
12586TIP3    H259250   2.728   3.755  13.136 -2.3218 -0.3963  0.7336
12587TIP3   OH259251   3.001   0.619  12.578  0.3900  0.4150  0.4831
12587TIP3    H159252   2.914   0.612  12.539 -0.4666  0.9482  2.2025
12587TIP3    H259253   3.053   0.667  12.514 -0.3327 -0.6398 -0.9374
12588TIP3   OH259254   4.745   5.324   1.886  0.7746 -0.3016 -0.2900
12588TIP3    H159255   4.789   5.262   1.944  0.2270 -1.0845 -0.6913
12588TIP3    H259256   4.687   5.270   1.832 -0.2324  0.6264 -0.1907
12589TIP3   OH259257   2.546   2.347  14.579 -0.1849  0.2209  0.6515
12589TIP3    H159258   2.463   2.385  14.607  1.4344  2.7437  2.5185
12589TIP3    H259259   2.586   2.414  14.523  1.0072 -0.4617  0.6446
12590TIP3   OH259260   3.417   2.372  15.150 -0.1279 -0.0594  0.3950
12590TIP3    H159261   3.347   2.388  15.213  0.4678  1.4364  0.7367
12590TIP3    H259262   3.458   2.458  15.138  2.3754 -1.0575  1.0676
12591TIP3   OH259263   0.362   4.525  15.100  0.2911 -0.0055 -0.7195
12591TIP3    H159264   0.401   4.476  15.173  0.0251 -0.3708 -0.8214
12591TIP3    H259265   0.272   4.494  15.096 -0.7653  2.5144  1.0195
12592TIP3   OH259266   5.303   3.261   2.294  0.3396  0.3014  0.1576
12592TIP3    H159267   5.226   3.263   2.351  0.4478  1.0611  0.2990
12592TIP3    H259268   5.375   3.241   2.354  0.3823  0.5892  0.2063
12593TIP3   OH259269   5.877   4.802  15.409 -0.5640  0.0534  0.1392
12593TIP3    H159270   5.872   4.720  15.457 -0.2734  0.3796  0.7291
12593TIP3    H259271   5.794   4.846  15.429  0.3272  1.0255  1.8840
12594TIP3   OH259272   2.912   5.999  15.990 -0.2442  0.2439 -0.0865
12594TIP3    H159273   2.988   5.981  16.044  0.5317 -0.8817 -1.4764
12594TIP3    H259274   2.862   6.064  16.039  1.6527  1.0850  0.8064
12595TIP3   OH259275   2.856   1.635   4.837  0.1047  0.3114 -0.4818
12595TIP3    H159276   2.875   1.697   4.908 -1.7197 -0.5073  0.7802
12595TIP3    H259277   2.942   1.600   4.813  1.1299  2.8483 -0.8390
12596TIP3   OH259278   2.694   5.511  11.524  0.3225  0.5243  0.5177
12596TIP3    H159279   2.692   5.433  11.580 -1.3098 -0.2997 -0.6058
12596TIP3    H259280   2.787   5.533  11.515  0.6709  0.6387  3.4115
12597TIP3   OH259281   1.922   0.599   1.256  0.4920  0.0689  0.2671
12597TIP3    H159282   1.853   0.535   1.270  0.5442 -1.0670 -3.5667
12597TIP3    H259283   2.003   0.549   1.263  0.6498  0.2219 -0.3866
12598TIP3   OH259284   1.131   6.214  15.268 -0.3779 -0.1439  0.4046
12598TIP3    H159285   1.073   6.151  15.224  1.5834 -1.1323 -0.9516
12598TIP3    H259286   1.114   6.297  15.224  1.3247 -1.0521 -2.2153
12599TIP3   OH259287   2.474   5.088  13.434  0.5920 -0.9286  0.1525
12599TIP3    H159288   2.477   5.164  13.491 -2.4393 -0.2921 -0.3641
12599TIP3    H259289   2.531   5.023  13.476 -0.0639  0.1478  2.8603
12600TIP3   OH259290   5.539   3.502  15.154  0.0235  0.1353 -0.2190
12600TIP3    H159291   5.595   3.452  15.095 -1.4884  0.1646 -1.7747
12600TIP3    H259292   5.451   3.489  15.119 -0.6221  2.4240  0.4119
12601TIP3   OH259293   5.790   3.105   3.326  0.6440 -0.3512  0.7222
12601TIP3    H159294   5.741   3.166   3.270  2.1985  1.5278  1.2686
12601TIP3    H259295   5.796   3.025   3.274 -1.7559 -0.2049  0.0897
12602TIP3   OH259296   4.005   1.199   1.433 -0.7332  0.3418  0.0352
12602TIP3    H159297   3.910   1.199   1.435 -0.7326  1.2248  0.8468
12602TIP3    H259298   4.029   1.292   1.426  0.0618  0.1013 -0.6413
12603TIP3   OH259299   5.534   5.708   0.911  0.0798 -0.3304 -0.5118
12603TIP3    H159300   5.556   5.774   0.977 -2.2154  1.1721 -1.1249
12603TIP3    H259301   5.490   5.639   0.961 -0.4088  0.1463 -0.2698
12604TIP3   OH259302   2.300   6.575  11.428  0.5300 -0.1524  0.0408
12604TIP3    H159303   2.228   6.520  11.459 -0.6692  1.4844  0.3276
12604TIP3    H259304   2.340   6.609  11.509 -0.6472  1.6870 -0.0800
12605TIP3   OH259305   2.568   3.980   3.089  0.5856  0.5966 -0.0006
12605TIP3    H159306   2.512   3.999   3.014 -1.0274 -2.3925  0.2696
12605TIP3    H259307   2.530   4.030   3.161 -0.2515  0.5162 -0.3763
12606TIP3   OH259308   3.395   2.301   3.653 -0.1994 -0.5041 -0.1313
12606TIP3    H159309   3.481   2.264   3.670 -0.3310 -1.1095 -0.6933
12606TIP3    H259310   3.402   2.338   3.565 -0.1476  0.5994  0.3284
12607TIP3   OH259311   6.034   5.375   1.056  0.2681 -0.6766 -0.4439
12607TIP3    H159312   5.959   5.413   1.009 -0.8414 -0.0924  1.6482
12607TIP3    H259313   6.075   5.450   1.099  1.2075 -1.1953 -0.4128
12608TIP3   OH259314   3.196   0.609  11.057 -0.1360 -0.2063 -0.4337
12608TIP3    H159315   3.148   0.550  11.115 -0.2779  1.3318  1.1032
12608TIP3    H259316   3.129   0.648  11.001 -0.2465 -0.3596 -0.4091
12609TIP3   OH259317   6.328   4.202  14.313  0.0173 -0.5603  0.0605
12609TIP3    H159318   6.387   4.129  14.292  0.4349 -0.1413 -0.2433
12609TIP3    H259319   6.243   4.175  14.279  0.3607 -0.5254 -0.8333
12610TIP3   OH259320   0.799   6.753   2.993  0.7497 -0.1999  0.5520
12610TIP3    H159321   0.778   6.779   3.083  0.3892  1.3631  0.0606
12610TIP3    H259322   0.884   6.794   2.976  0.5560 -0.0131  0.0077
12611TIP3   OH259323   6.424   1.795  16.854  0.6630 -1.1793 -0.2075
12611TIP3    H159324   6.353   1.800  16.790  1.1482 -1.3478 -0.7739
12611TIP3    H259325   6.418   1.707  16.891 -0.2150 -0.7608  0.7018
12612TIP3   OH259326   1.523   0.750   3.074 -0.2385  0.4853  0.1485
12612TIP3    H159327   1.617   0.739   3.083 -0.2316 -0.1448 -0.5445
12612TIP3    H259328   1.509   0.845   3.072  0.2210  0.6072  1.6213
12613TIP3   OH259329   5.578   4.272   0.768  0.5351 -0.0864 -1.0243
12613TIP3    H159330   5.557   4.183   0.739 -0.3031 -0.2972  0.1390
12613TIP3    H259331   5.508   4.326   0.730  1.2017  0.1518 -1.9696
12614TIP3   OH259332   5.374   5.161   6.309 -0.5511  0.0696  0.2283
12614TIP3    H159333   5.451   5.158   6.366  0.7309 -0.8534 -1.4567
12614TIP3    H259334   5.329   5.242   6.333 -0.9138 -0.9493  3.5187
12615TIP3   OH259335   2.725   1.166  11.157  0.4164  0.4500  0.2863
12615TIP3    H159336   2.818   1.184  11.173  0.2517  0.4515  1.3480
12615TIP3    H259337   2.717   1.165  11.062  1.4145  0.8987  0.1780
12616TIP3   OH259338   0.473   0.515  16.625  0.0996 -0.2752 -0.4612
12616TIP3    H159339   0.481   0.472  16.710 -0.5409 -0.4893 -0.5032
12616TIP3    H259340   0.560   0.550  16.608  1.2641 -3.2890 -1.3725
12617TIP3   OH259341   6.532   2.362  10.409  0.8015 -0.2915 -0.2013
12617TIP3    H159342   6.602   2.369  10.345  1.1185 -0.0752  0.1605
12617TIP3    H259343   6.555   2.427  10.476 -0.6474  1.0093 -0.9147
12618TIP3   OH259344   3.450   3.707   5.514 -0.3811  0.1196 -0.1739
12618TIP3    H159345   3.434   3.669   5.601 -2.4253  0.3159 -0.4317
12618TIP3    H259346   3.363   3.715   5.475  0.5193 -0.1413 -2.3302
12619TIP3   OH259347   1.751   5.204   3.017 -0.1343  0.3296  0.4144
12619TIP3    H159348   1.709   5.228   3.100 -0.4784  0.1526  0.2932
12619TIP3    H259349   1.735   5.110   3.008  2.0248 -0.1843  1.3556
12620TIP3   OH259350   4.791   0.807   1.177  0.7761 -0.0356 -0.3337
12620TIP3    H159351   4.855   0.871   1.207 -1.3198  2.6223 -1.1742
12620TIP3    H259352   4.707   0.838   1.211 -0.5220 -1.5270 -1.9795
12621TIP3   OH259353   1.829   6.255   4.510  0.0704  0.2131  0.1074
12621TIP3    H159354   1.861   6.249   4.600 -1.3738 -0.8448  0.5870
12621TIP3    H259355   1.780   6.337   4.508  3.0430  2.1326 -0.7811
12622TIP3   OH259356   1.355   0.384   3.436  0.1993  0.3801 -0.0450
12622TIP3    H159357   1.299   0.313   3.467 -2.6877  1.5759 -2.1025
12622TIP3    H259358   1.371   0.363   3.344  1.0588  1.3726 -0.1420
12623TIP3   OH259359   5.847   1.968   5.977  0.1520 -0.0090  0.1155
12623TIP3    H159360   5.809   2.050   5.946  1.5813  0.5232 -0.2945
12623TIP3    H259361   5.771   1.912   5.996 -0.8631  0.0785 -3.1241
12624TIP3   OH259362   6.028   1.606   2.660  0.2159  0.0381  0.1088
12624TIP3    H159363   6.083   1.561   2.725  0.5675  0.5278  0.1526
12624TIP3    H259364   6.089   1.661   2.611 -0.2844  0.8434  0.3707
12625TIP3   OH259365   2.269   6.061  13.741 -0.6538 -0.0194 -0.4173
12625TIP3    H159366   2.179   6.047  13.770 -1.5002  2.0734 -1.7637
12625TIP3    H259367   2.317   6.086  13.820 -1.0651 -1.7602  0.4208
12626TIP3   OH259368   3.567   2.322  15.402 -0.1830 -0.0889 -0.1955
12626TIP3    H159369   3.512   2.339  15.478  1.3963  0.6542  0.8267
12626TIP3    H259370   3.514   2.350  15.327 -1.6122 -0.4739  0.6361
12627TIP3   OH259371   4.034   6.530  17.202  0.9000 -0.2206  0.4247
12627TIP3    H159372   4.124   6.531  17.236  0.8615 -0.5606  0.5351
12627TIP3    H259373   4.000   6.617  17.222  0.8515 -0.4450  1.3171
12628TIP3   OH259374   6.815   2.003  14.698  0.4939 -0.1377  0.1967
12628TIP3    H159375   6.745   1.953  14.654 -1.5275  1.2557  1.6293
12628TIP3    H259376   6.798   1.991  14.791  1.2302  1.4687  0.5718
12629TIP3   OH259377   1.196   5.059   2.105 -0.2929  0.7224 -0.0648
12629TIP3    H159378   1.195   4.973   2.065  0.6499  1.0030 -0.7230
12629TIP3    H259379   1.128   5.108   2.059  0.0517  0.7167 -0.5820
12630TIP3   OH259380   2.270   4.883  15.879 -0.4949 -0.0673 -0.1807
12630TIP3    H159381   2.191   4.834  15.902 -0.1408 -0.4060  0.3306
12630TIP3    H259382   2.297   4.923  15.962 -0.0412 -0.0763 -0.3256
12631TIP3   OH259383   5.208   2.293  16.638 -0.5553 -0.6947 -0.2997
12631TIP3    H159384   5.181   2.375  16.599  0.8938  2.4490  4.4484
12631TIP3    H259385   5.304   2.295  16.634 -0.4870 -2.7123 -0.9140
12632TIP3   OH259386   4.501   5.296   0.316 -0.3380  0.6349  0.3741
12632TIP3    H159387   4.454   5.378   0.299 -2.0155 -0.3922 -0.2315
12632TIP3    H259388   4.526   5.264   0.229 -1.6017 -0.5220  0.3957
12633TIP3   OH259389   0.170   4.236   3.748 -0.1235  0.6670 -0.6558
12633TIP3    H159390   0.238   4.280   3.697  0.6196 -0.5967 -0.7817
12633TIP3    H259391   0.219   4.182   3.811 -1.0043  1.9456  1.2088
12634TIP3   OH259392   2.865   4.143  16.305  0.1603 -0.0983 -0.1283
12634TIP3    H159393   2.914   4.078  16.355  0.4181 -1.5465 -2.1296
12634TIP3    H259394   2.853   4.103  16.218 -1.9104  1.4771 -0.6663
12635TIP3   OH259395   0.372   0.779  14.168  0.5998 -0.2674  0.1513
12635TIP3    H159396   0.343   0.868  14.188  1.6074  0.1285 -0.0829
12635TIP3    H259397   0.414   0.785  14.083  1.0209 -0.8941  0.3029
12636TIP3   OH259398   5.099   3.656   5.091  0.1517 -0.7567 -0.5762
12636TIP3    H159399   5.123   3.702   5.010  0.6113 -0.4491 -0.2671
12636TIP3    H259400   5.107   3.564   5.069 -0.4324 -0.6896 -1.0993
12637TIP3   OH259401   5.369   0.924  13.948  0.6134  0.6041 -0.1730
12637TIP3    H159402   5.273   0.921  13.940  0.4926  1.4148  0.8516
12637TIP3    H259403   5.394   0.832  13.955 -0.1775  0.4064  0.3069
12638TIP3   OH259404   2.992   4.087  10.688  0.5690 -0.0656  0.3159
12638TIP3    H159405   3.029   4.016  10.635  0.0712 -0.6196  0.6923
12638TIP3    H259406   3.018   4.065  10.778  1.7274  1.0658  0.2878
12639TIP3   OH259407   4.921   6.534  13.185 -0.3072 -0.5295  0.0177
12639TIP3    H159408   4.946   6.442  13.185 -0.6962 -0.6439  0.5907
12639TIP3    H259409   4.874   6.547  13.103 -2.0240 -1.3602  0.8065
12640TIP3   OH259410   4.659   6.244   5.943 -0.0680 -0.5131  0.1464
12640TIP3    H159411   4.631   6.326   5.984 -0.4030 -0.6660  0.2190
12640TIP3    H259412   4.751   6.260   5.920 -0.2200 -0.0028 -0.1237
12641TIP3   OH259413   5.666   3.785  17.015  0.3018 -0.6405 -0.0368
12641TIP3    H159414   5.618   3.783  17.098  0.0834 -2.0706 -0.1671
12641TIP3    H259415   5.758   3.774  17.040  0.1357 -2.2326 -0.0162
12642TIP3   OH259416   1.134   1.296  14.823 -0.1593  0.6175 -0.2266
12642TIP3    H159417   1.072   1.270  14.891 -0.0788 -0.3718 -0.5120
12642TIP3    H259418   1.130   1.224  14.759 -0.3683  1.6084 -1.3498
12643TIP3   OH259419   2.858   0.596  17.265  0.5099 -0.6710  0.1345
12643TIP3    H159420   2.792   0.573  17.199  0.3845 -3.5332  1.1161
12643TIP3    H259421   2.826   0.557  17.346  2.0434  0.3293  1.2859
12644TIP3   OH259422   3.281   0.768  13.224 -0.3657 -0.0939  0.3563
12644TIP3    H159423   3.374   0.750  13.228 -0.5933 -1.4931 -0.2629
12644TIP3    H259424   3.253   0.737  13.138 -1.1769  1.5104 -0.0192
12645TIP3   OH259425   6.792   5.777  14.604 -0.3647 -0.0291 -0.3168
12645TIP3    H159426   6.758   5.764  14.693  2.1475 -1.8350  0.5035
12645TIP3    H259427   6.719   5.753  14.547 -1.8861  0.6736  1.2247
12646TIP3   OH259428   0.937   0.869  11.405  1.0959  0.4186  0.5360
12646TIP3    H159429   0.959   0.789  11.451  0.2263 -0.5024 -0.5728
12646TIP3    H259430   0.911   0.930  11.474  2.9489  0.1886  1.4988
12647TIP3   OH259431   5.289   0.020   0.505 -0.1743 -0.1093 -0.1387
12647TIP3    H159432   5.200  -0.015   0.511  0.0216 -0.7180 -0.6843
12647TIP3    H259433   5.335  -0.040   0.447  0.6946  0.0072  0.4084
12648TIP3   OH259434   5.037   0.392  13.121 -0.3431  0.3629 -0.4204
12648TIP3    H159435   4.954   0.361  13.157 -0.7729  2.7176  0.8899
12648TIP3    H259436   5.089   0.313  13.107 -2.5944 -1.1407 -0.8204
12649TIP3   OH259437   5.464   3.064   6.096 -0.9664  0.0227 -0.2074
12649TIP3    H159438   5.524   3.125   6.139 -1.0358  0.4212 -0.6687
12649TIP3    H259439   5.379   3.107   6.101 -1.1546 -0.3841  0.1395
12650TIP3   OH259440   0.808   5.354   3.779 -0.4028 -0.3878  0.0764
12650TIP3    H159441   0.769   5.268   3.761  2.1466 -2.0212  1.5312
12650TIP3    H259442   0.794   5.367   3.873 -0.3194  0.5701 -0.0360
12651TIP3   OH259443   2.372   3.414   4.324 -0.2019 -0.3452  0.7029
12651TIP3    H159444   2.390   3.426   4.417  0.1435 -3.6940  1.2248
12651TIP3    H259445   2.458   3.423   4.282 -0.4849  2.0043  0.5087
12652TIP3   OH259446   2.568   2.548  12.930  0.6121 -0.5995 -0.5036
12652TIP3    H159447   2.603   2.615  12.872 -0.0995  0.7858  0.6134
12652TIP3    H259448   2.482   2.581  12.957 -0.2874 -2.4995 -0.8221
12653TIP3   OH259449   3.327   4.151   1.313  0.1926 -0.1349 -0.5044
12653TIP3    H159450   3.334   4.056   1.318 -0.3047 -0.1054  1.0768
12653TIP3    H259451   3.364   4.183   1.395 -0.2169  1.0082 -0.7391
12654TIP3   OH259452   0.923   2.135   0.604  0.4949 -0.7455  0.0803
12654TIP3    H159453   0.935   2.078   0.527  0.6006 -2.0445  1.0147
12654TIP3    H259454   0.888   2.216   0.568  3.0627 -0.2852 -1.6636
12655TIP3   OH259455   0.932   4.165   1.931  0.2539  0.2285 -0.3114
12655TIP3    H159456   0.878   4.189   2.006  1.3454  0.3365  0.4558
12655TIP3    H259457   1.003   4.229   1.931  0.8646 -0.4397 -0.7867
12656TIP3   OH259458   5.363   2.377  11.379  0.0444  0.0130 -0.1297
12656TIP3    H159459   5.396   2.287  11.376  0.4177  0.1580 -0.5262
12656TIP3    H259460   5.441   2.431  11.390  0.0980  0.4241 -2.1102
12657TIP3   OH259461   6.728   3.340   0.912  0.1079 -0.3695  0.2647
12657TIP3    H159462   6.635   3.327   0.934 -0.1081  1.7522  0.8295
12657TIP3    H259463   6.736   3.434   0.900  1.8285 -0.7131 -1.6509
12658TIP3   OH259464   3.336   2.053   0.350  0.5340  0.1310 -0.2363
12658TIP3    H159465   3.402   2.011   0.295  0.7266  2.4513 -1.9280
12658TIP3    H259466   3.266   2.077   0.289 -0.5912  0.2598  1.0598
12659TIP3   OH259467   0.400   4.634  11.940 -0.0800  0.5575 -0.3189
12659TIP3    H159468   0.481   4.618  11.892 -0.6717  0.2917 -1.2431
12659TIP3    H259469   0.407   4.725  11.969  0.0684  0.8842 -1.3506
12660TIP3   OH259470   5.857   1.118  16.311  0.1252  0.2938  0.0429
12660TIP3    H159471   5.867   1.035  16.358  0.4626  1.2474  1.7307
12660TIP3    H259472   5.770   1.149  16.336  0.5557  1.1105  0.5700
12661TIP3   OH259473   5.515   6.665   5.173  0.4154 -0.2746 -0.0768
12661TIP3    H159474   5.444   6.669   5.109 -0.2056 -0.2832  0.5876
12661TIP3    H259475   5.506   6.746   5.224  0.8937 -0.2699  0.0080
12662TIP3   OH259476   6.217   5.835   5.355 -0.2020 -1.2986 -0.5140
12662TIP3    H159477   6.268   5.833   5.436 -1.0965 -1.5764  0.0591
12662TIP3    H259478   6.278   5.866   5.289  0.1748  0.3892  0.5479
12663TIP3   OH259479   5.020   4.558   5.717 -0.2710 -0.1956  0.3103
12663TIP3    H159480   4.940   4.594   5.678 -0.0903 -0.7701 -0.6285
12663TIP3    H259481   5.036   4.477   5.668  1.7284  0.6855 -0.6059
12664TIP3   OH259482   4.323   3.394   0.682  0.0514 -0.6280  0.0123
12664TIP3    H159483   4.363   3.417   0.598 -1.0730  0.1672 -0.3363
12664TIP3    H259484   4.324   3.298   0.684 -0.7171 -0.6920 -1.3326
12665TIP3   OH259485   6.526   5.637   6.019  0.3917 -0.4828  0.6078
12665TIP3    H159486   6.608   5.624   6.066  0.5840 -1.9148 -0.0544
12665TIP3    H259487   6.492   5.548   6.006 -1.0460  0.0600  0.4915
12666TIP3   OH259488   3.075   0.034  13.630  0.1862  0.4106 -0.3838
12666TIP3    H159489   3.090   0.127  13.646  2.7269  0.1793 -0.9529
12666TIP3    H259490   3.001   0.011  13.687 -0.7769  2.8305 -0.5504
12667TIP3   OH259491   2.564   2.232  16.480  0.3555  0.9388  0.0235
12667TIP3    H159492   2.609   2.238  16.564  0.4391 -0.9427  0.1365
12667TIP3    H259493   2.486   2.287  16.491  0.8020  1.3853  1.0302
12668TIP3   OH259494   2.593   2.970   2.907  0.2288  0.0348  0.1075
12668TIP3    H159495   2.600   3.041   2.971 -0.2891 -0.5555  0.8372
12668TIP3    H259496   2.671   2.981   2.851  0.0557  1.2771  0.0758
12669TIP3   OH259497   2.129   0.746  12.851  0.7298 -0.1192 -0.2598
12669TIP3    H159498   2.118   0.750  12.946  0.7022  2.1658 -0.3047
12669TIP3    H259499   2.219   0.774  12.836  0.3552  0.8140 -0.9275
12670TIP3   OH259500   2.610   4.683   2.916 -0.2705  0.1585 -0.4366
12670TIP3    H159501   2.551   4.701   2.989 -0.2229 -2.6504  0.4061
12670TIP3    H259502   2.561   4.622   2.860  1.0411 -0.5990 -0.8038
12671TIP3   OH259503   5.460   6.485   0.807  0.5902 -0.2108 -0.3491
12671TIP3    H159504   5.389   6.548   0.804  0.9728  0.2070 -0.8398
12671TIP3    H259505   5.419   6.401   0.785 -0.1398 -0.3595  1.4294
12672TIP3   OH259506   3.292   4.847   2.095  0.3833 -0.3861  0.1509
12672TIP3    H159507   3.313   4.762   2.135  0.5876  0.4109  1.7910
12672TIP3    H259508   3.376   4.882   2.066  1.0704  1.3467  3.7963
12673TIP3   OH259509   4.848   1.562   2.893  0.4261  0.6990  0.2446
12673TIP3    H159510   4.753   1.569   2.887  0.2814 -0.3512  0.9978
12673TIP3    H259511   4.881   1.623   2.827 -0.7738  0.6595 -0.4198
12674TIP3   OH259512   1.702   2.060  16.021 -0.4847  0.0979 -0.4117
12674TIP3    H159513   1.748   2.043  15.939  1.9850 -0.4137  0.9740
12674TIP3    H259514   1.689   2.155  16.021  0.1415  0.1986 -1.1039
12675TIP3   OH259515   2.055   1.707   2.586 -0.2135  0.3655 -0.2114
12675TIP3    H159516   1.968   1.711   2.546 -0.8817  0.6370  1.1972
12675TIP3    H259517   2.114   1.685   2.514 -1.6846 -1.7391 -0.8546
12676TIP3   OH259518   2.655   4.272   3.192  0.0154 -0.3466  0.3105
12676TIP3    H159519   2.576   4.260   3.140 -1.1403  0.2048  1.8756
12676TIP3    H259520   2.641   4.219   3.270 -0.1408  2.0017  1.9843
12677TIP3   OH259521   3.260   1.820  11.971  0.5180  0.9413 -0.6040
12677TIP3    H159522   3.176   1.860  11.948  0.5351  0.4167 -1.6520
12677TIP3    H259523   3.274   1.754  11.903  1.5536  0.6966 -0.1676
12678TIP3   OH259524   4.880   4.710  13.288  0.0911  0.4983 -0.7393
12678TIP3    H159525   4.888   4.634  13.346 -0.8880  0.6533 -0.3817
12678TIP3    H259526   4.807   4.761  13.325 -0.6103  0.5554 -2.1515
12679TIP3   OH259527   0.884   5.338   0.253  0.2611  0.0739  0.0733
12679TIP3    H159528   0.835   5.262   0.284  1.3138 -1.3888 -1.6353
12679TIP3    H259529   0.822   5.411   0.258 -1.4638 -1.3176 -0.1941
12680TIP3   OH259530   1.235   0.343  10.554  0.2053  0.4006  0.0515
12680TIP3    H159531   1.179   0.375  10.483 -0.3118  0.6781  0.5806
12680TIP3    H259532   1.184   0.357  10.633 -0.1035 -1.8407  0.3058
12681TIP3   OH259533   6.060   5.629   2.703  0.1959 -0.1111 -0.1977
12681TIP3    H159534   6.007   5.623   2.782 -0.6563  0.7584 -0.6860
12681TIP3    H259535   6.007   5.587   2.635  0.7838 -0.5686 -0.3788
12682TIP3   OH259536   4.285   6.669   1.150  0.1344 -0.6107  0.1460
12682TIP3    H159537   4.302   6.579   1.123 -2.3323 -1.3691  0.9066
12682TIP3    H259538   4.302   6.670   1.244 -2.0849 -0.9732  0.6116
12683TIP3   OH259539   5.600   5.217  10.798  0.8953  0.1020 -0.2023
12683TIP3    H159540   5.553   5.300  10.790  2.0624  0.5968 -2.9969
12683TIP3    H259541   5.677   5.227  10.742  1.2744 -2.7168 -0.3395
12684TIP3   OH259542   6.025   4.145   1.283 -0.4482  0.0983  0.4857
12684TIP3    H159543   5.984   4.183   1.206  0.2023 -0.3795 -0.1080
12684TIP3    H259544   6.078   4.073   1.250  2.1942  1.6593  0.9678
12685TIP3   OH259545   4.553   5.792   6.156  0.7181 -0.3231 -0.1055
12685TIP3    H159546   4.559   5.834   6.070  1.0440 -0.5123 -0.1737
12685TIP3    H259547   4.495   5.849   6.206 -1.1800 -1.2898 -1.0930
12686TIP3   OH259548   4.301   0.248  16.222  0.4108  0.0474  0.0483
12686TIP3    H159549   4.220   0.296  16.238  1.0730  1.9118 -1.6729
12686TIP3    H259550   4.311   0.251  16.126  2.0431 -0.9253  0.1634
12687TIP3   OH259551   2.854   2.321  15.934 -0.2025  0.6122 -0.1502
12687TIP3    H159552   2.766   2.324  15.896  0.4632  0.7267 -1.7526
12687TIP3    H259553   2.854   2.243  15.988 -1.3324  0.6905 -0.0064
12688TIP3   OH259554   6.270   4.418   4.884  0.6576  0.0085 -0.4515
12688TIP3    H159555   6.250   4.512   4.886  0.8666  0.0438  0.3679
12688TIP3    H259556   6.365   4.414   4.881  0.6525 -0.1834 -0.3419
12689TIP3   OH259557   0.393   1.105   2.381 -0.1957  0.3226 -0.3121
12689TIP3    H159558   0.348   1.118   2.465 -0.8539  0.7401 -0.7164
12689TIP3    H259559   0.330   1.135   2.316  0.9143  1.4935 -0.8727
12690TIP3   OH259560   1.616   5.524  11.589 -0.5714  0.8580 -0.1483
12690TIP3    H159561   1.607   5.617  11.612  2.2165  0.9817  0.8890
12690TIP3    H259562   1.708   5.515  11.566 -1.3014 -1.2051 -2.7008
12691TIP3   OH259563   4.308   3.093   1.176 -0.4842 -0.2136 -0.9263
12691TIP3    H159564   4.307   3.139   1.260 -0.1528 -0.5200 -0.7536
12691TIP3    H259565   4.351   3.155   1.116  1.1106 -0.7602 -0.4128
12692TIP3   OH259566   3.692   2.742   3.688 -0.1244  0.0608 -0.4058
12692TIP3    H159567   3.717   2.792   3.611  0.4826  0.6477  0.1534
12692TIP3    H259568   3.770   2.693   3.711  0.0275  0.6603  0.4110
12693TIP3   OH259569   0.710   5.380  12.548  0.3087 -0.1752  0.4704
12693TIP3    H159570   0.784   5.440  12.556  1.1362 -1.1485  0.3554
12693TIP3    H259571   0.725   5.314  12.616 -0.0320 -0.8192 -0.0672
12694TIP3   OH259572   6.387   6.761   0.558  0.4667  0.0159  0.2044
12694TIP3    H159573   6.346   6.823   0.618  1.2526  0.7801 -0.0296
12694TIP3    H259574   6.323   6.690   0.549  0.0870  0.1653  1.4850
12695TIP3   OH259575   6.677   0.363   4.774  0.7932 -0.2281 -0.4281
12695TIP3    H159576   6.652   0.365   4.867 -1.6979 -1.8758 -0.9611
12695TIP3    H259577   6.675   0.270   4.751  1.7273  0.1246 -2.0744
12696TIP3   OH259578   0.520   0.123  15.420  0.1751 -0.2733  0.2380
12696TIP3    H159579   0.587   0.118  15.487  1.3753 -1.6104 -0.9810
12696TIP3    H259580   0.557   0.180  15.353 -0.5448  0.1899  0.2245
12697TIP3   OH259581   4.259   3.252  16.628 -0.1698 -0.5323  0.0045
12697TIP3    H159582   4.308   3.181  16.670  1.6919  0.5889 -0.1717
12697TIP3    H259583   4.248   3.317  16.697 -0.3881 -0.2698 -0.2787
12698TIP3   OH259584   0.794   1.813  14.965  0.1897 -0.1856 -0.0244
12698TIP3    H159585   0.876   1.862  14.967 -0.8754  1.7329 -0.9233
12698TIP3    H259586   0.820   1.725  14.936  1.9417  0.3364 -0.1672
12699TIP3   OH259587   6.211   2.277   4.262 -0.5545  0.5156 -0.5461
12699TIP3    H159588   6.156   2.296   4.185 -0.3258  0.7150 -0.6596
12699TIP3    H259589   6.297   2.311   4.239  0.1821 -1.5866 -1.2190
12700TIP3   OH259590   1.152   0.648   2.823 -0.4981  0.4109  0.4637
12700TIP3    H159591   1.139   0.555   2.805 -2.3062  0.6895  0.1618
12700TIP3    H259592   1.194   0.650   2.909  2.3419 -0.7359 -0.7659
12701TIP3   OH259593   5.050   0.418   2.198  0.5053 -0.0060  0.1893
12701TIP3    H159594   5.132   0.463   2.217  0.8564 -0.9192  0.9150
12701TIP3    H259595   4.994   0.437   2.272  1.5528 -2.8059  1.8671
12702TIP3   OH259596   6.405   0.230  13.107  0.0605 -0.0530  0.1409
12702TIP3    H159597   6.449   0.152  13.074 -0.7433 -0.0205 -1.0851
12702TIP3    H259598   6.456   0.303  13.074 -1.2861  0.0086 -1.9793
12703TIP3   OH259599   1.205   6.511  15.502 -0.4861  0.0588  0.1477
12703TIP3    H159600   1.297   6.520  15.526 -0.0620 -0.7762 -1.0797
12703TIP3    H259601   1.180   6.424  15.535 -0.9919  0.4918  0.9330
12704TIP3   OH259602   1.245   3.108  13.474 -0.4220 -0.2006  0.3329
12704TIP3    H159603   1.157   3.071  13.465 -0.7784 -0.1743  2.8839
12704TIP3    H259604   1.290   3.047  13.533  0.8900  0.3967 -0.0154
12705TIP3   OH259605   6.553   3.538  15.763 -0.4717  0.6603  0.7738
12705TIP3    H159606   6.615   3.468  15.785 -0.9415  0.2739  0.8970
12705TIP3    H259607   6.570   3.606  15.829  0.7116  1.1325  0.0186
12706TIP3   OH259608   1.125   0.694   5.876  0.0571  0.2673  0.1383
12706TIP3    H159609   1.147   0.721   5.965 -0.3003  1.3717 -0.0859
12706TIP3    H259610   1.029   0.700   5.873  0.1003  0.7032 -0.4562
12707TIP3   OH259611   1.753   5.247   5.483 -0.4875 -0.2938 -0.3821
12707TIP3    H159612   1.816   5.218   5.549  0.5617  0.3043 -1.1017
12707TIP3    H259613   1.691   5.174   5.476 -1.1133 -0.0542  1.8402
12708TIP3   OH259614   6.099   3.940  17.156 -0.1590  0.1077 -0.2474
12708TIP3    H159615   6.027   3.879  17.138 -0.1966 -0.0543  0.4260
12708TIP3    H259616   6.060   4.007  17.212  0.0895  0.3021 -0.3046
12709TIP3   OH259617   5.583   6.765   3.779  0.3758 -0.7125 -0.3847
12709TIP3    H159618   5.664   6.811   3.799  0.5925  0.2289 -3.0607
12709TIP3    H259619   5.610   6.689   3.729 -0.2881 -1.4580  0.3605
12710TIP3   OH259620   2.556   2.547  14.986  0.2312  0.2261 -0.3420
12710TIP3    H159621   2.628   2.520  14.929  0.8744 -1.2315  1.1071
12710TIP3    H259622   2.576   2.508  15.071 -1.8808  0.4054  0.2975
12711TIP3   OH259623   4.699   6.354   1.481  0.2551  0.0905  0.8279
12711TIP3    H159624   4.695   6.282   1.544  0.3361  1.7197  2.8161
12711TIP3    H259625   4.793   6.369   1.467  0.2423 -1.1617 -0.8313
12712TIP3   OH259626   0.695   6.273   0.547 -0.3470  0.2164 -0.0876
12712TIP3    H159627   0.611   6.268   0.501 -2.1745  2.0279  2.7883
12712TIP3    H259628   0.753   6.317   0.485 -1.3328 -1.3183 -2.2565
12713TIP3   OH259629   0.757   5.166   0.925  0.5880  0.2002  0.6380
12713TIP3    H159630   0.742   5.079   0.888  1.3414  0.2734  0.1511
12713TIP3    H259631   0.848   5.165   0.953  0.1443  0.2677  2.1972
12714TIP3   OH259632   6.273   1.990   5.777  0.3068  0.1281  0.3634
12714TIP3    H159633   6.311   2.017   5.693 -1.9481 -0.5170 -0.9473
12714TIP3    H259634   6.180   1.979   5.759 -0.1924 -0.4255  2.8839
12715TIP3   OH259635   0.416   5.755  13.765 -0.0397 -0.1085  0.4529
12715TIP3    H159636   0.333   5.801  13.775  0.2547  1.1247 -2.1398
12715TIP3    H259637   0.483   5.822  13.783  0.4111 -0.7193  1.1087
12716TIP3   OH259638   1.112   5.788   3.876 -0.2002  0.4550 -0.1835
12716TIP3    H159639   1.205   5.796   3.897  0.0647 -1.6775 -0.3504
12716TIP3    H259640   1.107   5.806   3.782  0.3786 -1.2805 -0.5852
12717TIP3   OH259641   3.884   4.269   2.854  0.0075 -0.2725  0.5135
12717TIP3    H159642   3.950   4.312   2.908  0.1557 -0.8310  0.7837
12717TIP3    H259643   3.825   4.340   2.828  0.5803  0.1921  0.4545
12718TIP3   OH259644   5.335   0.359   0.172  0.1029 -0.1659 -0.1047
12718TIP3    H159645   5.244   0.366   0.142 -0.0426 -0.0186  0.3712
12718TIP3    H259646   5.385   0.403   0.103 -0.1166 -0.7926 -0.6814
12719TIP3   OH259647   4.654   6.123  12.592 -0.3748 -0.3068 -0.0900
12719TIP3    H159648   4.684   6.138  12.503  1.6967  0.3237  0.6532
12719TIP3    H259649   4.613   6.036  12.590  2.6403 -1.8691 -1.0280
12720TIP3   OH259650   4.178   4.450  15.437 -0.3557 -0.0714 -0.1398
12720TIP3    H159651   4.195   4.443  15.343 -1.4637  0.6808 -0.4215
12720TIP3    H259652   4.124   4.373  15.457 -2.3154  1.0683 -0.7039
12721TIP3   OH259653   2.271   0.337   1.445 -0.3087 -1.0449  0.1059
12721TIP3    H159654   2.292   0.410   1.505  0.6194  0.9027 -2.3998
12721TIP3    H259655   2.200   0.371   1.391  0.7921 -1.5927 -1.7549
12722TIP3   OH259656   1.643   5.805  11.733  0.7980 -0.0843 -0.0089
12722TIP3    H159657   1.685   5.777  11.814  1.9844  0.6694 -0.3432
12722TIP3    H259658   1.608   5.892  11.752 -0.3102 -0.5328  0.1390
12723TIP3   OH259659   1.199   6.339   4.626  0.3334 -0.2622  0.4248
12723TIP3    H159660   1.268   6.340   4.692  1.1796 -1.1569 -0.4192
12723TIP3    H259661   1.246   6.332   4.543 -0.7140  0.6595 -0.2803
12724TIP3   OH259662   5.039   1.566   1.565  0.2596 -0.2779  0.0366
12724TIP3    H159663   5.067   1.526   1.483 -0.3152 -0.0176 -0.2889
12724TIP3    H259664   4.957   1.523   1.587 -0.3239  0.6445 -0.2748
12725TIP3   OH259665   6.736   5.708   2.390 -0.2181 -0.3986 -0.7385
12725TIP3    H159666   6.688   5.657   2.454  1.3682 -2.2067 -0.8890
12725TIP3    H259667   6.824   5.671   2.391 -0.4045 -1.4946 -4.8835
12726TIP3   OH259668   3.481   3.683   2.348 -0.5535  0.4804  0.2635
12726TIP3    H159669   3.478   3.738   2.426  0.9276 -0.8434  1.3229
12726TIP3    H259670   3.440   3.600   2.375 -1.7844  0.6347 -0.9782
12727TIP3   OH259671   0.749   6.517   3.201 -0.3831 -0.2816 -0.2792
12727TIP3    H159672   0.782   6.573   3.272  2.2780 -2.0072  0.0214
12727TIP3    H259673   0.773   6.563   3.121  0.5305 -0.3184 -0.0365
12728TIP3   OH259674   3.347   3.414  11.527 -0.8975 -0.5520 -0.1004
12728TIP3    H159675   3.382   3.337  11.481  0.1778  0.2975 -0.7600
12728TIP3    H259676   3.328   3.382  11.615  0.1822 -1.4248 -0.1490
12729TIP3   OH259677   3.526   5.363  12.263  0.3600 -0.3255  0.0886
12729TIP3    H159678   3.555   5.275  12.287  1.6855  0.1026  0.1586
12729TIP3    H259679   3.577   5.421  12.320 -1.9880  0.4515  1.5376
12730TIP3   OH259680   2.546   6.004  12.039 -0.6674 -0.4233  0.7959
12730TIP3    H159681   2.567   5.937  11.974  0.7744  0.2671  0.5228
12730TIP3    H259682   2.629   6.024  12.081 -1.3719  0.0256  2.0195
12731TIP3   OH259683   6.254   3.997  12.107  0.0050  0.4632  0.3348
12731TIP3    H159684   6.170   4.012  12.065 -0.3458 -0.7741  0.5596
12731TIP3    H259685   6.316   4.051  12.057 -0.7778  0.7609 -0.3296
12732TIP3   OH259686   3.671   0.933   3.483  0.5704 -0.3229 -0.1736
12732TIP3    H159687   3.738   1.000   3.500  2.4701 -2.0503 -0.3932
12732TIP3    H259688   3.681   0.912   3.390 -1.6687  0.7323 -0.7124
12733TIP3   OH259689   6.227   1.294   3.691  0.2502 -0.4833 -0.2129
12733TIP3    H159690   6.320   1.294   3.711  0.3258  1.7037 -0.3331
12733TIP3    H259691   6.205   1.386   3.677 -1.8767 -0.9669 -0.4565
12734TIP3   OH259692   4.087   5.271   2.054 -0.1852  0.0598 -0.7537
12734TIP3    H159693   4.153   5.334   2.083  0.2709  0.2728 -2.1873
12734TIP3    H259694   4.013   5.284   2.114  0.4047  1.0350 -0.2161
12735TIP3   OH259695   4.802   4.309   3.844 -0.9775  0.1778  0.2740
12735TIP3    H159696   4.740   4.311   3.772 -0.6704 -0.3043 -0.0101
12735TIP3    H259697   4.852   4.228   3.831  2.1302  2.1828 -1.5557
12736TIP3   OH259698   4.762   1.384  15.135  0.0156 -0.1637 -0.3311
12736TIP3    H159699   4.688   1.393  15.195 -0.0245 -1.3291 -0.1786
12736TIP3    H259700   4.835   1.356  15.190 -0.1734 -1.8619 -0.8680
12737TIP3   OH259701   1.647   4.880  11.838 -0.3463 -0.4255  0.0621
12737TIP3    H159702   1.581   4.818  11.868 -0.8120 -0.3842 -0.8535
12737TIP3    H259703   1.598   4.960  11.818  0.0383 -0.2547 -0.2101
12738TIP3   OH259704   0.550   2.180  10.916 -0.5290  0.0723 -0.6819
12738TIP3    H159705   0.644   2.172  10.904 -0.4494 -0.4043  0.1764
12738TIP3    H259706   0.538   2.259  10.969 -0.5803 -0.0295 -0.5379
12739TIP3   OH259707   3.317   0.053   5.076  0.3534  0.2533  0.3483
12739TIP3    H159708   3.360   0.077   5.158  0.4803 -0.1368  0.3993
12739TIP3    H259709   3.224   0.046   5.099  0.2944  0.8524  0.2943
12740TIP3   OH259710   0.908   5.649   0.575 -0.6091  0.0010  0.5171
12740TIP3    H159711   0.837   5.699   0.533 -0.8813 -0.7025  0.1047
12740TIP3    H259712   0.986   5.672   0.525 -0.8842 -0.6162 -0.2322
12741TIP3   OH259713   5.701   3.161  16.158 -0.4338 -0.0256  0.2431
12741TIP3    H159714   5.793   3.179  16.140 -0.1955 -2.6831 -1.8926
12741TIP3    H259715   5.699   3.137  16.251  0.8599  0.9219  0.5385
12742TIP3   OH259716   3.740   2.813  10.775 -0.3299 -0.4631 -0.0646
12742TIP3    H159717   3.791   2.889  10.746 -0.4956 -0.3844 -0.1507
12742TIP3    H259718   3.682   2.848  10.843 -0.6804 -0.4289 -0.3769
12743TIP3   OH259719   2.612   1.083   1.834 -0.4519  0.3176  0.1177
12743TIP3    H159720   2.592   1.108   1.744  0.7644 -0.9453 -0.5328
12743TIP3    H259721   2.576   0.995   1.843  1.8802 -0.7218 -0.0773
12744TIP3   OH259722   4.198   2.774   0.504 -0.8286  0.3013  0.3081
12744TIP3    H159723   4.186   2.679   0.500  0.4067  0.1652 -2.1301
12744TIP3    H259724   4.274   2.786   0.562 -0.9708 -0.1856  0.6041
12745TIP3   OH259725   1.265   3.519   1.107  0.0182  0.0501  0.0029
12745TIP3    H159726   1.286   3.496   1.017  1.0840  0.5972  0.1052
12745TIP3    H259727   1.344   3.561   1.141 -0.4151 -0.0175  1.1486
12746TIP3   OH259728   6.631   2.807   2.586  0.4191  0.2565  0.2908
12746TIP3    H159729   6.604   2.782   2.675 -0.8272  0.5671  0.0142
12746TIP3    H259730   6.695   2.877   2.600  0.7849 -0.1868  0.9524
12747TIP3   OH259731   0.178   1.043  13.341  0.6562 -0.0197 -0.6634
12747TIP3    H159732   0.204   0.956  13.310  0.9388 -0.1575 -0.0505
12747TIP3    H259733   0.146   1.088  13.262 -0.8124 -1.1448 -0.7490
12748TIP3   OH259734   4.689   1.891   0.500 -0.1836 -0.0824  0.0852
12748TIP3    H159735   4.676   1.810   0.549 -0.8856  0.6735  1.2001
12748TIP3    H259736   4.613   1.944   0.522 -2.1282 -0.7550 -4.0829
12749TIP3   OH259737   0.593   6.510  15.084  0.0572 -0.0229 -0.2874
12749TIP3    H159738   0.508   6.551  15.068  0.3307  0.6755  0.0560
12749TIP3    H259739   0.657   6.579  15.066  0.5483 -0.4922 -0.3655
12750TIP3   OH259740   5.652   1.097   1.387 -0.3290  0.2612  0.3068
12750TIP3    H159741   5.705   1.017   1.388  0.5980  0.8538 -0.3859
12750TIP3    H259742   5.612   1.100   1.475 -0.0200 -0.7137  0.4935
12751TIP3   OH259743   5.247   3.856  10.736  0.0657  0.2980 -0.4351
12751TIP3    H159744   5.298   3.814  10.667  0.6636  0.9842 -0.4134
12751TIP3    H259745   5.306   3.919  10.776  0.0459 -0.7144  1.3376
12752TIP3   OH259746   3.086   5.793   5.222  0.4235  0.3120 -0.0450
12752TIP3    H159747   3.068   5.875   5.177 -2.4264 -0.4547 -0.4649
12752TIP3    H259748   3.116   5.820   5.309  0.0917  1.8052 -0.3665
12753TIP3   OH259749   1.361   2.826   6.446  0.0789  0.1493 -0.0174
12753TIP3    H159750   1.305   2.748   6.445 -0.0129  0.1992  0.8027
12753TIP3    H259751   1.337   2.874   6.366 -2.1338  0.9164  1.0182
12754TIP3   OH259752   4.859   3.573  11.804  0.3505 -0.5871  0.0100
12754TIP3    H159753   4.947   3.552  11.836  1.0533  0.6930 -0.9854
12754TIP3    H259754   4.866   3.567  11.709  0.0346  1.8717 -0.2154
12755TIP3   OH259755   5.247   6.361  12.969 -0.3416  0.0836  0.0859
12755TIP3    H159756   5.257   6.402  13.055 -1.0346 -2.5045  1.5177
12755TIP3    H259757   5.156   6.379  12.944 -0.3201  0.3175  0.1711
12756TIP3   OH259758   6.675   3.604   0.009  0.1236 -0.4198 -0.0040
12756TIP3    H159759   6.615   3.673  -0.021  0.7056 -0.2106 -0.7107
12756TIP3    H259760   6.649   3.527  -0.041 -0.6704 -0.7804  0.9450
12757TIP3   OH259761   0.521   6.148  16.247  0.5075  0.7133  0.0011
12757TIP3    H159762   0.532   6.177  16.157  1.7917  1.8586  0.4912
12757TIP3    H259763   0.453   6.206  16.283 -0.3962 -0.0940 -0.3478
12758TIP3   OH259764   1.096   3.561   0.014  0.1658  0.3046  0.0636
12758TIP3    H159765   1.037   3.630  -0.017  0.7319  1.2475  1.0177
12758TIP3    H259766   1.038   3.498   0.056 -0.4498 -0.2682 -1.5668
12759TIP3   OH259767   1.216   4.390   4.873  0.2469  0.3300 -0.1012
12759TIP3    H159768   1.169   4.447   4.812 -0.5890  0.6089  0.7912
12759TIP3    H259769   1.242   4.315   4.820 -1.1779  0.1750 -0.6184
12760TIP3   OH259770   0.033   1.674   6.133 -0.4626 -0.3303  0.3781
12760TIP3    H159771  -0.033   1.666   6.202 -1.8627 -2.8461 -1.1227
12760TIP3    H259772   0.093   1.602   6.148  0.8273  0.7273  0.5037
12761TIP3   OH259773   2.957   6.136  11.944  0.0370 -0.1580  0.4782
12761TIP3    H159774   2.927   6.085  12.019  0.2752 -0.9807  0.0378
12761TIP3    H259775   3.041   6.174  11.972 -0.6300  0.8534  1.1653
12762TIP3   OH259776   3.182   0.369  14.634 -0.1859  0.2994 -0.1514
12762TIP3    H159777   3.208   0.406  14.549 -0.3317  0.1497 -0.2614
12762TIP3    H259778   3.155   0.280  14.614  1.2809 -0.2709  0.2910
12763TIP3   OH259779   3.455   2.527  14.491  0.4723 -0.0635  0.3786
12763TIP3    H159780   3.457   2.455  14.554  1.3783 -0.4774 -0.1083
12763TIP3    H259781   3.390   2.500  14.426  0.8036 -0.4460  0.2016
12764TIP3   OH259782   0.687   5.645  14.057  0.5332 -0.0255  0.1652
12764TIP3    H159783   0.750   5.647  13.985  2.4936 -0.8894  1.7539
12764TIP3    H259784   0.690   5.555  14.089 -2.4763 -0.4377 -0.4187
12765TIP3   OH259785   5.609   3.659  14.758  0.2344 -0.3248  0.1865
12765TIP3    H159786   5.544   3.663  14.828  0.3960 -0.1845  0.3292
12765TIP3    H259787   5.611   3.748  14.723  2.1945  0.3777  1.8662
12766TIP3   OH259788   5.416   1.281   1.908  0.1180  0.5295 -0.3401
12766TIP3    H159789   5.421   1.340   1.983 -0.2489  0.1127  0.0109
12766TIP3    H259790   5.458   1.200   1.937 -0.4940  0.1828 -0.4020
12767TIP3   OH259791   1.897   5.520   4.975 -0.3031  0.1813  0.3587
12767TIP3    H159792   1.960   5.451   5.000 -1.9388 -1.0947  1.1524
12767TIP3    H259793   1.888   5.573   5.054  0.7759  1.2272 -0.1820
12768TIP3   OH259794   1.402   1.002   3.068  0.2153 -0.4660  0.1886
12768TIP3    H159795   1.369   1.046   2.990  1.3073  2.0186  1.0239
12768TIP3    H259796   1.367   1.053   3.141  1.2119 -1.2361  1.2333
12769TIP3   OH259797   3.701   3.551  12.361  0.1522  0.5171 -0.3550
12769TIP3    H159798   3.721   3.640  12.391 -0.0946  1.0043 -1.5636
12769TIP3    H259799   3.733   3.549  12.271 -1.8052  0.1125 -1.0898
12770TIP3   OH259800   0.918   5.107   2.231  0.2257  0.6498 -0.0653
12770TIP3    H159801   0.996   5.146   2.271  0.9244  0.9212 -1.6300
12770TIP3    H259802   0.933   5.013   2.237 -0.0531  0.6589  0.9951
12771TIP3   OH259803   3.309   5.574   2.683  0.0852 -0.2541  0.0965
12771TIP3    H159804   3.311   5.489   2.727 -1.5940 -0.6285 -0.4545
12771TIP3    H259805   3.361   5.562   2.605  3.5641  0.5720  2.0773
12772TIP3   OH259806   1.621   3.304   0.410 -0.5097 -0.1280 -0.5694
12772TIP3    H159807   1.561   3.296   0.485  0.4348 -0.2399  0.1871
12772TIP3    H259808   1.581   3.371   0.355  0.0119  1.7659  1.2407
12773TIP3   OH259809   4.477   4.653   2.384 -0.1958 -0.5863  0.1176
12773TIP3    H159810   4.497   4.583   2.446 -0.6820  0.9125  2.0648
12773TIP3    H259811   4.394   4.690   2.415 -0.6313  0.0079 -1.6462
12774TIP3   OH259812   2.659   6.327  13.300 -0.1917  0.2216  0.2150
12774TIP3    H159813   2.599   6.263  13.261 -1.0236 -0.8150  2.9999
12774TIP3    H259814   2.602   6.388  13.346  0.7747  0.1134  1.6211
12775TIP3   OH259815   3.012   1.313  15.846 -0.4530 -0.0356 -0.1943
12775TIP3    H159816   3.043   1.329  15.935 -0.3381 -2.2434  0.2154
12775TIP3    H259817   2.966   1.230  15.851  0.7849 -0.9446 -2.4757
12776TIP3   OH259818   0.585   5.006   4.055 -0.2899  0.4339  0.5828
12776TIP3    H159819   0.590   5.072   4.124 -0.0077 -0.5397  1.5279
12776TIP3    H259820   0.518   4.944   4.086  1.1455 -1.0233  0.9267
12777TIP3   OH259821   4.512   6.148   0.990 -0.3224  0.5091 -0.1354
12777TIP3    H159822   4.522   6.055   0.971  1.4675  0.0156  2.5823
12777TIP3    H259823   4.426   6.156   1.031 -0.8080  0.2204 -1.0808
12778TIP3   OH259824   3.382   4.007  15.315  0.0184  0.0751  0.0365
12778TIP3    H159825   3.460   3.980  15.267 -0.8450  0.1233 -1.4640
12778TIP3    H259826   3.319   3.936  15.301  0.5678 -1.3049  3.4578
12779TIP3   OH259827   1.314   3.171   1.392  0.3482  0.5911  0.0563
12779TIP3    H159828   1.356   3.202   1.312  1.6787  1.0380  0.9042
12779TIP3    H259829   1.362   3.091   1.414  0.3965  0.8112  0.7481
12780TIP3   OH259830   1.568   2.989   2.439  0.2674  0.3006  0.1397
12780TIP3    H159831   1.590   2.907   2.484  0.2533  0.1291 -0.1610
12780TIP3    H259832   1.520   3.040   2.504 -0.3250 -0.2148  0.1184
12781TIP3   OH259833   3.150   5.139   1.627 -0.1995  0.2034 -0.0209
12781TIP3    H159834   3.083   5.102   1.685 -1.5178  0.7942 -1.1106
12781TIP3    H259835   3.231   5.096   1.655 -1.2456 -1.6449  0.3924
12782TIP3   OH259836   0.906   3.408  13.541 -0.2676  0.3421 -0.0242
12782TIP3    H159837   0.921   3.371  13.628 -0.3575 -0.9066 -0.5225
12782TIP3    H259838   0.938   3.499  13.548  1.1878 -0.1993  0.8667
12783TIP3   OH259839   1.225   4.278  14.401  0.2991  0.0523 -0.2337
12783TIP3    H159840   1.239   4.326  14.320  0.9867  1.1884  0.5363
12783TIP3    H259841   1.191   4.343  14.463  0.6105 -0.5855  0.6339
12784TIP3   OH259842   1.478   3.715  14.976 -0.4358  0.0119  0.3971
12784TIP3    H159843   1.534   3.647  14.939 -0.4023  1.0788 -1.6551
12784TIP3    H259844   1.494   3.711  15.070  2.2300 -0.4921 -0.0012
12785TIP3   OH259845   5.398   0.514   3.759 -0.3616  0.3707 -0.0862
12785TIP3    H159846   5.472   0.512   3.698 -1.9501  1.1017 -2.1811
12785TIP3    H259847   5.378   0.421   3.774 -0.4623  0.1454 -1.4323
12786TIP3   OH259848   2.514   1.181  16.210 -0.6858  0.1591  0.2420
12786TIP3    H159849   2.598   1.205  16.170 -0.5641 -2.1892 -1.0666
12786TIP3    H259850   2.450   1.235  16.164 -0.0458  1.0100  0.3226
12787TIP3   OH259851   3.235   2.119   5.393  0.5720 -0.1384  0.2744
12787TIP3    H159852   3.274   2.206   5.395 -0.8798  0.5486 -0.3306
12787TIP3    H259853   3.251   2.087   5.304 -0.6299  0.3403 -0.1234
12788TIP3   OH259854   2.011   4.860   2.610  0.8872  0.0154  0.0376
12788TIP3    H159855   1.956   4.916   2.665 -1.3966 -1.6667 -0.3562
12788TIP3    H259856   2.073   4.821   2.671  0.6794  0.8240  0.7944
12789TIP3   OH259857   1.023   1.169  13.758 -0.4465 -0.0934  0.0389
12789TIP3    H159858   1.055   1.087  13.719 -0.7445 -0.1858 -0.0110
12789TIP3    H259859   1.018   1.151  13.852  0.6419  0.2506  0.1768
12790TIP3   OH259860   1.069   2.612   2.254 -0.3153 -0.1868 -0.0481
12790TIP3    H159861   1.023   2.592   2.172 -0.8838 -1.3201  0.5271
12790TIP3    H259862   1.157   2.577   2.240  0.6156  2.4352 -1.3435
12791TIP3   OH259863   4.833   1.531  15.756  0.1020 -0.2690  0.0041
12791TIP3    H159864   4.835   1.436  15.761 -1.7062 -0.3543 -0.2482
12791TIP3    H259865   4.772   1.550  15.684 -1.8535  1.0492  1.8709
12792TIP3   OH259866   6.050   2.819  13.349  0.5049 -0.3154 -0.0915
12792TIP3    H159867   6.132   2.831  13.396 -0.2813  2.5934  0.7455
12792TIP3    H259868   6.055   2.880  13.276 -0.6351 -0.5899 -0.4203
12793TIP3   OH259869   5.214   6.262   3.282 -0.2461 -0.0900  0.0856
12793TIP3    H159870   5.233   6.341   3.232 -1.7007  0.7880  0.8475
12793TIP3    H259871   5.153   6.213   3.228  0.4700 -0.6034 -0.2788
12794TIP3   OH259872   5.649   3.321  10.646 -0.1074 -0.5302  0.6642
12794TIP3    H159873   5.728   3.363  10.612 -0.7093  0.3087  0.2654
12794TIP3    H259874   5.632   3.365  10.729 -1.0958  0.4842 -0.0536
12795TIP3   OH259875   2.775   2.926   2.592  0.1824 -0.1670 -0.1331
12795TIP3    H159876   2.778   2.997   2.656 -2.1566  1.9513 -2.1735
12795TIP3    H259877   2.808   2.964   2.511  0.4084 -1.9290 -0.9291
12796TIP3   OH259878   4.761   5.705   5.383  0.0090  0.1983 -0.0053
12796TIP3    H159879   4.699   5.636   5.405  1.2363 -0.9873 -0.1647
12796TIP3    H259880   4.736   5.733   5.295 -0.2739 -0.2838 -0.0818
12797TIP3   OH259881   2.621   1.362  11.332  0.4798 -0.1432  0.7941
12797TIP3    H159882   2.703   1.411  11.326  0.8175 -0.8336 -0.8989
12797TIP3    H259883   2.637   1.282  11.281 -1.0468 -0.5885  0.9567
12798TIP3   OH259884   0.911   4.673  16.821 -0.3875  0.0091  0.4334
12798TIP3    H159885   0.954   4.722  16.891 -2.1012 -0.0184  1.5626
12798TIP3    H259886   0.821   4.706  16.819 -0.6010 -0.5429 -1.2598
12799TIP3   OH259887   5.475   5.778   6.173  0.0765 -0.3720  0.6422
12799TIP3    H159888   5.531   5.854   6.192  0.9495 -1.0005  0.6220
12799TIP3    H259889   5.496   5.755   6.082 -0.3095 -0.5340  0.5940
12800TIP3   OH259890   4.690   6.139   4.172  0.2532 -0.6728 -0.0227
12800TIP3    H159891   4.653   6.211   4.223  1.8348  0.7270 -0.7565
12800TIP3    H259892   4.720   6.181   4.091 -0.1487 -2.4434 -1.1357
12801TIP3   OH259893   4.997   0.219  12.813  0.0919  0.3641  0.4074
12801TIP3    H159894   4.970   0.181  12.897 -1.0187  1.3549  0.5172
12801TIP3    H259895   5.072   0.165  12.786 -1.6479 -2.1992  0.3503
12802TIP3   OH259896   2.906   5.869   3.121  0.5026  0.1668 -0.6342
12802TIP3    H159897   2.877   5.903   3.037  1.0951  0.6994 -0.6301
12802TIP3    H259898   2.854   5.789   3.134  0.9520 -0.3334 -1.8475
12803TIP3   OH259899   0.432   2.436   3.539  0.3910 -0.0248  0.3925
12803TIP3    H159900   0.393   2.457   3.624 -1.1039 -0.8623 -0.0520
12803TIP3    H259901   0.357   2.418   3.482  1.3997 -0.4132 -0.8550
12804TIP3   OH259902   2.451   3.433   2.295 -0.2465  0.6367  0.3386
12804TIP3    H159903   2.386   3.363   2.293 -0.7995  1.1615 -0.3709
12804TIP3    H259904   2.515   3.409   2.229 -1.2592  1.5521 -1.0380
12805TIP3   OH259905   1.878   6.659  16.671 -0.4681  0.8352 -0.4386
12805TIP3    H159906   1.931   6.592  16.713  2.8062  1.5188 -3.0580
12805TIP3    H259907   1.914   6.742  16.702 -1.4928  1.3593 -0.6050
12806TIP3   OH259908   0.657   6.523   2.085 -0.2030 -0.0425  0.3401
12806TIP3    H159909   0.625   6.565   2.165 -1.6651  0.7873 -0.6276
12806TIP3    H259910   0.639   6.587   2.016 -0.1820 -1.2603 -0.8300
12807TIP3   OH259911   5.932   6.131  12.239  0.0133  0.4997  0.3954
12807TIP3    H159912   5.928   6.183  12.160  0.0951 -0.2797 -0.1354
12807TIP3    H259913   5.877   6.177  12.302 -0.8247  0.6098 -0.4119
12808TIP3   OH259914   2.759   4.970  13.018  0.1683  0.4727  0.4232
12808TIP3    H159915   2.818   4.956  13.092  0.9282 -0.4937 -0.3508
12808TIP3    H259916   2.671   4.965  13.057  0.5050  3.3402  1.8591
12809TIP3   OH259917   2.063   5.984   0.459  0.8578  0.0523  0.3246
12809TIP3    H159918   1.981   5.940   0.481  0.3679  0.0963 -1.3357
12809TIP3    H259919   2.063   6.063   0.514 -1.8097  1.7709 -1.8876
12810TIP3   OH259920   0.176   5.122  12.866  0.7105  0.7736 -0.1910
12810TIP3    H159921   0.192   5.059  12.797 -1.9309  0.5542 -0.7171
12810TIP3    H259922   0.155   5.203  12.820 -2.2815  0.3224  0.1780
12811TIP3   OH259923   6.735   0.641  11.169 -0.2125 -0.3518  0.1401
12811TIP3    H159924   6.787   0.721  11.177  0.6027 -1.0248  2.5896
12811TIP3    H259925   6.753   0.609  11.081  0.9601  1.1395 -0.2082
12812TIP3   OH259926   5.858   2.518   1.711  0.3508 -0.0104 -0.0982
12812TIP3    H159927   5.924   2.582   1.736 -1.1337  0.7456  2.1352
12812TIP3    H259928   5.834   2.542   1.621  2.6142  0.0353 -0.7623
12813TIP3   OH259929   2.832   5.139  15.779  0.3288 -0.6757 -0.6389
12813TIP3    H159930   2.737   5.147  15.769  0.4015  3.3647  0.4518
12813TIP3    H259931   2.868   5.183  15.702  1.1977  1.4920  0.9323
12814TIP3   OH259932   1.514   4.745  15.929 -0.0538 -0.4142 -0.1323
12814TIP3    H159933   1.552   4.830  15.906 -2.1044  0.6611  0.2509
12814TIP3    H259934   1.572   4.710  15.997  1.9125 -0.2624 -1.6432
12815TIP3   OH259935   3.310   5.803   1.219 -0.4911 -0.0926  0.3352
12815TIP3    H159936   3.313   5.837   1.309  2.0329  2.4891 -0.5674
12815TIP3    H259937   3.344   5.714   1.226 -1.7772 -0.4905  2.1048
12816TIP3   OH259938   4.629   1.476  15.923  0.5382  1.2483 -0.3831
12816TIP3    H159939   4.545   1.480  15.878 -0.0217  0.2474  0.5335
12816TIP3    H259940   4.687   1.531  15.870 -0.4280  1.1505 -1.5899
12817TIP3   OH259941   1.373   6.391  12.157  0.3621 -0.1660  0.1927
12817TIP3    H159942   1.462   6.399  12.123 -0.0777  1.6145 -0.6384
12817TIP3    H259943   1.385   6.381  12.252  1.4360  0.8499  0.1921
12818TIP3   OH259944   5.230   1.480   3.356  0.1346 -0.2083 -0.4164
12818TIP3    H159945   5.140   1.448   3.364  0.3937 -0.4877  3.2616
12818TIP3    H259946   5.283   1.400   3.349  0.3357 -0.4359  2.4814
12819TIP3   OH259947   2.686   1.635  13.127  0.2090 -0.4743  0.5179
12819TIP3    H159948   2.739   1.556  13.112  0.6764 -0.1188  0.2747
12819TIP3    H259949   2.716   1.697  13.061  0.1122  0.0440  0.9527
12820TIP3   OH259950   6.112   2.401  15.500 -0.1588  0.2646 -0.0496
12820TIP3    H159951   6.110   2.496  15.484  1.7165  0.2070 -0.9945
12820TIP3    H259952   6.058   2.389  15.578 -0.5224  2.0960  0.0453
12821TIP3   OH259953   4.944   1.507  11.986  0.3863 -0.2041  0.5230
12821TIP3    H159954   5.019   1.449  11.974  1.1769  1.0919 -1.1827
12821TIP3    H259955   4.883   1.481  11.917 -0.7842 -1.2226  1.8726
12822TIP3   OH259956   0.903   5.811  15.600 -0.0956  0.1637  0.0650
12822TIP3    H159957   0.890   5.894  15.644  1.5575  0.5633 -0.1196
12822TIP3    H259958   0.949   5.834  15.519  0.7383 -0.9493  0.2012
12823TIP3   OH259959   2.113   5.231   3.102  0.0046 -0.0072 -0.3784
12823TIP3    H159960   2.103   5.135   3.099 -0.3368  0.0098  0.2167
12823TIP3    H259961   2.045   5.261   3.163  1.4640  0.4145  1.1147
12824TIP3   OH259962   5.688   4.997   0.953  0.3558  0.3657  0.5815
12824TIP3    H159963   5.652   4.945   0.881  2.5187 -0.2908 -0.1120
12824TIP3    H259964   5.627   5.070   0.962 -0.6699 -0.2186 -1.0583
12825TIP3   OH259965   6.706   2.947  11.196  0.8340 -0.2529 -0.6264
12825TIP3    H159966   6.654   3.027  11.205 -0.6973 -1.4063  2.0461
12825TIP3    H259967   6.672   2.904  11.118  0.5299  0.8777 -1.1369
12826TIP3   OH259968   5.451   3.819   1.875 -0.7230 -0.6084 -0.2723
12826TIP3    H159969   5.383   3.833   1.809 -0.1171  1.2885 -0.5649
12826TIP3    H259970   5.533   3.820   1.825 -0.3183  0.0033  0.3840
12827TIP3   OH259971   5.261   3.703  15.758  1.2718  0.1806  0.1348
12827TIP3    H159972   5.335   3.683  15.701  0.3023 -1.3683 -0.6476
12827TIP3    H259973   5.187   3.712  15.699  0.4868 -0.1513  1.0580
12828TIP3   OH259974   1.786   3.494  16.945 -0.6983 -0.4780 -0.0591
12828TIP3    H159975   1.756   3.567  16.999  2.4511  0.1528  1.0987
12828TIP3    H259976   1.825   3.432  17.007  2.7387  0.1154 -1.3782
12829TIP3   OH259977   5.657   4.923  14.181  0.8377  0.1041 -0.2757
12829TIP3    H159978   5.712   4.984  14.230  1.5902 -0.8605  0.1206
12829TIP3    H259979   5.686   4.931  14.090  1.3757 -0.1170 -0.1279
12830TIP3   OH259980   4.894   5.102   1.702  0.1237  0.0743 -0.1171
12830TIP3    H159981   4.986   5.129   1.710 -0.4740  2.2364  0.1476
12830TIP3    H259982   4.866   5.088   1.793  0.1327 -0.3671 -0.1827
12831TIP3   OH259983   5.552   3.401  11.614 -0.3821 -0.1687 -0.0577
12831TIP3    H159984   5.589   3.369  11.696  0.2678 -1.2496 -0.7478
12831TIP3    H259985   5.622   3.451  11.573  0.0082 -1.3250 -0.8691
12832TIP3   OH259986   1.519   2.974   1.445  0.0913  0.5268 -0.7064
12832TIP3    H159987   1.550   2.924   1.520 -2.4047 -0.3266 -0.1510
12832TIP3    H259988   1.572   2.942   1.371 -0.6798 -2.2153 -0.1827
12833TIP3   OH259989   4.730   5.867  15.649  0.5202 -0.1663 -0.5638
12833TIP3    H159990   4.802   5.806  15.662  0.8117 -0.2380 -2.2468
12833TIP3    H259991   4.754   5.915  15.569 -0.1852  1.4516  0.1429
12834TIP3   OH259992   2.189   6.170   1.028 -0.3825  0.0651 -0.1185
12834TIP3    H159993   2.156   6.187   0.940 -1.2423 -1.0125 -0.0289
12834TIP3    H259994   2.274   6.128   1.014 -0.8450 -0.7790 -0.4766
12835TIP3   OH259995   0.950   4.880   1.667 -0.0328  0.0783 -0.3638
12835TIP3    H159996   0.952   4.909   1.758 -0.2206 -0.9714 -0.0094
12835TIP3    H259997   0.860   4.851   1.653  0.1597 -0.3922 -0.6747
12836TIP3   OH259998   2.362   2.287  13.159 -0.1053 -0.5176 -0.6623
12836TIP3    H159999   2.455   2.289  13.139  0.3144  0.2314  1.1781
12836TIP3    H260000   2.340   2.193  13.161  0.8418 -0.7429 -0.2003
12837TIP3   OH260001   5.156   4.012  13.270 -0.0457 -0.1193 -0.3943
12837TIP3    H160002   5.218   4.023  13.342  2.1421 -0.7114 -2.0672
12837TIP3    H260003   5.109   3.931  13.291 -1.1366  0.9024  1.4376
12838TIP3   OH260004   1.422   5.023  15.499  0.3255  0.1254  0.3165
12838TIP3    H160005   1.444   5.103  15.547 -0.0397  0.1838  0.3895
12838TIP3    H260006   1.469   4.953  15.545 -1.2681 -0.0616  1.7454
12839TIP3   OH260007   1.324   1.432  15.035  0.7574 -0.1564 -0.4121
12839TIP3    H160008   1.415   1.409  15.051  0.0666 -1.8131  1.5853
12839TIP3    H260009   1.285   1.353  14.998 -0.6427 -0.8660  2.2905
12840TIP3   OH260010   2.281   5.005   2.739  0.7608 -0.3380 -0.0711
12840TIP3    H160011   2.361   4.987   2.789  0.6890 -0.4321  0.0099
12840TIP3    H260012   2.241   4.919   2.728  0.2068 -0.1860  0.6688
12841TIP3   OH260013   0.506   3.745   5.643 -0.5429  0.3202 -0.4152
12841TIP3    H160014   0.487   3.768   5.734  2.9251 -0.7718  0.7504
12841TIP3    H260015   0.517   3.650   5.645 -0.5332  0.2653 -2.0337
12842TIP3   OH260016   6.180   6.600  12.468 -0.9634 -0.4597  0.3844
12842TIP3    H160017   6.214   6.653  12.539 -1.0098  0.0281  0.0460
12842TIP3    H260018   6.119   6.539  12.510 -0.4541 -0.6493  0.8487
12843TIP3   OH260019   5.224   5.026  10.459 -0.7007 -0.1734  0.0053
12843TIP3    H160020   5.165   5.005  10.532  1.4837 -0.0431  1.9588
12843TIP3    H260021   5.312   5.014  10.496  0.5287  0.6929 -2.4168
12844TIP3   OH260022   0.642   3.790   2.776  0.5127  0.3883 -0.1436
12844TIP3    H160023   0.571   3.831   2.826  0.4645 -1.1117  1.0964
12844TIP3    H260024   0.597   3.744   2.705  0.4358  1.0819 -0.5580
12845TIP3   OH260025   0.892   4.672  11.626  0.3089 -0.1091 -0.1798
12845TIP3    H160026   0.982   4.657  11.597 -0.1382 -2.0002 -0.7332
12845TIP3    H260027   0.843   4.687  11.546  0.2196  1.8261  0.1733
12846TIP3   OH260028   4.313   3.230   5.298 -0.3188  0.0723  0.6655
12846TIP3    H160029   4.323   3.278   5.380 -0.2490  0.7400  0.2787
12846TIP3    H260030   4.399   3.236   5.256 -0.8429  1.3501 -0.2958
12847TIP3   OH260031   0.628   0.357   3.199 -1.0330 -0.0681  0.0067
12847TIP3    H160032   0.618   0.298   3.125 -1.8669  0.7377 -0.5376
12847TIP3    H260033   0.636   0.300   3.275  1.1791 -0.9662 -0.8062
12848TIP3   OH260034   5.001   2.613  11.675  0.0103  0.3864  0.5725
12848TIP3    H160035   5.091   2.642  11.655 -0.4109  1.0664 -0.4126
12848TIP3    H260036   4.994   2.527  11.633  0.1661  0.3830  0.5501
12849TIP3   OH260037   0.696   6.497   1.246  0.2585 -0.3695  0.2866
12849TIP3    H160038   0.763   6.498   1.178 -1.5986 -1.4186 -1.6905
12849TIP3    H260039   0.661   6.587   1.246  1.5148  0.1500  1.2480
12850TIP3   OH260040   0.701   5.197  13.696  0.4486  0.2773  0.3997
12850TIP3    H160041   0.611   5.183  13.725 -0.5893 -1.2140 -3.0529
12850TIP3    H260042   0.711   5.292  13.694 -1.4113  0.4890 -0.1234
12851TIP3   OH260043   5.329   2.645   3.505 -0.0445 -0.3175  0.2477
12851TIP3    H160044   5.295   2.730   3.478  1.1220 -0.1539 -0.8410
12851TIP3    H260045   5.337   2.651   3.600 -0.9286  0.4104  0.2896
12852TIP3   OH260046   1.852   2.181   1.322  0.2866  0.0035 -0.1309
12852TIP3    H160047   1.813   2.246   1.263  1.6811  0.5901 -0.4543
12852TIP3    H260048   1.778   2.132   1.357 -0.6533  0.3638 -1.5462
12853TIP3   OH260049   4.677   6.526   3.383  0.0935 -0.4568  0.1170
12853TIP3    H160050   4.674   6.537   3.288  0.2912  0.4991  0.2106
12853TIP3    H260051   4.739   6.454   3.397  0.4207 -0.2927 -0.4534
12854TIP3   OH260052   0.964   0.233   5.068  0.3256 -0.1370 -0.1816
12854TIP3    H160053   0.887   0.184   5.097 -0.0242 -0.5646 -1.7267
12854TIP3    H260054   0.985   0.289   5.142 -1.1951 -0.3369  0.4601
12855TIP3   OH260055   6.591   5.702  16.039  0.4632 -0.0834  0.6120
12855TIP3    H160056   6.515   5.697  15.981 -1.2638 -2.0714  2.8451
12855TIP3    H260057   6.559   5.748  16.117  1.9632  0.3188  1.0157
12856TIP3   OH260058   0.672   1.437  13.323  0.0447  0.4913  0.5648
12856TIP3    H160059   0.602   1.375  13.345  0.4508  0.3091  1.3894
12856TIP3    H260060   0.750   1.383  13.316 -0.2024  0.3707 -2.4463
12857TIP3   OH260061   1.776   6.151  13.282  0.0667 -0.0537 -0.2110
12857TIP3    H160062   1.724   6.188  13.353  1.3056  1.1978  0.0799
12857TIP3    H260063   1.834   6.088  13.325  2.1148  2.0351  0.2368
12858TIP3   OH260064   5.508   2.994   5.160 -0.4945 -0.1215  0.5680
12858TIP3    H160065   5.437   3.041   5.205 -0.4417  0.0394  0.4824
12858TIP3    H260066   5.563   3.063   5.123 -1.2333 -0.2392 -0.8443
12859TIP3   OH260067   0.263   4.221  15.616  0.4547 -0.2167 -0.2638
12859TIP3    H160068   0.323   4.292  15.594  0.2737 -0.5237 -1.9225
12859TIP3    H260069   0.318   4.143  15.619  0.6607 -0.0270  1.6049
12860TIP3   OH260070   6.498   1.228  16.670 -0.4225 -0.1206  0.3636
12860TIP3    H160071   6.545   1.180  16.602 -1.5251 -0.4455 -0.1864
12860TIP3    H260072   6.563   1.239  16.740  0.8363  0.4895 -0.8331
12861TIP3   OH260073   1.992   1.338   0.061 -0.2292 -0.2540 -0.0971
12861TIP3    H160074   2.002   1.361   0.153 -0.7915 -0.4185  0.0079
12861TIP3    H260075   1.915   1.386   0.032 -0.2538 -0.4683 -0.3923
12862TIP3   OH260076   4.522   4.002   0.091  0.0493 -0.5618  0.5195
12862TIP3    H160077   4.590   4.034   0.031  0.0378 -0.2307  0.6811
12862TIP3    H260078   4.465   3.949   0.036 -1.9183  2.4356 -0.5951
12863TIP3   OH260079   4.393   2.588   0.403 -0.3350 -0.1841 -0.3913
12863TIP3    H160080   4.397   2.679   0.432  0.4304 -0.4800  0.4392
12863TIP3    H260081   4.404   2.593   0.308  0.6898  0.5159 -0.2482
12864TIP3   OH260082   3.071   3.412  11.908 -0.3770  0.3719  0.4771
12864TIP3    H160083   3.004   3.344  11.906 -0.4595  0.4671 -0.2980
12864TIP3    H260084   3.062   3.458  11.824  2.3802 -1.2920 -0.8734
12865TIP3   OH260085   0.587   5.813  15.969 -0.0450  0.1775 -0.0624
12865TIP3    H160086   0.625   5.797  16.055 -2.7667  0.7138  1.3769
12865TIP3    H260087   0.652   5.867  15.924  1.2459  0.3500  1.8663
12866TIP3   OH260088   6.749   6.792  11.078 -0.1419 -0.2684  0.7450
12866TIP3    H160089   6.831   6.829  11.109 -0.2093  0.0395  0.5698
12866TIP3    H260090   6.746   6.816  10.985  0.3931 -1.7735  0.3164
12867TIP3   OH260091   2.794   1.360  11.745  0.0490  0.1717 -0.5768
12867TIP3    H160092   2.715   1.394  11.703  0.1010  0.2774 -0.5903
12867TIP3    H260093   2.853   1.436  11.750  0.2955  0.0076 -0.9202
12868TIP3   OH260094   6.800   2.999  10.706 -0.0906  0.2368  0.4651
12868TIP3    H160095   6.709   2.990  10.733 -0.0564 -1.6901  0.0847
12868TIP3    H260096   6.799   3.068  10.639 -1.4680 -0.5598 -0.3621
12869TIP3   OH260097   0.081   5.159   1.957  0.4234 -0.0123  0.0575
12869TIP3    H160098   0.102   5.105   2.033 -1.5365  2.5292  2.6349
12869TIP3    H260099   0.147   5.229   1.958  0.9910 -0.5002 -1.2575
12870TIP3   OH260100   3.293   3.760   5.172 -0.2304  0.1819  0.2836
12870TIP3    H160101   3.288   3.673   5.134 -2.9174 -0.2831  1.4270
12870TIP3    H260102   3.249   3.752   5.257 -0.7242  2.6714  0.3512
12871TIP3   OH260103   3.640   4.489  16.483  0.0798  0.0832 -0.4369
12871TIP3    H160104   3.710   4.440  16.440 -0.8477 -0.0398 -1.8974
12871TIP3    H260105   3.639   4.574  16.439 -0.5362  0.1614 -0.2901
12872TIP3   OH260106   1.967   5.621   0.214  0.2877  0.5299 -0.5702
12872TIP3    H160107   1.876   5.649   0.221  0.2846  0.5277 -0.6008
12872TIP3    H260108   2.017   5.693   0.252  0.2170  0.1368  0.2873
12873TIP3   OH260109   5.768   1.764  13.635 -0.0693  0.0921 -0.2250
12873TIP3    H160110   5.819   1.709  13.575  0.6739  1.1377 -0.5759
12873TIP3    H260111   5.695   1.795  13.581 -0.2147 -0.1513 -0.1680
12874TIP3   OH260112   6.055   2.309   4.037  0.0311 -0.3133  0.0440
12874TIP3    H160113   5.991   2.371   4.002 -0.6637 -0.4930  0.9583
12874TIP3    H260114   6.019   2.223   4.017 -0.3307 -0.4189  1.0948
12875TIP3   OH260115   0.776   5.644  13.787 -0.1915  0.4125  0.4709
12875TIP3    H160116   0.721   5.585  13.736  0.4568  0.2519 -0.0590
12875TIP3    H260117   0.822   5.697  13.722 -0.1681  0.9615  0.9205
12876TIP3   OH260118   0.163   6.069  15.911 -0.0879  0.1584  0.2935
12876TIP3    H160119   0.142   6.066  16.004  0.0935  2.2725  0.4396
12876TIP3    H260120   0.146   6.159  15.885  2.2420  0.2751 -1.1319
12877TIP3   OH260121   1.355   6.398  11.176 -0.4887 -0.1378 -0.1655
12877TIP3    H160122   1.364   6.492  11.190 -1.5287  0.0805 -0.8515
12877TIP3    H260123   1.355   6.387  11.081 -1.5726 -0.6792 -0.1288
12878TIP3   OH260124   4.726   3.514  14.486 -0.4632 -0.2451  0.1121
12878TIP3    H160125   4.698   3.425  14.465  2.9411 -1.0984 -1.4615
12878TIP3    H260126   4.758   3.508  14.576 -0.1015 -0.6749 -0.0403
12879TIP3   OH260127   4.470   4.599   2.090 -0.2325  0.0744  0.3374
12879TIP3    H160128   4.444   4.566   2.176 -0.8798 -0.1371  0.0712
12879TIP3    H260129   4.414   4.675   2.076 -0.0421  0.1792  0.1604
12880TIP3   OH260130   0.631   3.857  14.000 -0.0143  0.6971  0.3756
12880TIP3    H160131   0.721   3.884  14.019 -0.3970  0.8854  2.0655
12880TIP3    H260132   0.579   3.935  14.016 -0.8414 -0.2558  2.8439
12881TIP3   OH260133   4.157   2.433  16.717 -0.4165 -0.2060 -0.3280
12881TIP3    H160134   4.143   2.355  16.770 -1.1144 -0.3122 -0.6610
12881TIP3    H260135   4.069   2.460  16.689 -0.2081  0.7855 -0.0883
12882TIP3   OH260136   3.052   1.287  17.220  0.0291 -0.1158 -0.0977
12882TIP3    H160137   3.032   1.380  17.221  0.5915  0.0036  0.5667
12882TIP3    H260138   3.007   1.254  17.142 -0.2156  0.6956 -0.3115
12883TIP3   OH260139   0.944   2.641  13.180 -0.2582 -0.2100 -0.3601
12883TIP3    H160140   0.928   2.647  13.086 -1.4580  0.7315 -0.1152
12883TIP3    H260141   0.890   2.710  13.218  1.2310  0.2941  0.9230
12884TIP3   OH260142   1.632   3.654   0.374 -0.1942  0.3546 -0.0782
12884TIP3    H160143   1.608   3.654   0.467 -1.4006  1.7750 -0.3465
12884TIP3    H260144   1.555   3.689   0.329 -0.2551 -1.7961 -1.8330
12885TIP3   OH260145   4.411   0.362   5.221 -0.1270  0.3772  0.4328
12885TIP3    H160146   4.400   0.452   5.253 -0.4167 -0.2966  2.3726
12885TIP3    H260147   4.338   0.314   5.259  1.0429 -1.0624  0.9603
12886TIP3   OH260148   1.921   3.708   0.576  0.4129  0.3402  0.4283
12886TIP3    H160149   1.831   3.675   0.574  0.7170 -0.6082  1.4655
12886TIP3    H260150   1.912   3.803   0.583 -0.4982  0.2890  0.0658
12887TIP3   OH260151   5.955   4.533   4.200  0.1294  0.0335  0.1684
12887TIP3    H160152   5.913   4.570   4.278 -3.7229 -1.3662 -0.9994
12887TIP3    H260153   5.965   4.440   4.220  0.0570 -0.1493 -0.6189
12888TIP3   OH260154   0.704   5.193  15.771 -0.4325 -0.1194 -0.1126
12888TIP3    H160155   0.663   5.252  15.707  0.8876 -1.8346 -2.7223
12888TIP3    H260156   0.781   5.241  15.801 -0.4430  0.2773 -0.6946
12889TIP3   OH260157   5.867   2.174  12.390  0.9070 -0.7537 -0.6196
12889TIP3    H160158   5.817   2.208  12.316  0.4461  0.5166  0.2356
12889TIP3    H260159   5.825   2.091  12.412 -1.5231  0.7208  0.6788
12890TIP3   OH260160   6.197   0.367  10.721  0.1547 -0.5478 -0.5345
12890TIP3    H160161   6.214   0.273  10.725 -1.7478 -0.8899  1.2388
12890TIP3    H260162   6.283   0.407  10.712  1.0766 -2.4164 -0.5098
12891TIP3   OH260163   3.382   3.508   2.551 -0.2265 -0.0911 -0.2079
12891TIP3    H160164   3.296   3.497   2.592  0.2924  1.1127  1.3129
12891TIP3    H260165   3.442   3.460   2.609  0.4806  1.4178  0.3571
12892TIP3   OH260166   2.329   6.169   3.797 -0.1168 -0.3777  0.0231
12892TIP3    H160167   2.381   6.173   3.877  1.8838 -1.0025 -1.1680
12892TIP3    H260168   2.393   6.156   3.727 -1.8690 -0.8969 -1.5834
12893TIP3   OH260169   3.216   2.683  13.789 -0.0859  0.1153 -0.1398
12893TIP3    H160170   3.216   2.773  13.819 -4.1084  0.1518  0.2738
12893TIP3    H260171   3.236   2.631  13.867  0.3704  0.5371  0.0303
12894TIP3   OH260172   3.006   5.384  14.907 -0.8252 -0.1082 -0.1738
12894TIP3    H160173   3.095   5.391  14.872 -1.3002  0.3240 -1.3851
12894TIP3    H260174   3.017   5.355  14.997  0.5596  0.3047 -0.1852
12895TIP3   OH260175   3.334   3.863   1.191 -0.8379 -0.2678  0.5466
12895TIP3    H160176   3.368   3.776   1.214 -0.1599  0.1892  1.3342
12895TIP3    H260177   3.262   3.878   1.252 -2.6306 -1.2685 -1.1715
12896TIP3   OH260178   5.473   6.417  11.364  0.6017 -0.2017  0.4739
12896TIP3    H160179   5.528   6.423  11.286 -0.7860  1.8794 -0.4545
12896TIP3    H260180   5.435   6.330  11.360  1.4314 -0.5346 -0.5594
12897TIP3   OH260181   1.609   4.864   1.465  0.0448 -0.0914  0.2651
12897TIP3    H160182   1.684   4.825   1.509 -0.9310 -0.8364  1.3267
12897TIP3    H260183   1.633   4.956   1.453  2.2306 -0.8274 -1.9479
12898TIP3   OH260184   2.909   3.626   6.134 -0.0171 -0.0073 -0.0484
12898TIP3    H160185   2.862   3.643   6.215  0.4212  1.3316 -0.0507
12898TIP3    H260186   2.841   3.603   6.071 -0.3728 -0.9058  0.6434
12899TIP3   OH260187   2.466   6.746  14.572  1.0110  0.6711 -0.4913
12899TIP3    H160188   2.408   6.812  14.611  1.1590  0.7662 -0.4317
12899TIP3    H260189   2.450   6.754  14.478  0.8661  0.6410 -0.4696
12900TIP3   OH260190   0.961   4.822  13.537  0.1146 -0.1465 -0.0496
12900TIP3    H160191   0.892   4.777  13.585 -0.6404  1.6086  0.5781
12900TIP3    H260192   1.037   4.765  13.546 -0.5550 -0.8603  1.5016
12901TIP3   OH260193   4.577   5.040   5.676  0.2751  0.3000  0.0107
12901TIP3    H160194   4.628   5.022   5.597 -1.2208 -0.2600 -0.8558
12901TIP3    H260195   4.542   5.128   5.663 -0.6891 -0.1274 -0.3717
12902TIP3   OH260196   5.450   4.125  11.607  0.6179  0.1063  0.1861
12902TIP3    H160197   5.515   4.158  11.545  0.2393  0.5584  0.0169
12902TIP3    H260198   5.494   4.126  11.692  0.3741  1.8749  0.3370
12903TIP3   OH260199   3.159   0.915   0.144 -0.2406  0.4992  0.2247
12903TIP3    H160200   3.216   0.849   0.186  0.8600  1.4666  0.3092
12903TIP3    H260201   3.072   0.896   0.178 -0.0587 -1.2768 -0.1980
12904TIP3   OH260202   3.871   0.286  15.948  0.7144  0.0115  0.0776
12904TIP3    H160203   3.876   0.340  15.870 -0.1673  0.9824  0.6554
12904TIP3    H260204   3.778   0.286  15.971  0.8181 -1.0497  0.5914
12905TIP3   OH260205   4.811   2.092   5.473  0.9613 -0.0521  0.1321
12905TIP3    H160206   4.770   2.163   5.423  0.5234  0.0886  0.6868
12905TIP3    H260207   4.872   2.052   5.411 -0.5068 -0.7199 -0.9673
12906TIP3   OH260208   5.130   6.211  16.430  0.2214  0.0325 -0.5560
12906TIP3    H160209   5.138   6.306  16.444 -2.6719  0.2119  0.4926
12906TIP3    H260210   5.194   6.192  16.362  1.1865  2.6522 -0.5235
12907TIP3   OH260211   4.775   3.317  12.294  0.0669 -0.3990  0.1040
12907TIP3    H160212   4.804   3.408  12.301  3.3595 -1.3141 -0.1264
12907TIP3    H260213   4.679   3.322  12.299  0.1762  2.8098  2.7820
12908TIP3   OH260214   2.419   1.348  16.791  0.0181 -0.1642 -0.0925
12908TIP3    H160215   2.418   1.416  16.724  0.5067 -0.7467 -0.7084
12908TIP3    H260216   2.401   1.267  16.742  0.1536 -0.5667  0.5196
12909TIP3   OH260217   0.930   4.150   5.612  0.2606 -0.2536  0.3254
12909TIP3    H160218   0.886   4.077   5.567  1.3542 -1.1052  0.6008
12909TIP3    H260219   0.882   4.228   5.584 -0.4394 -0.9944 -0.6009
12910TIP3   OH260220   5.997   4.782  15.856 -0.1562 -0.3991 -0.4063
12910TIP3    H160221   6.010   4.833  15.776  1.5566 -1.5463 -0.9255
12910TIP3    H260222   5.947   4.705  15.828 -0.1287 -0.4737 -0.2530
12911TIP3   OH260223   5.574   5.630   5.490  0.0529 -0.6666 -0.2369
12911TIP3    H160224   5.487   5.591   5.493 -1.0210  1.4688 -1.3457
12911TIP3    H260225   5.571   5.700   5.556  0.6628 -0.0833 -0.8103
12912TIP3   OH260226   1.268   5.358   1.893  0.0568 -0.9917  0.1475
12912TIP3    H160227   1.323   5.392   1.964 -0.6164  0.6819 -0.0782
12912TIP3    H260228   1.187   5.331   1.937 -1.1476  1.8471 -0.0949
12913TIP3   OH260229   6.760   3.578   3.970  0.1190 -1.5655 -0.1558
12913TIP3    H160230   6.764   3.489   3.935 -0.7035 -1.7465  0.1860
12913TIP3    H260231   6.667   3.595   3.980  0.2887 -0.8281  0.2013
12914TIP3   OH260232   4.902   0.358  14.099 -0.3607 -0.0393  0.1507
12914TIP3    H160233   4.813   0.323  14.108 -0.5651  0.3907 -0.1861
12914TIP3    H260234   4.924   0.342  14.007 -0.8443  1.6015 -0.2916
12915TIP3   OH260235   1.498   2.829   2.184 -0.4093  0.1875  1.1564
12915TIP3    H160236   1.503   2.851   2.277 -0.5512  1.5336  0.8603
12915TIP3    H260237   1.431   2.760   2.179  0.3293 -0.6359  2.1563
12916TIP3   OH260238   0.837   0.127  15.800 -0.0717  0.2204 -0.4488
12916TIP3    H160239   0.852   0.038  15.832 -0.4922  0.2831 -0.0487
12916TIP3    H260240   0.878   0.184  15.866 -3.5598  0.4718  1.7657
12917TIP3   OH260241   4.572   2.343   0.066  0.7642  0.4388  0.3461
12917TIP3    H160242   4.658   2.373   0.035 -0.2378  0.5242 -2.6306
12917TIP3    H260243   4.563   2.255   0.028 -0.4779  0.4522  0.5956
12918TIP3   OH260244   1.571   4.762  15.493 -0.0751 -0.1079  0.3760
12918TIP3    H160245   1.551   4.717  15.575 -2.7020  0.7467  0.2720
12918TIP3    H260246   1.510   4.725  15.430  0.5359  0.6933 -0.7187
12919TIP3   OH260247   6.340   5.996   5.169 -0.2496  0.2291 -0.2458
12919TIP3    H160248   6.416   6.018   5.115 -0.2310  0.2100 -0.2280
12919TIP3    H260249   6.274   6.062   5.146 -0.2776  0.1594 -0.3661
12920TIP3   OH260250   3.518   5.519   4.566 -0.1596  0.2639 -0.5158
12920TIP3    H160251   3.472   5.556   4.491 -0.3639  3.2940  0.9553
12920TIP3    H260252   3.457   5.455   4.602 -1.4506  1.1582 -1.0473
12921TIP3   OH260253   4.584   5.827   1.918 -0.6323 -0.2121 -0.1841
12921TIP3    H160254   4.490   5.844   1.910 -1.1163 -2.6743 -0.3643
12921TIP3    H260255   4.600   5.752   1.861  1.2067 -0.6321  0.8242
12922TIP3   OH260256   6.202   0.251  15.291  0.1053 -0.1524  0.1028
12922TIP3    H160257   6.175   0.296  15.371  1.6752  0.2103  0.4539
12922TIP3    H260258   6.297   0.251  15.294  0.1709 -1.7401 -0.8897
12923TIP3   OH260259   0.607   1.039  16.345  0.2290  0.6319 -0.0562
12923TIP3    H160260   0.677   1.037  16.279  1.3605  0.5975  1.0917
12923TIP3    H260261   0.533   0.996  16.304  1.3792 -0.6954 -0.8026
12924TIP3   OH260262   4.434   0.275  12.276  0.6954 -0.3651 -0.3665
12924TIP3    H160263   4.341   0.265  12.255  0.4047  0.1702  0.6244
12924TIP3    H260264   4.439   0.357  12.324  1.1581 -2.0767  2.7282
12925TIP3   OH260265   2.297   6.391  14.309  0.2231  0.6768  0.3298
12925TIP3    H160266   2.388   6.361  14.309  0.2071  0.6012  1.0429
12925TIP3    H260267   2.246   6.311  14.326  0.0064  0.6744 -0.3263
12926TIP3   OH260268   6.607   2.286  11.814  0.3148  0.4448  0.1984
12926TIP3    H160269   6.687   2.314  11.769 -0.2063  0.5830 -0.6732
12926TIP3    H260270   6.573   2.216  11.759 -1.6177  2.2096 -0.9946
12927TIP3   OH260271   3.440   3.966  12.121  0.1238  0.1070  0.2707
12927TIP3    H160272   3.500   4.040  12.129 -0.4388  0.7120 -0.8304
12927TIP3    H260273   3.439   3.946  12.027 -2.5012  1.1076 -0.0151
12928TIP3   OH260274   3.252   0.785  16.828  0.2171 -0.7456 -0.3421
12928TIP3    H160275   3.176   0.727  16.824 -0.2864 -0.0244 -1.2600
12928TIP3    H260276   3.235   0.853  16.763  1.5543 -0.4600 -0.4190
12929TIP3   OH260277   6.306   2.372  10.601  0.4214 -0.8377 -0.8730
12929TIP3    H160278   6.374   2.393  10.665  0.8687  2.6668 -2.3082
12929TIP3    H260279   6.354   2.328  10.530  0.9888  0.3314 -1.2422
12930TIP3   OH260280   2.442   1.446  16.533  0.1222  0.1343  0.1395
12930TIP3    H160281   2.428   1.540  16.533 -0.3687  0.0981  1.7263
12930TIP3    H260282   2.375   1.411  16.474  0.9904  0.8299 -1.2979
12931TIP3   OH260283   3.337   3.575   4.246  0.0626 -0.1035  0.1561
12931TIP3    H160284   3.375   3.514   4.182 -0.2168  0.1621 -0.2673
12931TIP3    H260285   3.389   3.561   4.325  0.0747 -0.8168  0.0367
12932TIP3   OH260286   2.031   2.337   1.129 -0.0068 -0.2098  0.0489
12932TIP3    H160287   2.026   2.313   1.222  1.0988 -2.0961 -0.3192
12932TIP3    H260288   1.986   2.421   1.123 -1.5273 -0.8089  2.0140
12933TIP3   OH260289   1.665   3.669  15.931 -0.0907 -0.0430 -0.1373
12933TIP3    H160290   1.707   3.590  15.895  0.7550  1.0395 -1.6405
12933TIP3    H260291   1.595   3.689  15.868  0.3870  0.9977 -0.3455
12934TIP3   OH260292   1.428   6.321  14.116  0.5701  0.0601 -0.4039
12934TIP3    H160293   1.489   6.379  14.161 -1.5414  2.9850 -1.0511
12934TIP3    H260294   1.370   6.288  14.185  1.3083 -0.7150 -0.1411
12935TIP3   OH260295   4.708   4.390   4.571  0.3168  0.7150 -0.5397
12935TIP3    H160296   4.624   4.361   4.605  0.6239  1.3158  0.7876
12935TIP3    H260297   4.771   4.327   4.608  0.5809  0.9775 -0.5453
12936TIP3   OH260298   6.718   3.162   2.319 -0.2864 -0.6434  0.1579
12936TIP3    H160299   6.764   3.079   2.310  0.7626 -0.5355  3.3168
12936TIP3    H260300   6.750   3.199   2.401 -2.5436  1.7227  0.1218
12937TIP3   OH260301   4.779   0.562  11.359 -0.3361  0.3624 -0.2890
12937TIP3    H160302   4.763   0.540  11.267 -0.1444  1.0006 -0.4839
12937TIP3    H260303   4.863   0.609  11.358  1.5258 -2.6368  0.6530
12938TIP3   OH260304   2.494   5.246  12.967  0.5687  0.1213  0.2209
12938TIP3    H160305   2.525   5.336  12.973  0.0919  0.3516 -0.6481
12938TIP3    H260306   2.478   5.220  13.058 -1.7995  1.8079  0.3816
12939TIP3   OH260307   4.084   0.248  14.128 -0.6763 -0.0296 -0.2916
12939TIP3    H160308   4.144   0.310  14.088 -0.6135  0.4893  0.5755
12939TIP3    H260309   4.020   0.303  14.174 -0.9186 -0.5961  0.0630
12940TIP3   OH260310   1.806   0.224  15.913 -0.2607 -0.4412 -0.3997
12940TIP3    H160311   1.738   0.260  15.970 -0.0153 -1.7149  0.7555
12940TIP3    H260312   1.801   0.277  15.834 -2.0170  0.0620 -0.0102
12941TIP3   OH260313   2.791   2.269  17.045 -0.2027  0.3189  0.0824
12941TIP3    H160314   2.856   2.332  17.013 -0.3853 -0.4447 -1.9299
12941TIP3    H260315   2.720   2.324  17.079 -0.4776  1.2620 -1.8519
12942TIP3   OH260316   0.101   4.024   5.989  0.0744 -0.4010 -0.0618
12942TIP3    H160317   0.113   4.042   5.896 -1.8302  2.7437  0.1738
12942TIP3    H260318   0.056   4.101   6.023 -0.0942 -1.8256  3.3206
12943TIP3   OH260319   0.911   3.669   3.996  0.1823 -0.2595 -0.4292
12943TIP3    H160320   0.938   3.588   3.953  0.5987 -0.1457 -0.3881
12943TIP3    H260321   0.845   3.706   3.938 -0.2383 -0.7883 -0.2898
12944TIP3   OH260322   1.172   3.022   5.836 -0.5071  0.1984 -0.1618
12944TIP3    H160323   1.093   3.076   5.842 -0.7471 -0.3461  2.8083
12944TIP3    H260324   1.244   3.081   5.860 -0.0200  0.4895 -2.1221
12945TIP3   OH260325   2.403   0.337   0.881  0.2238  0.8484 -0.4707
12945TIP3    H160326   2.344   0.322   0.807  0.0306 -0.2931 -0.1046
12945TIP3    H260327   2.473   0.391   0.845  0.7622 -0.6832 -1.8044
12946TIP3   OH260328   6.447   2.454  14.933 -0.3472  0.4101 -0.2257
12946TIP3    H160329   6.489   2.453  14.846 -1.7742 -0.3916 -0.9392
12946TIP3    H260330   6.452   2.546  14.961  0.8617  0.5356 -0.7660
12947TIP3   OH260331   0.384   3.503   5.115 -0.2549 -0.0948  0.1280
12947TIP3    H160332   0.320   3.574   5.119 -0.0584  0.0381  1.9331
12947TIP3    H260333   0.444   3.521   5.187  0.9892 -1.0069 -0.6426
12948TIP3   OH260334   0.604   6.783  10.753  0.0544 -0.2559  0.5515
12948TIP3    H160335   0.608   6.800  10.659 -2.7525 -1.1933  0.1727
12948TIP3    H260336   0.631   6.692  10.762  1.1895  0.0807  0.8283
12949TIP3   OH260337   0.288   0.371  16.373 -0.4603 -0.7610 -0.0891
12949TIP3    H160338   0.215   0.313  16.395 -0.3236 -2.4537 -3.4233
12949TIP3    H260339   0.366   0.320  16.394 -0.2562 -0.1149  0.7535
12950TIP3   OH260340   4.730   5.725  13.300 -0.2751  0.9685 -0.2512
12950TIP3    H160341   4.803   5.787  13.297 -1.1482  2.1077  0.8160
12950TIP3    H260342   4.770   5.642  13.328  0.9841  0.8643 -2.1395
12951TIP3   OH260343   1.899   3.854  15.980  0.0876  0.1179 -0.1833
12951TIP3    H160344   1.841   3.780  15.961 -1.2472  0.9267  0.5399
12951TIP3    H260345   1.938   3.832  16.065  0.5203 -0.2409 -0.4753
12952TIP3   OH260346   4.254   5.893   1.509  0.5164  0.4817 -0.4161
12952TIP3    H160347   4.326   5.935   1.557 -0.8476 -0.0743  2.3123
12952TIP3    H260348   4.188   5.961   1.502 -0.1410 -0.0471  0.4752
12953TIP3   OH260349   6.116   6.160   5.150 -0.2742 -0.1790  0.3965
12953TIP3    H160350   6.071   6.081   5.178  0.7266 -2.1572 -2.9395
12953TIP3    H260351   6.059   6.197   5.082  1.0053 -0.2737 -0.7803
12954TIP3   OH260352   1.347   4.286   4.138  0.4933  0.0246  0.0741
12954TIP3    H160353   1.333   4.192   4.127  2.4843 -0.2510 -0.5707
12954TIP3    H260354   1.263   4.326   4.117 -0.1742 -1.5628 -0.3972
12955TIP3   OH260355   5.189   0.621   2.328  0.1432  0.5160  0.0352
12955TIP3    H160356   5.207   0.696   2.385 -1.5409  1.9177 -1.1637
12955TIP3    H260357   5.253   0.628   2.258 -0.1098  0.9429 -0.1567
12956TIP3   OH260358   3.665   5.828  12.586  0.5165 -0.2267  0.1233
12956TIP3    H160359   3.743   5.777  12.562  0.1842 -0.6210 -0.1456
12956TIP3    H260360   3.636   5.868  12.504 -1.1301 -2.2846 -0.3863
12957TIP3   OH260361   1.361   2.110   3.987  0.3736  0.0071 -0.0020
12957TIP3    H160362   1.341   2.047   4.057  0.6345  0.1569  0.2106
12957TIP3    H260363   1.306   2.083   3.914 -1.2588  0.9307  0.8513
12958TIP3   OH260364   2.629   1.691   2.486 -0.1954 -0.3249  0.1552
12958TIP3    H160365   2.667   1.679   2.573  1.0775 -1.3641 -0.5057
12958TIP3    H260366   2.674   1.769   2.451 -0.4717 -0.1004  0.2935
12959TIP3   OH260367   5.190   1.009  12.087 -0.5879  0.2011  0.2899
12959TIP3    H160368   5.285   1.025  12.087 -0.8030  1.8012 -1.2170
12959TIP3    H260369   5.155   1.073  12.149 -0.6742 -0.6284  1.1148
12960TIP3   OH260370   5.926   5.000   6.793  0.0478  0.2339  0.7782
12960TIP3    H160371   5.956   4.930   6.735  0.6813  0.5084  0.7696
12960TIP3    H260372   5.832   4.984   6.803  0.1939 -0.6549  0.8273
12961TIP3   OH260373   4.412   2.268   0.340 -0.3843  0.1897 -0.1213
12961TIP3    H160374   4.355   2.340   0.314 -0.0567  0.8196  0.8494
12961TIP3    H260375   4.473   2.258   0.267 -1.4180 -0.1757 -0.9587
12962TIP3   OH260376   0.304   2.791  15.406 -0.2169  0.4083  0.2225
12962TIP3    H160377   0.349   2.856  15.352  1.1570 -1.2664 -0.7312
12962TIP3    H260378   0.362   2.776  15.480  0.6284 -1.3694 -0.7399
12963TIP3   OH260379   2.871   0.674  10.420 -0.4981  0.7762  0.2382
12963TIP3    H160380   2.924   0.657  10.497  3.3586 -0.2301 -2.3356
12963TIP3    H260381   2.866   0.769  10.414 -1.0715  0.8633  1.7838
12964TIP3   OH260382   4.616   2.664  13.198  0.1741  0.1106  0.2948
12964TIP3    H160383   4.523   2.650  13.216 -0.4517  3.4337  0.2134
12964TIP3    H260384   4.659   2.647  13.282 -0.7640  0.4067  0.8558
12965TIP3   OH260385   4.390   1.437   2.337 -0.2319  0.0352  0.0715
12965TIP3    H160386   4.449   1.444   2.412 -0.3927  1.9118  0.0692
12965TIP3    H260387   4.304   1.423   2.376 -0.3504  1.2406  0.2796
12966TIP3   OH260388   0.606   0.983   0.121 -0.1208 -0.1136  0.1392
12966TIP3    H160389   0.553   0.944   0.052 -0.2998  0.3764  0.0002
12966TIP3    H260390   0.601   1.077   0.106  3.9302 -0.0521 -2.2367
12967TIP3   OH260391   5.589   0.537  13.463  0.4944  0.2856  0.3703
12967TIP3    H160392   5.568   0.591  13.387 -0.3064 -0.7353 -0.1540
12967TIP3    H260393   5.678   0.506  13.446  0.4895  0.4325  0.0710
12968TIP3   OH260394   0.335   3.299   0.435  0.2011 -0.5043  0.2692
12968TIP3    H160395   0.336   3.394   0.423 -0.1850 -0.5759 -0.3504
12968TIP3    H260396   0.348   3.286   0.530  0.7679  0.1457  0.2847
12969TIP3   OH260397   3.020   6.043   5.756  0.0510 -0.0026 -0.3142
12969TIP3    H160398   3.107   6.057   5.794  0.3113 -0.4810 -0.7260
12969TIP3    H260399   2.960   6.086   5.817  0.5487  0.0583  0.1365
12970TIP3   OH260400   4.598   2.711  12.464 -0.2626 -0.2727 -0.2555
12970TIP3    H160401   4.670   2.723  12.525  0.2404 -1.6187 -0.5595
12970TIP3    H260402   4.535   2.656  12.511 -1.4693  1.4611  0.2755
12971TIP3   OH260403   1.269   3.364  15.632 -1.0702 -0.3643  0.4220
12971TIP3    H160404   1.345   3.362  15.689 -1.8746 -1.7128  1.4955
12971TIP3    H260405   1.195   3.382  15.690 -1.6132  0.7454 -0.5704
12972TIP3   OH260406   3.336   3.689  11.544 -0.1427  0.2096  0.0114
12972TIP3    H160407   3.373   3.707  11.630  0.0599  2.1843 -0.4379
12972TIP3    H260408   3.347   3.595  11.532  2.0174  0.2598  1.1506
12973TIP3   OH260409   4.811   6.699   4.575 -0.3667  0.5332 -0.3085
12973TIP3    H160410   4.843   6.772   4.522 -0.8457  0.1008 -1.2077
12973TIP3    H260411   4.716   6.702   4.566 -0.4259  0.1472  0.1277
12974TIP3   OH260412   6.711   2.049  16.464  0.2921 -0.0503 -0.2916
12974TIP3    H160413   6.660   2.129  16.479  1.2815  0.9622 -2.0111
12974TIP3    H260414   6.705   2.034  16.369  1.9156 -0.7720 -0.3049
12975TIP3   OH260415   3.497   0.109  12.987 -0.0258 -0.2059 -0.3546
12975TIP3    H160416   3.568   0.132  13.048  1.0308 -0.8137 -1.3155
12975TIP3    H260417   3.457   0.031  13.025 -0.9723  0.7990  0.7995
12976TIP3   OH260418   3.599   3.341   2.642  1.1485 -0.0941  0.2636
12976TIP3    H160419   3.596   3.265   2.584  0.2141 -0.4570  0.7765
12976TIP3    H260420   3.613   3.305   2.729  0.1418  0.2715  0.5903
12977TIP3   OH260421   4.744   2.433   1.121 -0.0767  1.0239  0.4378
12977TIP3    H160422   4.751   2.444   1.216 -0.5970 -0.0000  0.6112
12977TIP3    H260423   4.833   2.445   1.089  0.2932  0.3765  1.1775
12978TIP3   OH260424   4.610   5.886   4.198  0.6455 -0.0766  0.3165
12978TIP3    H160425   4.656   5.970   4.204  0.7169 -0.1758  1.4247
12978TIP3    H260426   4.602   5.857   4.289  0.8176 -1.3757 -0.0617
12979TIP3   OH260427   6.629   4.877   6.645  0.1081 -0.3198 -0.3355
12979TIP3    H160428   6.560   4.853   6.584  0.9205 -1.8219 -0.7122
12979TIP3    H260429   6.707   4.888   6.591  1.0879 -2.6863  0.4253
12980TIP3   OH260430   5.842   4.494   1.257  0.0091  0.4895  0.0314
12980TIP3    H160431   5.923   4.545   1.267  0.6236 -0.3923 -0.2490
12980TIP3    H260432   5.842   4.467   1.165  0.0093 -0.4841  0.2994
12981TIP3   OH260433   4.241   1.810  13.906 -0.2882 -0.0547  0.0004
12981TIP3    H160434   4.331   1.841  13.901 -0.5539  0.5566 -1.2413
12981TIP3    H260435   4.201   1.864  13.975 -0.2039  1.0032 -0.7607
12982TIP3   OH260436   3.927   1.216   2.358  0.6182 -0.0871 -0.2303
12982TIP3    H160437   3.943   1.130   2.318  1.5458 -0.9654  1.8870
12982TIP3    H260438   4.010   1.262   2.349  0.5083  0.1067 -0.2476
12983TIP3   OH260439   4.588   0.371   3.249 -0.0689 -0.2502 -0.3643
12983TIP3    H160440   4.503   0.406   3.277 -1.0023 -1.8699 -1.0467
12983TIP3    H260441   4.647   0.390   3.322 -1.7171 -1.6825  1.4542
12984TIP3   OH260442   3.075   2.030  13.208 -0.1529  0.2153 -0.2041
12984TIP3    H160443   3.055   2.007  13.299 -1.6264  0.4994 -0.4339
12984TIP3    H260444   3.167   2.005  13.197 -0.1251 -0.3954  1.1762
12985TIP3   OH260445   5.111   4.811   2.630  0.4001  0.2144  0.5904
12985TIP3    H160446   5.156   4.794   2.713  2.0973 -2.7742 -0.7671
12985TIP3    H260447   5.182   4.831   2.569 -0.6662  0.7913 -0.4959
12986TIP3   OH260448   6.485   3.830   0.688  0.1472 -0.1652  0.2672
12986TIP3    H160449   6.493   3.862   0.598  0.0454  1.6380  0.8526
12986TIP3    H260450   6.568   3.854   0.729 -0.6579  1.1292  1.2322
12987TIP3   OH260451   6.643   4.704   1.833 -0.2667 -0.3795 -0.2051
12987TIP3    H160452   6.679   4.766   1.898 -1.3720 -0.6506  0.6992
12987TIP3    H260453   6.705   4.631   1.834  1.8071  1.1832 -2.2486
12988TIP3   OH260454   1.272   1.826  13.513  0.0014  0.5150  0.0742
12988TIP3    H160455   1.307   1.768  13.581 -0.5620  1.1810  0.9563
12988TIP3    H260456   1.314   1.911  13.530 -0.4192  0.7790 -0.1861
12989TIP3   OH260457   3.502   3.903  11.413  0.0280 -0.3496 -0.2115
12989TIP3    H160458   3.558   3.969  11.455  0.8322 -0.7698 -0.5919
12989TIP3    H260459   3.483   3.839  11.482  1.6560 -1.2386 -0.5387
12990TIP3   OH260460   1.722   5.176  15.590 -0.2160  0.4989  0.3657
12990TIP3    H160461   1.816   5.194  15.596 -0.2151  0.7420 -0.3424
12990TIP3    H260462   1.706   5.160  15.497 -0.4216 -2.0889  0.7731
12991TIP3   OH260463   1.890   2.072  14.396  0.2196  0.4980 -0.3380
12991TIP3    H160464   1.870   2.166  14.395 -0.5154  0.3515 -1.8356
12991TIP3    H260465   1.929   2.055  14.311 -1.8610 -0.9812 -1.0659
12992TIP3   OH260466   5.517   1.652   5.868  0.1851 -0.3995  0.1610
12992TIP3    H160467   5.568   1.611   5.938 -0.7984 -0.8066  0.6568
12992TIP3    H260468   5.530   1.596   5.792  1.3826  0.1278 -0.0385
12993TIP3   OH260469   5.175   2.958   0.244  0.5751 -0.0186  0.3359
12993TIP3    H160470   5.243   3.023   0.264  1.7072 -0.8572 -0.6374
12993TIP3    H260471   5.094   3.008   0.241  1.2186  1.1104  0.9809
12994TIP3   OH260472   2.120   1.803   4.389  0.1204  0.7513 -0.0511
12994TIP3    H160473   2.186   1.824   4.323  0.2124 -0.0873 -0.2287
12994TIP3    H260474   2.170   1.790   4.470  0.0474  1.3464  0.0980
12995TIP3   OH260475   0.525   2.465   1.803  0.5214 -0.2304  0.1513
12995TIP3    H160476   0.498   2.439   1.891 -1.2583  1.8021  0.2726
12995TIP3    H260477   0.580   2.542   1.816 -0.2845  0.4772 -0.5380
12996TIP3   OH260478   5.085   5.250   2.163  0.3064  0.0855 -0.3002
12996TIP3    H160479   5.147   5.260   2.236 -2.0556  2.2247  1.5860
12996TIP3    H260480   5.015   5.196   2.199  0.1871 -0.8377 -1.8304
12997TIP3   OH260481   2.386   2.184   5.719 -0.0393 -0.0692 -0.1286
12997TIP3    H160482   2.422   2.098   5.736  0.3831  0.3637  1.2693
12997TIP3    H260483   2.402   2.199   5.626  0.7564 -1.0892 -0.1661
12998TIP3   OH260484   5.544   1.060  12.530  0.0642  0.4044 -0.1183
12998TIP3    H160485   5.566   0.968  12.520 -0.1612  0.4356 -1.0054
12998TIP3    H260486   5.459   1.070  12.488  0.8700  1.3359 -1.6467
12999TIP3   OH260487   5.347   1.996   1.392 -0.6670  0.0826 -0.3574
12999TIP3    H160488   5.382   1.910   1.366 -1.5589 -0.9133  1.5361
12999TIP3    H260489   5.425   2.052   1.396  0.3806 -1.3591  1.0123
13000TIP3   OH260490   1.789   5.054  13.557  0.2094 -0.4437  0.3553
13000TIP3    H160491   1.739   4.999  13.496  0.7458  0.6363 -1.0963
13000TIP3    H260492   1.821   4.993  13.623 -1.1563 -1.5040  0.0792
13001TIP3   OH260493   6.476   5.617   5.663  0.0770 -0.1998  0.7275
13001TIP3    H160494   6.468   5.529   5.700 -1.5775 -0.6065 -0.4526
13001TIP3    H260495   6.479   5.602   5.568  0.4945  0.9785  0.5467
13002TIP3   OH260496   2.590   4.782  15.829  0.0925  0.1861  0.1153
13002TIP3    H160497   2.630   4.764  15.914  0.9250  0.6879 -0.1509
13002TIP3    H260498   2.525   4.849  15.847  0.5160  0.5524  0.3088
13003TIP3   OH260499   4.047   2.367  14.944 -0.2977  0.2680 -0.2288
13003TIP3    H160500   4.098   2.400  15.018 -0.7027  1.7764 -0.5809
13003TIP3    H260501   4.045   2.440  14.882 -2.4463  0.1104 -0.4275
13004TIP3   OH260502   1.367   5.689   4.253  0.3544 -0.1094 -0.3721
13004TIP3    H160503   1.431   5.628   4.289  0.5672  0.7466  0.7552
13004TIP3    H260504   1.282   5.656   4.282  0.5948  1.5608  2.6652
13005TIP3   OH260505   1.384   1.233   4.251  0.4368 -0.1475 -0.0068
13005TIP3    H160506   1.349   1.164   4.307  0.9252  0.0374  0.5341
13005TIP3    H260507   1.414   1.301   4.311 -0.3632  0.7024 -0.5417
13006TIP3   OH260508   0.422   0.323  13.407  0.5674  0.3775 -0.1650
13006TIP3    H160509   0.442   0.350  13.497  1.1236  0.5026 -0.3238
13006TIP3    H260510   0.327   0.307  13.407  0.6315 -0.0260  0.5460
13007TIP3   OH260511   4.119   0.034  11.427  0.1091 -0.9889 -0.0563
13007TIP3    H160512   4.102   0.081  11.508 -2.3253 -0.2362 -0.9148
13007TIP3    H260513   4.159   0.100  11.369  1.5312 -1.4376  0.3615
13008TIP3   OH260514   3.931   3.295  14.188 -0.2880  0.1855 -0.5908
13008TIP3    H160515   3.962   3.336  14.107  2.3241  1.0598  0.7150
13008TIP3    H260516   3.944   3.363  14.255 -3.5558 -0.0553  0.4411
13009TIP3   OH260517   3.285   5.599  14.063 -0.8326 -0.2609 -0.3437
13009TIP3    H160518   3.296   5.552  13.981 -1.9684  0.0113 -0.6649
13009TIP3    H260519   3.207   5.653  14.050 -0.2067  0.8649  0.4094
13010TIP3   OH260520   1.418   4.615   1.199  0.7496  0.2255 -0.3157
13010TIP3    H160521   1.421   4.691   1.258  0.9702 -1.1033  1.4743
13010TIP3    H260522   1.327   4.612   1.170  0.2607  0.0932  1.1308
13011TIP3   OH260523   5.167   4.164  12.297  0.1644  0.4002  0.2888
13011TIP3    H160524   5.097   4.187  12.359  0.6302  0.8449  0.6633
13011TIP3    H260525   5.182   4.245  12.248  2.5670  1.3267  2.3548
13012TIP3   OH260526   5.439   0.651   3.397 -0.1608  0.6210  0.0368
13012TIP3    H160527   5.509   0.632   3.460 -0.9879 -0.7063  0.5853
13012TIP3    H260528   5.469   0.611   3.315 -0.4708 -0.3610  0.3912
13013TIP3   OH260529   1.524   3.686  14.017  0.0627 -0.9061  0.0164
13013TIP3    H160530   1.440   3.682  13.972  0.6743 -2.0857 -1.0984
13013TIP3    H260531   1.568   3.604  13.993  1.4635 -0.3897  0.6996
13014TIP3   OH260532   1.923   4.194   0.671  0.4287 -0.2525 -0.2959
13014TIP3    H160533   1.985   4.222   0.739  0.1649 -0.9814  0.2649
13014TIP3    H260534   1.889   4.275   0.634 -0.8595  0.2259  1.7522
13015TIP3   OH260535   3.708   6.692  13.171 -0.1752 -0.5111  0.2495
13015TIP3    H160536   3.745   6.635  13.239  0.8423 -0.7933 -0.5072
13015TIP3    H260537   3.628   6.647  13.143  0.5308 -1.5211 -0.2307
13016TIP3   OH260538   5.373   4.897   4.796  0.0932 -0.2078  0.1058
13016TIP3    H160539   5.315   4.850   4.856  1.0745  0.1499  1.3814
13016TIP3    H260540   5.390   4.834   4.726 -1.5932 -0.4061 -0.1635
13017TIP3   OH260541   5.009   0.072  13.069 -0.5231  0.0088  0.7564
13017TIP3    H160542   5.097   0.091  13.035 -0.8579  1.3843  0.6264
13017TIP3    H260543   4.989  -0.015  13.034  0.6713 -0.2023  0.5567
13018TIP3   OH260544   0.306   0.703  15.259 -0.5852 -0.0573  0.1521
13018TIP3    H160545   0.272   0.738  15.177  1.5512 -1.1317 -1.3049
13018TIP3    H260546   0.316   0.609  15.242 -1.1423 -0.4976  2.0693
13019TIP3   OH260547   5.776   5.055   2.888  0.4958  0.3718  0.5301
13019TIP3    H160548   5.871   5.042   2.896  0.6371  1.3413  0.4973
13019TIP3    H260549   5.741   4.966   2.879  1.3912 -0.0034  0.6084
13020TIP3   OH260550   1.575   1.674  13.356 -0.1212  0.1892  0.2624
13020TIP3    H160551   1.586   1.731  13.280  1.2517 -0.7868 -0.3228
13020TIP3    H260552   1.481   1.657  13.360 -0.3082  0.9221 -0.7282
13021TIP3   OH260553   2.345   6.461   0.049  0.7496 -0.0788  0.0663
13021TIP3    H160554   2.396   6.487   0.125  0.8521 -0.5084  0.1434
13021TIP3    H260555   2.356   6.366   0.043 -0.6389 -0.2873  0.5307
13022TIP3   OH260556   4.793   2.887  15.357 -0.1922  0.2951 -0.4219
13022TIP3    H160557   4.881   2.850  15.351 -0.3681 -0.0583 -0.9456
13022TIP3    H260558   4.795   2.964  15.301 -0.2454  0.2231 -0.5238
13023TIP3   OH260559   0.279   5.143  14.690  0.5982  0.0892 -0.1833
13023TIP3    H160560   0.210   5.197  14.652 -1.3717 -1.0964  1.4693
13023TIP3    H260561   0.286   5.173  14.781  1.0238 -0.9505  0.1520
13024TIP3   OH260562   5.426   2.527   4.838  0.1799 -0.0203 -0.2317
13024TIP3    H160563   5.457   2.446   4.797 -2.6175 -0.5998 -1.4379
13024TIP3    H260564   5.371   2.568   4.771  1.4052  2.9140  0.3735
13025TIP3   OH260565   4.272   6.290  17.075 -0.2068  0.4817 -0.5739
13025TIP3    H160566   4.287   6.253  17.163  1.0138 -0.5460 -1.1858
13025TIP3    H260567   4.349   6.345  17.059 -0.5028  0.7905 -0.9584
13026TIP3   OH260568   6.709   6.461   5.753 -0.4754  0.2518 -0.1589
13026TIP3    H160569   6.732   6.429   5.841 -0.4882 -0.9630 -0.5887
13026TIP3    H260570   6.743   6.395   5.694 -1.6378  0.3935 -1.0126
13027TIP3   OH260571   5.072   4.262  14.293  0.1678  0.1922 -0.0325
13027TIP3    H160572   5.064   4.357  14.302 -3.0075 -0.0170  0.5397
13027TIP3    H260573   5.015   4.240  14.220  1.7005 -1.2214 -0.8566
13028TIP3   OH260574   5.804   6.354   1.212 -0.3977 -0.6722  0.1198
13028TIP3    H160575   5.877   6.348   1.150 -1.0192  0.8982 -0.8370
13028TIP3    H260576   5.726   6.350   1.158 -0.9816 -0.6087  0.9448
13029TIP3   OH260577   3.729   5.295   1.130  0.0832 -0.2623 -0.0515
13029TIP3    H160578   3.716   5.249   1.048 -1.0930 -0.2010  0.0818
13029TIP3    H260579   3.779   5.234   1.185 -0.3202 -0.8505 -0.3310
13030TIP3   OH260580   2.518   5.280  11.259  0.1509 -0.0335  0.1795
13030TIP3    H160581   2.460   5.356  11.254  0.9952  0.5529 -1.3874
13030TIP3    H260582   2.600   5.310  11.221  0.0282 -2.1547 -1.9994
13031TIP3   OH260583   3.785   6.407  15.978 -0.4030  0.6169 -0.1534
13031TIP3    H160584   3.826   6.494  15.978  1.0553 -0.0482 -0.5634
13031TIP3    H260585   3.833   6.358  16.045 -0.3814 -0.2546 -0.8011
13032TIP3   OH260586   6.245   5.955  11.433 -0.3897 -0.1771 -0.2891
13032TIP3    H160587   6.299   5.905  11.372 -0.1908  0.3284 -0.5245
13032TIP3    H260588   6.269   5.920  11.519  1.4323  1.0736 -0.2510
13033TIP3   OH260589   0.881   6.643   2.341  0.1189 -0.7839  0.3120
13033TIP3    H160590   0.896   6.663   2.434 -0.6505 -0.7281  0.4298
13033TIP3    H260591   0.966   6.659   2.299 -0.3150  2.4869  0.4266
13034TIP3   OH260592   3.605   2.539   2.319  0.0862 -0.1189  0.1844
13034TIP3    H160593   3.603   2.631   2.293 -1.2402 -0.0858  0.3068
13034TIP3    H260594   3.522   2.504   2.286  1.4204 -1.7881 -1.6441
13035TIP3   OH260595   4.803   1.391   1.630  0.4278 -0.3310 -0.3603
13035TIP3    H160596   4.845   1.305   1.623  1.8905  0.2724  0.6081
13035TIP3    H260597   4.784   1.401   1.723 -1.2570 -0.2591 -0.6709
13036TIP3   OH260598   1.726   3.493  16.306  0.1857  0.0153 -0.1248
13036TIP3    H160599   1.638   3.489  16.268  0.2854 -0.1763 -0.3376
13036TIP3    H260600   1.783   3.457  16.238  0.5026  0.6645 -0.2138
13037TIP3   OH260601   6.328   5.489  16.267 -0.4980 -0.7438  0.1014
13037TIP3    H160602   6.406   5.503  16.320  1.0899 -2.4871 -1.5909
13037TIP3    H260603   6.317   5.393  16.267 -0.3817 -0.8265 -2.6678
13038TIP3   OH260604   4.373   5.601   1.902 -0.0921 -0.3466 -0.3707
13038TIP3    H160605   4.375   5.652   1.821  0.6962 -1.6926 -1.2381
13038TIP3    H260606   4.456   5.553   1.902  0.7629  0.9360  2.1366
13039TIP3   OH260607   2.344   0.512  13.427 -0.3122  0.1411 -0.1072
13039TIP3    H160608   2.257   0.528  13.392 -0.8790  0.5841  1.4176
13039TIP3    H260609   2.402   0.519  13.351 -1.5487  0.2513 -1.0764
13040TIP3   OH260610   4.712   5.545  15.616 -0.5582  0.7798 -0.1466
13040TIP3    H160611   4.641   5.607  15.605 -0.1758  1.0415 -1.2919
13040TIP3    H260612   4.751   5.538  15.529  0.9358  0.7896  0.4966
13041TIP3   OH260613   1.412   0.386  11.548  0.1780 -0.3407  0.1096
13041TIP3    H160614   1.422   0.295  11.575  1.8479 -0.2838 -0.1963
13041TIP3    H260615   1.422   0.436  11.628 -0.7085 -0.4054  0.2731
13042TIP3   OH260616   0.532   6.229   5.384  0.1955  0.4634  0.0595
13042TIP3    H160617   0.479   6.296   5.428 -0.9388 -0.2557 -0.1794
13042TIP3    H260618   0.609   6.276   5.353 -0.3992  1.5815  0.2371
13043TIP3   OH260619   2.477   5.181  13.964  0.2492 -0.1781  0.1004
13043TIP3    H160620   2.553   5.233  13.936  0.6189 -1.2031 -0.8637
13043TIP3    H260621   2.488   5.174  14.059  0.2845  1.3272  0.2335
13044TIP3   OH260622   1.587   5.379   3.964 -0.2127  0.3671  0.1632
13044TIP3    H160623   1.615   5.372   4.056  1.9884 -0.5510 -0.5117
13044TIP3    H260624   1.653   5.330   3.915 -2.6572 -1.2991 -1.7199
13045TIP3   OH260625   2.471   3.189   4.854 -0.1417 -0.0612  0.2150
13045TIP3    H160626   2.416   3.167   4.779  1.4741 -0.8211 -0.8030
13045TIP3    H260627   2.538   3.120   4.856  2.1461  2.0212 -0.0211
13046TIP3   OH260628   5.279   3.935  13.588  0.3485 -0.5525 -0.0906
13046TIP3    H160629   5.354   3.877  13.579  0.2897 -0.6367 -0.0416
13046TIP3    H260630   5.238   3.909  13.670  0.5945 -0.1243  0.1729
13047TIP3   OH260631   1.344   1.376   2.940  0.3025  0.1615  0.0160
13047TIP3    H160632   1.301   1.400   3.023 -0.9880  1.4988 -0.9965
13047TIP3    H260633   1.381   1.458   2.907  1.7311 -0.5557 -0.2531
13048TIP3   OH260634   4.124   1.838   2.955  0.3637  0.4555  0.7257
13048TIP3    H160635   4.212   1.875   2.956  1.0639 -1.1577  0.7516
13048TIP3    H260636   4.077   1.891   2.890  1.5311  0.9272  0.2330
13049TIP3   OH260637   1.791   4.793   3.107  0.3519 -0.2504  0.4656
13049TIP3    H160638   1.785   4.730   3.179  2.4049  1.2021  2.0068
13049TIP3    H260639   1.723   4.857   3.125  2.0612  1.1565  2.2928
13050TIP3   OH260640   3.219   6.240  16.762 -0.9632 -0.4013 -0.5869
13050TIP3    H160641   3.175   6.299  16.823 -1.3695  1.2756 -2.3719
13050TIP3    H260642   3.309   6.234  16.795 -0.4947  2.4398 -1.0671
13051TIP3   OH260643   6.026   4.331  16.129  0.3651 -0.3895  0.1245
13051TIP3    H160644   6.111   4.347  16.089 -0.5247 -0.2572 -1.8408
13051TIP3    H260645   5.966   4.391  16.084 -0.5929  0.4790  2.3563
13052TIP3   OH260646   5.081   6.086  11.350 -0.0228 -0.1425  0.1916
13052TIP3    H160647   5.006   6.145  11.346  1.1512  1.3540 -2.3869
13052TIP3    H260648   5.100   6.065  11.259  1.9023 -1.5556  0.8430
13053TIP3   OH260649   0.165   0.828  10.599  0.5265  0.4838 -0.6038
13053TIP3    H160650   0.106   0.903  10.600  0.3228  0.3596 -1.7891
13053TIP3    H260651   0.247   0.863  10.563  0.3006  0.0679 -1.5582
13054TIP3   OH260652   4.038   6.796   3.461  0.3199  0.4071  0.0808
13054TIP3    H160653   4.052   6.704   3.483 -0.7193  0.3557  0.5943
13054TIP3    H260654   4.044   6.842   3.545  1.0078  0.8335 -0.1966
13055TIP3   OH260655   0.341   3.187  13.432 -0.2177  0.8041  0.1594
13055TIP3    H160656   0.273   3.249  13.407 -1.0285  0.1289  0.6292
13055TIP3    H260657   0.321   3.163  13.522 -0.1670 -0.4328 -0.1312
13056TIP3   OH260658   3.495   2.609   6.585 -0.1842  0.0446  0.1095
13056TIP3    H160659   3.485   2.700   6.614  1.2657  0.5323 -0.8218
13056TIP3    H260660   3.428   2.561   6.633 -3.2920  2.1151 -1.8159
13057TIP3   OH260661   5.820   3.190  11.543  0.2174 -0.2065  0.3013
13057TIP3    H160662   5.775   3.168  11.625  0.2720  0.4285  0.5051
13057TIP3    H260663   5.760   3.160  11.474 -0.6798  0.9093  0.5651
13058TIP3   OH260664   0.610   5.981   4.800  0.2661 -0.5335  0.5728
13058TIP3    H160665   0.660   5.944   4.873  1.6619  0.2736  0.0574
13058TIP3    H260666   0.639   5.931   4.723 -0.9110 -1.1209  0.4818
13059TIP3   OH260667   2.352   1.775   2.080  0.6061  0.5038  0.4283
13059TIP3    H160668   2.430   1.733   2.044  0.0812 -0.0617 -0.0717
13059TIP3    H260669   2.359   1.762   2.175  0.6347 -0.4007  0.3061
13060TIP3   OH260670   3.280   0.066   6.468  0.2294 -0.0171  0.0508
13060TIP3    H160671   3.207   0.126   6.484 -0.4969 -0.8812  0.0463
13060TIP3    H260672   3.239  -0.015   6.439  1.2923  0.1769 -2.2370
13061TIP3   OH260673   4.058   4.546  16.526 -0.6203  0.9033  0.1312
13061TIP3    H160674   4.104   4.462  16.531  0.7455  1.5274 -1.1818
13061TIP3    H260675   3.995   4.535  16.455  0.3840  1.3280 -0.8583
13062TIP3   OH260676   4.472   3.759  15.842 -0.5320  0.2234  0.3779
13062TIP3    H160677   4.488   3.670  15.811 -0.1358  0.5996 -0.5332
13062TIP3    H260678   4.412   3.796  15.778 -0.8634  0.5502  0.8720
13063TIP3   OH260679   1.118   3.567  13.257 -0.4568 -0.2889 -0.2467
13063TIP3    H160680   1.205   3.583  13.218 -0.1590  0.1737  0.5818
13063TIP3    H260681   1.127   3.482  13.300 -0.6056 -0.5289 -0.6896
13064TIP3   OH260682   5.356   1.479   4.875  0.2469  0.0073 -0.1629
13064TIP3    H160683   5.406   1.549   4.833 -0.0385 -0.4319 -1.2839
13064TIP3    H260684   5.402   1.399   4.851 -0.9734 -0.4146 -1.2731
13065TIP3   OH260685   5.347   4.986  16.304  0.1264  0.0737  0.4023
13065TIP3    H160686   5.420   5.048  16.294 -0.5062  0.8183  0.3305
13065TIP3    H260687   5.353   4.956  16.394  0.4777  0.1962  0.4224
13066TIP3   OH260688   5.845   3.109   2.971  0.4998 -0.8028 -0.1553
13066TIP3    H160689   5.769   3.052   2.961  0.6805 -0.6868 -2.7623
13066TIP3    H260690   5.904   3.083   2.900  2.3604 -0.0342  1.0378
13067TIP3   OH260691   1.088   5.174  13.808  0.1952  0.8717 -0.0567
13067TIP3    H160692   1.115   5.115  13.878 -0.9206 -1.6937 -1.6783
13067TIP3    H260693   0.998   5.198  13.831  0.2656  1.0617  0.0251
13068TIP3   OH260694   0.126   5.777  11.565 -0.1072  0.2656 -0.2567
13068TIP3    H160695   0.157   5.713  11.501  0.5853  0.7055 -0.3768
13068TIP3    H260696   0.202   5.794  11.621 -0.0482  1.4906 -0.6593
13069TIP3   OH260697   5.008   2.930  11.853 -0.1348  0.5034  0.3167
13069TIP3    H160698   4.982   2.864  11.788  0.4263 -0.9061  1.4781
13069TIP3    H260699   4.981   3.014  11.814  0.2419 -0.2774 -1.7514
13070TIP3   OH260700   3.776   1.998   2.110 -0.5187 -0.0267  0.0128
13070TIP3    H160701   3.708   1.991   2.043  0.2027 -1.1970 -0.6399
13070TIP3    H260702   3.742   2.063   2.172 -1.7139  0.2451 -0.8794
13071TIP3   OH260703   3.350   3.117   0.448  0.1268 -0.0588 -0.1573
13071TIP3    H160704   3.398   3.106   0.530  1.2729  0.8131 -0.6944
13071TIP3    H260705   3.384   3.049   0.390  1.3411  1.0579 -0.8021
13072TIP3   OH260706   3.549   6.797  12.051 -0.1753 -0.1505 -0.2484
13072TIP3    H160707   3.493   6.720  12.063 -0.2565 -0.2273 -1.0755
13072TIP3    H260708   3.509   6.845  11.978  1.0548 -0.4053 -1.1142
13073TIP3   OH260709   0.824   6.150  11.110 -0.4022  0.0526 -0.0444
13073TIP3    H160710   0.867   6.176  11.191 -0.8425 -0.2716  0.2942
13073TIP3    H260711   0.745   6.204  11.106 -1.5099 -1.4134  0.8354
13074TIP3   OH260712   2.317   1.024   0.197  0.3390 -0.1874 -0.1347
13074TIP3    H160713   2.376   1.098   0.185 -0.4194  0.1619 -2.0867
13074TIP3    H260714   2.308   1.016   0.292  0.6493  2.0568  0.1476
13075TIP3   OH260715   2.458   4.700   3.151 -0.0726  0.5228 -0.4783
13075TIP3    H160716   2.522   4.635   3.180 -0.6537 -0.5283 -1.4510
13075TIP3    H260717   2.393   4.703   3.221 -0.0906 -0.0425 -0.4635
13076TIP3   OH260718   1.769   5.610   2.740  0.9793 -0.5175 -0.1431
13076TIP3    H160719   1.674   5.620   2.750  0.9608 -0.2293 -0.5751
13076TIP3    H260720   1.804   5.698   2.754  1.3968 -0.9915  2.1622
13077TIP3   OH260721   0.087   4.893   3.044  0.0697 -0.1017 -0.0713
13077TIP3    H160722   0.140   4.817   3.021 -0.8873 -1.3372  1.5720
13077TIP3    H260723   0.124   4.924   3.127 -0.7808 -0.0265  0.2915
13078TIP3   OH260724   3.164   1.382   4.380  0.1165 -0.2244  0.1441
13078TIP3    H160725   3.242   1.425   4.345 -0.6515  1.0678 -0.0733
13078TIP3    H260726   3.130   1.331   4.307 -1.0852  1.9036 -0.9007
13079TIP3   OH260727   1.236   0.717  12.392  0.0054  0.2160 -0.0501
13079TIP3    H160728   1.240   0.781  12.463  0.9461 -1.8387  1.8576
13079TIP3    H260729   1.262   0.634  12.432  0.7040 -1.0418 -2.8392
13080TIP3   OH260730   5.854   5.505   4.900 -0.3387  0.2968  0.3240
13080TIP3    H160731   5.886   5.516   4.989  1.6523  1.1616 -0.4433
13080TIP3    H260732   5.848   5.595   4.865  1.4904 -0.1248 -1.2295
13081TIP3   OH260733   4.940   4.982   2.874 -0.2182 -0.3540  0.0959
13081TIP3    H160734   4.913   4.996   2.965  1.6857 -2.2397  1.0357
13081TIP3    H260735   5.035   4.995   2.875 -0.1771 -0.3233 -1.6542
13082TIP3   OH260736   2.732   3.553  11.666  0.1216  0.3561 -0.0545
13082TIP3    H160737   2.825   3.565  11.650  0.4212 -0.5831  0.8781
13082TIP3    H260738   2.695   3.530  11.581  0.7005  0.8922 -0.4611
13083TIP3   OH260739   1.980   6.341   4.095 -0.1094  0.0015  0.4105
13083TIP3    H160740   1.920   6.413   4.114  0.3322  0.3446  0.4882
13083TIP3    H260741   2.039   6.375   4.027  0.8041  0.0954  1.2342
13084TIP3   OH260742   0.789   6.235   4.659 -0.1922  0.1311 -0.0984
13084TIP3    H160743   0.850   6.166   4.633  0.3780  0.9718 -1.0870
13084TIP3    H260744   0.839   6.316   4.650 -1.3759  0.8276 -0.7534
13085TIP3   OH260745   1.471   1.579   1.231  0.1717 -0.2172  0.4675
13085TIP3    H160746   1.388   1.607   1.192  1.3186  1.9228 -0.6454
13085TIP3    H260747   1.517   1.535   1.160 -0.4699 -2.6702  1.4538
13086TIP3   OH260748   2.661   0.506   3.499 -0.2153 -0.3764 -0.2699
13086TIP3    H160749   2.582   0.548   3.466 -0.3449 -0.1350  0.3388
13086TIP3    H260750   2.635   0.465   3.582  0.4478  0.2806  0.2782
13087TIP3   OH260751   0.100   5.872  15.680 -0.3757  0.3500  0.5355
13087TIP3    H160752   0.094   5.894  15.772  0.0583  0.6376  0.4969
13087TIP3    H260753   0.014   5.892  15.645  0.1933  2.7819  0.3337
13088TIP3   OH260754   1.188   3.757   0.971  0.7096  0.0209 -0.4866
13088TIP3    H160755   1.234   3.725   1.049  1.7815  0.8049 -0.7633
13088TIP3    H260756   1.184   3.852   0.983 -2.0160 -0.0865  0.1122
13089TIP3   OH260757   1.783   4.622   3.303  0.1038 -0.1902  0.2856
13089TIP3    H160758   1.733   4.618   3.385 -1.2795 -0.1823 -0.5357
13089TIP3    H260759   1.856   4.561   3.318 -0.3913 -0.5627  1.3477
13090TIP3   OH260760   3.102   2.939   2.825 -0.8179  0.2794  0.0239
13090TIP3    H160761   3.055   3.012   2.866  0.8139  2.0439 -1.1189
13090TIP3    H260762   3.099   2.958   2.732  0.6219 -0.5179 -0.2018
13091TIP3   OH260763   3.968   4.106  12.402 -1.1312  0.1527 -0.1963
13091TIP3    H160764   3.959   4.042  12.472 -0.0708 -0.0406 -0.2234
13091TIP3    H260765   3.878   4.124  12.374 -1.5299 -0.2262  0.7895
13092TIP3   OH260766   2.633   0.435   0.809 -0.3824 -0.1300 -0.3317
13092TIP3    H160767   2.684   0.403   0.735  0.6552  2.1875 -0.6943
13092TIP3    H260768   2.698   0.462   0.874 -1.2365 -0.3268  0.6456
13093TIP3   OH260769   5.122   3.352   3.062 -0.8429 -0.6024  0.4448
13093TIP3    H160770   5.089   3.418   3.122  0.8998 -0.3734  1.2096
13093TIP3    H260771   5.207   3.327   3.097  0.2510 -0.4723 -1.9116
13094TIP3   OH260772   6.233   1.619   1.201  0.0574 -0.2492 -0.0014
13094TIP3    H160773   6.197   1.542   1.244  2.0174 -0.6065  1.1187
13094TIP3    H260774   6.261   1.588   1.115  0.3332 -0.6706  0.2363
13095TIP3   OH260775   6.338   5.626  12.676 -0.1127  0.4727 -0.0637
13095TIP3    H160776   6.390   5.699  12.709  0.1506  0.6159 -0.7614
13095TIP3    H260777   6.400   5.553  12.673 -0.0556  0.5340 -0.4890
13096TIP3   OH260778   2.253   3.469   5.955  0.0784 -0.5067 -0.0420
13096TIP3    H160779   2.285   3.396   5.903  2.7158  0.9321 -0.6208
13096TIP3    H260780   2.300   3.462   6.038  0.0273  0.2541  0.0613
13097TIP3   OH260781   3.203   4.863   5.190 -0.2450  0.1097 -0.6299
13097TIP3    H160782   3.237   4.851   5.101 -1.5244  2.2578 -1.5060
13097TIP3    H260783   3.225   4.953   5.212 -0.9908 -0.0170  0.7467
13098TIP3   OH260784   2.302   3.136   4.644 -0.0393 -0.2455 -0.4594
13098TIP3    H160785   2.285   3.044   4.661 -0.6882 -0.3928 -1.8044
13098TIP3    H260786   2.293   3.145   4.549  2.9470  0.5919 -0.7665
13099TIP3   OH260787   2.566   1.148  12.545 -0.2000 -0.5122  0.8669
13099TIP3    H160788   2.658   1.165  12.522 -0.4065 -0.9963 -0.4284
13099TIP3    H260789   2.547   1.210  12.615  0.4716  1.1773 -0.3717
13100TIP3   OH260790   4.617   3.631   1.716  0.3994 -0.1586 -0.6443
13100TIP3    H160791   4.588   3.718   1.744  0.9714  0.0400 -0.6539
13100TIP3    H260792   4.675   3.647   1.642 -0.0895 -0.6055 -1.1361
13101TIP3   OH260793   5.740   1.859   5.358  0.4026 -0.5206  0.1677
13101TIP3    H160794   5.803   1.930   5.370 -0.6779  0.5204 -0.1388
13101TIP3    H260795   5.739   1.814   5.442  0.2151  0.5795  0.7693
13102TIP3   OH260796   6.151   1.230  15.849 -0.2028  0.4619  0.6990
13102TIP3    H160797   6.106   1.190  15.924  0.8074 -1.9352  0.1226
13102TIP3    H260798   6.089   1.222  15.777 -0.2553  0.5587  0.7329
13103TIP3   OH260799   0.060   4.108  15.045 -0.3458 -0.7373  0.1180
13103TIP3    H160800   0.134   4.073  15.093  2.0522  2.6829 -0.7243
13103TIP3    H260801   0.089   4.110  14.953 -2.8464 -2.3625 -0.8294
13104TIP3   OH260802   0.358   6.251  13.020 -0.3743  0.2822  0.7859
13104TIP3    H160803   0.283   6.248  12.960  0.4762 -1.0783 -0.2698
13104TIP3    H260804   0.432   6.275  12.964  0.1806  0.5459  1.6085
13105TIP3   OH260805   3.312   3.872   6.077 -0.1927 -0.4155  0.1013
13105TIP3    H160806   3.391   3.919   6.103  1.4414 -2.2070 -1.3660
13105TIP3    H260807   3.281   3.832   6.158 -0.4157  1.3516  0.9550
13106TIP3   OH260808   6.332   3.612  15.592  0.2395  0.2185 -0.5940
13106TIP3    H160809   6.354   3.699  15.558 -0.1466  0.9755  0.9829
13106TIP3    H260810   6.402   3.592  15.654 -1.6237  1.1710  1.9534
13107TIP3   OH260811   6.714   1.802   2.283  0.4244 -0.1874 -0.1854
13107TIP3    H160812   6.804   1.807   2.315  0.6672 -1.7153 -0.5483
13107TIP3    H260813   6.708   1.715   2.242 -1.5441 -0.5983  0.8507
13108TIP3   OH260814   1.598   5.716   4.677  0.0569  0.1754  0.1181
13108TIP3    H160815   1.573   5.755   4.760  2.6774 -0.7384  1.4431
13108TIP3    H260816   1.681   5.759   4.654  0.3745 -0.9641 -1.0097
13109TIP3   OH260817   4.517   4.881  16.702  0.2359  0.3289  0.1539
13109TIP3    H160818   4.453   4.950  16.686 -0.4563 -0.6040 -1.3628
13109TIP3    H260819   4.591   4.904  16.646 -0.3899 -0.6164 -1.1194
13110TIP3   OH260820   6.564   2.962  17.120 -0.2815  0.1850  0.4573
13110TIP3    H160821   6.491   2.901  17.111  1.9364 -2.5263 -0.2571
13110TIP3    H260822   6.552   3.000  17.208 -2.7039  0.1608  0.2091
13111TIP3   OH260823   5.636   4.099  14.948 -0.1784 -0.0441  0.5279
13111TIP3    H160824   5.557   4.046  14.950  1.3655 -2.9073 -3.0745
13111TIP3    H260825   5.690   4.064  15.019 -1.5873  1.1858  2.2828
13112TIP3   OH260826   0.534   3.878   3.225 -0.4242  0.1784 -0.1280
13112TIP3    H160827   0.455   3.827   3.241 -1.6268  2.1966  0.8170
13112TIP3    H260828   0.604   3.813   3.217 -1.5902 -1.5529  2.4424
13113TIP3   OH260829   2.980   0.138  16.516 -0.0582  0.2901  0.0119
13113TIP3    H160830   3.063   0.180  16.492 -0.0554  1.0226  1.2251
13113TIP3    H260831   3.002   0.045  16.525  0.3504  0.2909 -0.8620
13114TIP3   OH260832   0.368   1.616   0.915 -0.0723  0.2455  0.3701
13114TIP3    H160833   0.455   1.595   0.882  0.3259  0.2539  1.3913
13114TIP3    H260834   0.362   1.711   0.911 -0.0744  0.2400  0.2209
13115TIP3   OH260835   3.603   5.555   3.495  0.0616  0.3704 -0.0069
13115TIP3    H160836   3.690   5.584   3.524  0.3389 -0.0349 -0.4159
13115TIP3    H260837   3.621   5.501   3.418 -0.3158 -1.8473  1.3479
13116TIP3   OH260838   6.152   1.482   3.974 -0.1814 -0.0419 -0.8503
13116TIP3    H160839   6.127   1.400   4.017 -0.7924 -0.2537 -1.5860
13116TIP3    H260840   6.091   1.490   3.901 -0.1232  1.0738 -0.7885
13117TIP3   OH260841   0.364   1.625  15.356 -0.1628  0.3208 -0.4369
13117TIP3    H160842   0.429   1.659  15.294  0.2361 -0.5627 -0.5081
13117TIP3    H260843   0.414   1.574  15.419 -0.8796 -1.2735 -1.1081
13118TIP3   OH260844   5.281   3.498  11.630 -0.0172  0.0657  0.3335
13118TIP3    H160845   5.245   3.548  11.557 -0.4869 -1.0071 -0.1870
13118TIP3    H260846   5.374   3.492  11.612 -0.1342 -0.2135 -0.2048
13119TIP3   OH260847   6.123   4.171   2.451 -0.1888  0.1657 -0.5813
13119TIP3    H160848   6.093   4.176   2.541 -1.0712  1.4581 -0.9109
13119TIP3    H260849   6.047   4.144   2.401 -0.4795  1.9931 -1.2341
13120TIP3   OH260850   3.592   2.780   0.007 -0.2646  0.2317 -0.0685
13120TIP3    H160851   3.677   2.789   0.050 -1.3856 -1.7000  2.8786
13120TIP3    H260852   3.602   2.704  -0.050  0.3600  0.9325 -0.9251
13121TIP3   OH260853   5.211   5.644  16.619 -0.3945 -0.3533 -0.1276
13121TIP3    H160854   5.143   5.584  16.650 -0.4128 -0.1938  0.1422
13121TIP3    H260855   5.172   5.731  16.629  0.0942 -0.2151  0.6508
13122TIP3   OH260856   4.417   1.337  12.396  0.3743 -0.6298 -0.0790
13122TIP3    H160857   4.357   1.358  12.325  0.3409  0.8421  0.3502
13122TIP3    H260858   4.504   1.340  12.356  0.4730  1.5527  0.1662
13123TIP3   OH260859   6.629   1.415   1.446 -0.4801 -0.3932 -0.5236
13123TIP3    H160860   6.642   1.372   1.361 -0.6748 -1.2612 -0.1305
13123TIP3    H260861   6.554   1.369   1.484 -1.4005  1.0460 -0.5458
13124TIP3   OH260862   3.439   5.992   5.087  0.2517 -0.0987 -0.1455
13124TIP3    H160863   3.532   6.014   5.073  0.1497 -0.1910 -1.0276
13124TIP3    H260864   3.437   5.896   5.087  0.2944 -0.1118  0.9104
13125TIP3   OH260865   3.591   0.434   3.024 -0.1943  0.3338 -0.1585
13125TIP3    H160866   3.599   0.339   3.025  2.3613  0.4876 -0.0263
13125TIP3    H260867   3.661   0.464   3.083 -1.7716  2.2651  0.8351
13126TIP3   OH260868   1.911   3.360   3.759  0.5699 -0.1328 -0.1763
13126TIP3    H160869   1.923   3.449   3.791  0.8744  0.1959 -1.1964
13126TIP3    H260870   1.891   3.309   3.838  0.8547  0.7447  0.4732
13127TIP3   OH260871   4.785   2.698  12.630 -0.4580 -0.4450 -0.6402
13127TIP3    H160872   4.789   2.674  12.723 -3.0094  2.3610  0.3480
13127TIP3    H260873   4.845   2.772  12.622 -1.1883  0.1271 -0.9090
13128TIP3   OH260874   6.081   6.208  15.972 -0.3134 -0.0789 -0.2439
13128TIP3    H160875   6.055   6.140  16.035 -1.1261 -1.9995 -2.4693
13128TIP3    H260876   6.166   6.239  16.003 -0.6680 -0.9497  1.7480
13129TIP3   OH260877   1.281   4.061  15.429  0.5482  0.3415 -0.0329
13129TIP3    H160878   1.236   4.104  15.356  0.4709  0.6951  0.2213
13129TIP3    H260879   1.373   4.060  15.403  0.3617 -0.7183 -0.7207
13130TIP3   OH260880   0.830   2.134  11.149  0.0683  0.7129  0.0125
13130TIP3    H160881   0.809   2.169  11.062  1.8269  1.0676 -0.3243
13130TIP3    H260882   0.766   2.065  11.164 -0.5790  0.9888 -1.3592
13131TIP3   OH260883   3.832   0.465   6.447  0.5489 -0.5381 -0.0351
13131TIP3    H160884   3.899   0.525   6.415 -0.4317 -0.4121 -2.0470
13131TIP3    H260885   3.864   0.378   6.424  1.3407 -0.7405  1.6701
13132TIP3   OH260886   6.754   1.796   4.498  0.8039  0.2928 -0.0511
13132TIP3    H160887   6.717   1.884   4.495  0.0956  0.1047  1.8182
13132TIP3    H260888   6.679   1.738   4.514  1.3816 -0.5363 -0.2347
13133TIP3   OH260889   2.703   5.047  12.744  0.4196 -0.5732 -0.0412
13133TIP3    H160890   2.703   5.027  12.838  1.6131  0.6673  0.2542
13133TIP3    H260891   2.787   5.012  12.712  0.8563  0.6206 -0.2487
13134TIP3   OH260892   4.298   1.336  14.793  0.6212 -0.0594  0.1576
13134TIP3    H160893   4.381   1.316  14.750  0.1279  1.2266 -1.4957
13134TIP3    H260894   4.263   1.410  14.743 -1.5537 -0.6315  0.7503
13135TIP3   OH260895   5.456   3.269  13.310 -0.2149 -0.6567  0.0819
13135TIP3    H160896   5.385   3.212  13.280 -0.0115 -0.2633 -1.1776
13135TIP3    H260897   5.437   3.354  13.271  2.4167 -1.1786 -2.7374
13136TIP3   OH260898   3.890   4.180  11.961  0.4250 -0.1853  0.5757
13136TIP3    H160899   3.961   4.188  12.025 -0.1845  1.0571  1.1306
13136TIP3    H260900   3.886   4.266  11.920 -1.2285 -0.0051  1.0717
13137TIP3   OH260901   2.633   3.478   2.519 -0.3202  0.5033 -0.5254
13137TIP3    H160902   2.586   3.452   2.440 -2.0821 -0.5746  0.8195
13137TIP3    H260903   2.609   3.570   2.531  0.8492  1.0128 -1.8052
13138TIP3   OH260904   5.608   3.130   5.497 -0.4006 -0.7358 -0.3429
13138TIP3    H160905   5.646   3.218   5.503 -3.0825  0.5485 -0.3349
13138TIP3    H260906   5.634   3.087   5.578 -0.6367  0.8102  0.6114
13139TIP3   OH260907   4.010   0.439  11.255  0.1643 -0.1898  0.4812
13139TIP3    H160908   4.035   0.476  11.170  2.0688 -1.3694  0.4962
13139TIP3    H260909   3.932   0.386  11.236 -0.3509  0.7819 -0.2119
13140TIP3   OH260910   1.056   6.585   5.797 -0.1456  0.5150  0.1567
13140TIP3    H160911   0.991   6.531   5.752  0.8101 -0.3735 -0.2023
13140TIP3    H260912   1.135   6.530   5.799  1.2427  2.3300 -1.3115
13141TIP3   OH260913   4.521   1.044  12.308 -0.1317  0.2518  0.2791
13141TIP3    H160914   4.522   1.078  12.219 -1.0111 -0.8240 -0.1563
13141TIP3    H260915   4.437   1.074  12.344 -0.0488  0.1681  0.5462
13142TIP3   OH260916   1.379   5.391   1.067 -0.3584 -0.2206  0.2056
13142TIP3    H160917   1.428   5.311   1.086 -0.5003 -0.4316 -0.3152
13142TIP3    H260918   1.418   5.457   1.125  1.3845 -0.0672 -1.0441
13143TIP3   OH260919   6.475   1.289  12.299 -0.1114 -0.3018 -0.0198
13143TIP3    H160920   6.568   1.311  12.298 -0.7149  2.6864  0.3225
13143TIP3    H260921   6.470   1.205  12.253  2.5924  0.0876 -1.2201
13144TIP3   OH260922   3.006   1.696  11.003 -0.4659 -0.3609 -0.1842
13144TIP3    H160923   2.914   1.719  10.985 -0.8703  0.4014  2.3808
13144TIP3    H260924   3.044   1.777  11.038  0.7829 -1.0570  0.1332
13145TIP3   OH260925   3.579   1.429   6.213 -0.2360  0.2780 -0.1116
13145TIP3    H160926   3.534   1.490   6.154 -1.4527 -2.3501 -2.1313
13145TIP3    H260927   3.672   1.450   6.203 -0.5211  0.8578 -1.8639
13146TIP3   OH260928   1.430   0.879   5.419 -0.2847 -0.0284  0.1416
13146TIP3    H160929   1.345   0.851   5.384 -0.1028 -1.7575  0.9896
13146TIP3    H260930   1.455   0.954   5.364 -2.6659  0.9733  0.3301
13147TIP3   OH260931   6.632   2.663   5.435  0.3615 -0.2661 -0.6184
13147TIP3    H160932   6.651   2.572   5.457  0.4889  0.1071  0.9502
13147TIP3    H260933   6.616   2.705   5.520 -1.4301  0.7819 -1.4161
13148TIP3   OH260934   6.630   2.985   0.406 -0.1310 -0.3776 -0.0341
13148TIP3    H160935   6.652   2.906   0.357 -0.3700 -0.1201 -0.5596
13148TIP3    H260936   6.662   3.057   0.351 -1.6065 -0.0180 -0.4688
13149TIP3   OH260937   6.808   4.136   4.375  0.7728  0.2420  0.4801
13149TIP3    H160938   6.764   4.084   4.308 -1.1984  0.8409  1.2581
13149TIP3    H260939   6.848   4.209   4.328  0.1172  0.2069 -0.1311
13150TIP3   OH260940   3.440   2.304   1.108 -0.3194 -0.2536 -0.1067
13150TIP3    H160941   3.435   2.387   1.156 -0.6657  0.1887 -0.8872
13150TIP3    H260942   3.349   2.284   1.087 -0.2233 -0.7725 -0.0250
13151TIP3   OH260943   4.253   2.060   5.014 -0.3510  0.5308 -1.0670
13151TIP3    H160944   4.226   1.985   4.960  0.7280 -0.5779 -0.1249
13151TIP3    H260945   4.180   2.072   5.075  0.1130 -0.7804 -0.2154
13152TIP3   OH260946   1.166   3.284   2.892 -0.4534  0.3212  0.5009
13152TIP3    H160947   1.170   3.286   2.987 -0.3758  0.3424  0.4979
13152TIP3    H260948   1.077   3.312   2.871 -0.2708  0.9710  0.5521
13153TIP3   OH260949   2.825   4.677  12.415 -0.3067  0.6133  0.6551
13153TIP3    H160950   2.777   4.716  12.342 -0.9901 -0.5421  0.4687
13153TIP3    H260951   2.917   4.695  12.396 -0.2453 -1.6952 -1.7827
13154TIP3   OH260952   6.682   0.889   2.081 -0.3260 -0.0933 -0.6816
13154TIP3    H160953   6.644   0.804   2.102  0.0828 -0.2399 -0.5189
13154TIP3    H260954   6.770   0.869   2.049  0.0322  0.2993  0.0086
13155TIP3   OH260955   1.690   4.470  14.897 -0.1080 -0.0733 -0.1375
13155TIP3    H160956   1.660   4.560  14.913  0.5685 -0.2055  2.2408
13155TIP3    H260957   1.633   4.438  14.827 -0.8104  1.9682 -0.5785
13156TIP3   OH260958   3.830   5.861   0.874  0.0021  0.4274 -0.1030
13156TIP3    H160959   3.843   5.849   0.968  1.5337 -0.5080 -0.4055
13156TIP3    H260960   3.793   5.949   0.866  0.5915  0.8290  1.3111
13157TIP3   OH260961   6.058   1.609  13.704 -0.0953 -0.4212 -0.1357
13157TIP3    H160962   5.992   1.564  13.757 -0.3263 -0.8238 -0.7576
13157TIP3    H260963   6.058   1.563  13.621  0.8907 -0.3477 -0.1945
13158TIP3   OH260964   6.128   6.393   1.338  0.6560 -0.3379 -0.6873
13158TIP3    H160965   6.164   6.307   1.321 -1.7255 -2.1777  2.3660
13158TIP3    H260966   6.121   6.397   1.434  0.5641  3.2477 -0.7068
13159TIP3   OH260967   4.655   0.659   2.036 -0.0795 -0.1639  0.6207
13159TIP3    H160968   4.734   0.608   2.020  0.3928  1.0914 -1.4064
13159TIP3    H260969   4.683   0.730   2.094  0.0346 -0.3080  0.7418
13160TIP3   OH260970   4.825   1.988   3.144 -0.1177 -0.5228  0.0834
13160TIP3    H160971   4.843   1.990   3.238 -0.3786  1.6996  0.1391
13160TIP3    H260972   4.903   2.027   3.104 -1.6721  2.7003 -0.1874
13161TIP3   OH260973   0.369   1.973  12.222 -0.1904 -0.1357  0.4455
13161TIP3    H160974   0.346   1.880  12.226 -1.4590  0.1874  0.8584
13161TIP3    H260975   0.286   2.019  12.212  0.2422  1.0650  2.0231
13162TIP3   OH260976   2.835   3.134   2.778  0.2822 -0.4116 -0.4380
13162TIP3    H160977   2.882   3.166   2.855  0.8415 -1.4897 -0.3043
13162TIP3    H260978   2.778   3.206   2.753  3.2561  1.7470 -1.6913
13163TIP3   OH260979   4.373   1.616   1.274  0.0194 -0.1677 -0.0521
13163TIP3    H160980   4.441   1.585   1.213 -1.6252 -2.0230 -1.0821
13163TIP3    H260981   4.421   1.661   1.343  2.1825 -0.2688 -1.3967
13164TIP3   OH260982   6.379   5.177   1.334  0.6676  0.2200 -1.0348
13164TIP3    H160983   6.460   5.128   1.325  1.2754  0.5897  1.6270
13164TIP3    H260984   6.395   5.237   1.407 -1.6802  0.9732 -1.0586
13165TIP3   OH260985   3.381   5.823  12.764  0.2268  0.1171 -0.1495
13165TIP3    H160986   3.458   5.876  12.787 -0.1820  0.1254  1.3409
13165TIP3    H260987   3.409   5.770  12.690  1.6964  0.1012  0.3808
13166TIP3   OH260988   5.077   4.811   4.905  0.1569 -0.1423 -0.3231
13166TIP3    H160989   5.094   4.723   4.871 -0.3540 -0.3330 -0.0927
13166TIP3    H260990   5.070   4.866   4.827  0.8537 -0.2317 -0.4560
13167TIP3   OH260991   0.789   4.643  12.857 -0.2333  0.2722 -0.3249
13167TIP3    H160992   0.749   4.623  12.941 -0.3171 -0.1865 -0.4704
13167TIP3    H260993   0.776   4.737  12.845 -0.1711  0.3476  0.1995
13168TIP3   OH260994   4.419   0.077   6.211 -0.0071  0.1952 -0.4453
13168TIP3    H160995   4.405  -0.017   6.195  0.0320  0.6637 -3.9443
13168TIP3    H260996   4.332   0.111   6.229 -0.1813 -0.3152 -0.2820
13169TIP3   OH260997   1.962   3.944  15.462  0.3293 -0.1403 -0.0171
13169TIP3    H160998   1.972   3.978  15.552  2.4696 -0.4380 -0.0931
13169TIP3    H260999   2.017   4.002  15.409 -4.0301  2.6818 -1.9748
13170TIP3   OH261000   2.836   2.209   1.594  1.0841  0.2188 -0.1650
13170TIP3    H161001   2.817   2.180   1.505  1.3278 -0.3396 -0.0353
13170TIP3    H261002   2.871   2.298   1.583 -1.1303  1.1154 -0.4471
13171TIP3   OH261003   1.892   1.722  10.988 -0.2775 -0.0405  0.1405
13171TIP3    H161004   1.949   1.797  10.972 -0.7612  0.4386  0.6285
13171TIP3    H261005   1.944   1.664  11.045 -0.6838  0.9409  1.5655
13172TIP3   OH261006   2.522   6.480  13.036  0.5591 -0.0155  0.0483
13172TIP3    H161007   2.589   6.544  13.013  1.1276 -0.5432  0.2037
13172TIP3    H261008   2.560   6.396  13.012  1.1210 -0.6006  2.6495
13173TIP3   OH261009   6.484   1.969   6.696  0.2929 -0.1818  0.5992
13173TIP3    H161010   6.427   1.936   6.627 -1.8279  1.7659  1.2794
13173TIP3    H261011   6.571   1.971   6.657 -0.9913  2.1454 -2.6080
13174TIP3   OH261012   2.726   0.046  14.518  0.8898  0.0072 -0.0254
13174TIP3    H161013   2.763  -0.039  14.495  0.4493 -0.0977 -0.3532
13174TIP3    H261014   2.642   0.026  14.558  0.7295  0.2969 -0.2143
13175TIP3   OH261015   6.149   1.817  11.663 -0.0427  0.0035 -0.0251
13175TIP3    H161016   6.148   1.849  11.573  0.4780  0.2695  0.0605
13175TIP3    H261017   6.117   1.890  11.716 -0.8398 -0.3230 -0.0397
13176TIP3   OH261018   5.085   3.624   1.167  0.3658 -0.2475  0.0588
13176TIP3    H161019   4.991   3.633   1.151  0.3648 -2.1473 -1.4927
13176TIP3    H261020   5.093   3.613   1.261 -0.3305  5.3259  1.0589
13177TIP3   OH261021   4.474   0.829  16.564 -0.2274 -0.0440  0.0277
13177TIP3    H161022   4.562   0.838  16.599 -0.4076  2.2671  0.0579
13177TIP3    H261023   4.422   0.894  16.613 -1.4227  0.2354 -1.5270
13178TIP3   OH261024   4.237   2.453  12.968  0.0647  0.2431  0.1552
13178TIP3    H161025   4.148   2.468  12.935  0.3832 -1.1017 -1.4863
13178TIP3    H261026   4.287   2.529  12.937  0.1328 -0.5148 -1.7685
13179TIP3   OH261027   3.135   6.534   0.673 -0.1955 -0.3519  0.0275
13179TIP3    H161028   3.183   6.535   0.590 -0.7513 -0.9677 -0.3203
13179TIP3    H261029   3.161   6.452   0.715 -0.4147 -0.3622  0.1459
13180TIP3   OH261030   2.036   1.100  12.143  0.1332  0.0740  0.5041
13180TIP3    H161031   2.010   1.133  12.057  1.7570  1.0878  0.3764
13180TIP3    H261032   2.114   1.047  12.126 -0.4248 -1.0278  1.1801
13181TIP3   OH261033   2.470   5.156  12.716 -0.1884  0.9911 -0.6208
13181TIP3    H161034   2.457   5.172  12.810 -0.7026 -0.3425 -0.4485
13181TIP3    H261035   2.549   5.103  12.711 -2.1450 -2.1794 -0.5666
13182TIP3   OH261036   5.059   4.921  12.509 -0.2372 -0.0871 -0.4682
13182TIP3    H161037   5.122   4.919  12.581 -1.8896 -0.5678  1.0512
13182TIP3    H261038   4.993   4.857  12.534 -0.6692 -0.5413 -2.6443
13183TIP3   OH261039   0.978   2.232   1.986  0.1765  0.2215 -0.2485
13183TIP3    H161040   0.982   2.270   2.074  0.5605  0.7593 -0.4917
13183TIP3    H261041   0.889   2.196   1.980  0.9820 -2.2934  1.3324
13184TIP3   OH261042   0.432   2.780  17.024 -0.0917  0.3590  0.4327
13184TIP3    H161043   0.434   2.853  17.085  1.3036  1.4295 -0.8440
13184TIP3    H261044   0.496   2.718  17.058  1.3713  1.3702 -0.3910
13185TIP3   OH261045   4.549   2.689  12.189  0.3286 -0.3735  0.3927
13185TIP3    H161046   4.466   2.736  12.177  1.0806  0.5018 -1.8499
13185TIP3    H261047   4.577   2.713  12.277 -1.5805 -0.3861  1.0606
13186TIP3   OH261048   2.292   3.784   3.495 -0.0755  0.2355  0.0429
13186TIP3    H161049   2.245   3.704   3.469 -0.4587  0.3922  0.2394
13186TIP3    H261050   2.247   3.813   3.574 -0.6734  1.2543 -0.6353
13187TIP3   OH261051   5.548   1.075   4.377 -0.2199  0.6474 -0.1036
13187TIP3    H161052   5.547   1.102   4.285  0.1862 -1.1815 -0.6885
13187TIP3    H261053   5.479   1.010   4.384 -0.9039  1.4573  1.1542
13188TIP3   OH261054   6.532   6.101   2.841 -0.6533 -0.0163  0.5614
13188TIP3    H161055   6.586   6.025   2.819 -0.2884 -0.0921  1.6728
13188TIP3    H261056   6.591   6.176   2.829  0.2916 -0.1882  3.2890
13189TIP3   OH261057   5.570   0.204   0.269  0.2798  0.6289  0.1657
13189TIP3    H161058   5.503   0.251   0.221  0.8457 -0.3304 -1.6808
13189TIP3    H261059   5.651   0.222   0.221  0.7327 -0.9992  0.2367
13190TIP3   OH261060   3.992   3.843  10.934 -0.0990  0.3120  0.3883
13190TIP3    H161061   4.063   3.906  10.922 -0.7905  1.0962  0.2866
13190TIP3    H261062   4.035   3.757  10.935  0.7308  0.6779 -0.8803
13191TIP3   OH261063   0.256   4.878  13.284 -0.1716 -0.2783  0.2205
13191TIP3    H161064   0.254   4.896  13.190 -0.0321 -0.8850  0.1001
13191TIP3    H261065   0.335   4.825  13.297  1.9037  2.8014  1.2451
13192TIP3   OH261066   6.762   3.984  10.914 -0.3005 -0.1103  0.2004
13192TIP3    H161067   6.723   4.038  10.845 -1.8471 -0.8727  0.4219
13192TIP3    H261068   6.849   4.021  10.928 -1.5423  2.7849  0.8761
13193TIP3   OH261069   4.841   1.278  12.265 -0.0212  0.0516 -0.3066
13193TIP3    H161070   4.761   1.298  12.217  0.0863 -2.3737 -1.6875
13193TIP3    H261071   4.835   1.184  12.282  2.5043 -0.1896 -0.4204
13194TIP3   OH261072   1.927   2.374  17.043  0.0338  0.8102  0.4765
13194TIP3    H161073   2.005   2.370  17.099  0.8384 -1.0383 -0.6490
13194TIP3    H261074   1.893   2.284  17.044 -0.3240  0.8766 -1.3866
13195TIP3   OH261075   5.138   6.183   5.515  0.3602 -0.9497 -0.0855
13195TIP3    H161076   5.060   6.133   5.538  0.6731 -1.2642  0.3198
13195TIP3    H261077   5.165   6.147   5.430 -0.6379  0.0184 -0.8314
13196TIP3   OH261078   0.773   0.675   0.110  0.7545  0.2711 -0.1923
13196TIP3    H161079   0.743   0.731   0.039 -0.0678 -0.7926 -0.7081
13196TIP3    H261080   0.698   0.667   0.168  1.1867  0.5178  0.4114
13197TIP3   OH261081   0.529   0.381  17.114  0.8255 -0.0081 -0.0598
13197TIP3    H161082   0.581   0.462  17.114 -0.7569  1.0725  1.5916
13197TIP3    H261083   0.592   0.313  17.140  1.5974  1.1625  1.3100
13198TIP3   OH261084   1.423   5.517  17.091  0.6670  0.2627 -0.4618
13198TIP3    H161085   1.502   5.547  17.137 -0.0893 -2.0265  2.7400
13198TIP3    H261086   1.441   5.425  17.070 -1.3519 -0.5796  1.1342
13199TIP3   OH261087   0.028   5.895  15.067 -0.1297  0.2917 -0.6496
13199TIP3    H161088   0.098   5.958  15.052 -1.3608  2.7152  2.4982
13199TIP3    H261089   0.055   5.849  15.147 -1.1878 -0.2021 -0.5658
13200TIP3   OH261090   5.034   6.599   1.072 -0.2473  0.3118  0.1868
13200TIP3    H161091   5.039   6.664   1.001  0.4224 -1.2390 -1.2577
13200TIP3    H261092   4.957   6.546   1.050  0.7004 -0.9827 -0.1322
13201TIP3   OH261093   1.277   6.401   5.779 -0.5373  0.8257  0.1599
13201TIP3    H161094   1.309   6.359   5.699 -2.0813 -0.8543  0.3586
13201TIP3    H261095   1.265   6.328   5.840  1.3550  2.1316  2.2510
13202TIP3   OH261096   4.287   4.439   5.101 -0.8971  0.4248 -0.0413
13202TIP3    H161097   4.310   4.490   5.024 -0.9152 -0.2629 -0.5060
13202TIP3    H261098   4.228   4.371   5.069 -0.3624 -0.2862  0.4608
13203TIP3   OH261099   5.073   2.081  11.483  0.3012  0.2567 -0.6843
13203TIP3    H161100   5.117   2.015  11.429 -1.6000 -0.2927 -1.6617
13203TIP3    H261101   5.042   2.032  11.559 -2.1715 -0.3585 -1.9807
13204TIP3   OH261102   5.440   3.223   6.711 -0.5399 -0.2795  0.1576
13204TIP3    H161103   5.418   3.164   6.783  0.4946  1.0475  1.6170
13204TIP3    H261104   5.358   3.232   6.662 -0.8668 -2.4107  0.2322
13205TIP3   OH261105   6.020   5.841  12.259 -0.3626  0.5783 -0.5178
13205TIP3    H161106   6.048   5.841  12.351 -2.2767  0.7486  0.1151
13205TIP3    H261107   6.068   5.914  12.220  0.8278  0.2225  0.2276
13206TIP3   OH261108   6.332   6.292  11.481 -0.4644  0.0839 -0.4388
13206TIP3    H161109   6.239   6.315  11.478 -0.0324  1.9364 -0.9900
13206TIP3    H261110   6.359   6.292  11.389  0.1139 -0.3227 -0.2735
13207TIP3   OH261111   1.604   1.446   1.025 -0.0178 -0.0775 -0.4331
13207TIP3    H161112   1.599   1.505   0.950  0.6301  0.7084  0.1228
13207TIP3    H261113   1.698   1.429   1.036 -0.1093 -0.1911  0.1958
13208TIP3   OH261114   2.003   0.435  15.560 -0.5419 -0.1942  0.9636
13208TIP3    H161115   1.960   0.393  15.485 -0.2166  1.2225 -0.0652
13208TIP3    H261116   1.951   0.409  15.635 -2.4260  0.3971 -0.0733
13209TIP3   OH261117   1.561   0.434   4.083 -0.1701  0.0360  0.4458
13209TIP3    H161118   1.523   0.507   4.132  1.1305  1.9188 -1.1725
13209TIP3    H261119   1.607   0.382   4.149 -0.1676  1.3446  1.5240
13210TIP3   OH261120   5.053   3.213   2.825 -0.4372  0.0209 -0.8701
13210TIP3    H161121   5.084   3.255   2.905  0.6979 -3.8478  0.9465
13210TIP3    H261122   4.959   3.202   2.837 -0.4870  0.6174 -0.6953
13211TIP3   OH261123   1.785   3.276  11.941 -0.0860 -0.3039  0.0774
13211TIP3    H161124   1.811   3.246  11.854 -3.2620 -1.1913 -0.7150
13211TIP3    H261125   1.784   3.196  11.994  0.0987 -0.0590  0.4546
13212TIP3   OH261126   1.804   4.528  13.375 -0.2168  0.5767 -0.4043
13212TIP3    H161127   1.758   4.566  13.300  0.2799  2.4701  0.1912
13212TIP3    H261128   1.895   4.519  13.346 -0.2743  0.1071 -0.4433
13213TIP3   OH261129   4.941   3.069  14.929  0.3950  1.2840  0.4035
13213TIP3    H161130   5.009   3.088  14.865 -0.1248  1.4563 -0.1093
13213TIP3    H261131   4.966   2.984  14.966  0.0198  0.5354 -0.9787
13214TIP3   OH261132   3.370   5.093   6.285 -0.5938 -0.2557  0.6106
13214TIP3    H161133   3.426   5.020   6.313 -1.5473 -0.6668  1.5115
13214TIP3    H261134   3.283   5.069   6.316 -1.0664  0.9075  0.2184
13215TIP3   OH261135   5.827   3.404   4.576 -0.4424 -0.0316 -0.3462
13215TIP3    H161136   5.910   3.403   4.529 -1.4751 -1.7608 -2.3062
13215TIP3    H261137   5.829   3.326   4.631 -1.0597 -0.5902 -1.0755
13216TIP3   OH261138   6.148   2.324   3.011  0.7555  0.3019  0.4402
13216TIP3    H161139   6.117   2.349   3.098  3.8010 -0.7215  1.9926
13216TIP3    H261140   6.194   2.401   2.978  1.4746  0.0135  0.7443
13217TIP3   OH261141   3.728   5.958   1.878 -0.4890  0.0707 -0.1803
13217TIP3    H161142   3.659   6.024   1.886 -0.8958 -0.2641 -0.8416
13217TIP3    H261143   3.760   5.946   1.968  1.0760  2.6742 -0.2946
13218TIP3   OH261144   3.009   6.630   5.618 -0.7469 -0.0906  0.0216
13218TIP3    H161145   2.964   6.556   5.659  0.3737  0.5667  2.6864
13218TIP3    H261146   3.010   6.610   5.525 -2.2793 -2.4098  0.4340
13219TIP3   OH261147   5.682   5.521  16.304 -1.0020  0.3867  0.1693
13219TIP3    H161148   5.593   5.557  16.308 -1.2961 -0.3935  0.7673
13219TIP3    H261149   5.711   5.520  16.395 -0.9246 -0.6945  0.1413
13220TIP3   OH261150   4.447   0.356   2.538  0.3708 -0.4626  0.3413
13220TIP3    H161151   4.424   0.270   2.572  2.2927 -0.0885  2.9032
13220TIP3    H261152   4.426   0.416   2.610  1.1170  0.9107 -0.5414
13221TIP3   OH261153   3.936   3.999   2.746 -0.0133  0.5375 -0.2829
13221TIP3    H161154   3.879   3.954   2.683 -1.3464  0.5696  0.8552
13221TIP3    H261155   3.889   4.080   2.767  0.3243  0.4588  0.8406
13222TIP3   OH261156   2.676   1.026  13.033  0.2828 -0.8027  0.2550
13222TIP3    H161157   2.683   1.006  12.939  3.1666  3.2295 -0.6430
13222TIP3    H261158   2.761   1.001  13.069  1.6917  3.2358  0.2643
13223TIP3   OH261159   3.233   0.268   0.965 -0.2474  0.3963 -0.6035
13223TIP3    H161160   3.166   0.336   0.951 -1.5049 -0.6726  0.0141
13223TIP3    H261161   3.233   0.253   1.059  1.0878  0.5749 -0.5627
13224TIP3   OH261162   0.963   0.409  15.601 -0.8996  0.0392 -0.4186
13224TIP3    H161163   0.925   0.416  15.514 -0.0962  2.8545 -0.6319
13224TIP3    H261164   0.912   0.471  15.654  0.1720  0.1671  0.4914
13225TIP3   OH261165   5.186   5.866  14.123  0.8046  0.6044  0.0151
13225TIP3    H161166   5.099   5.904  14.113  0.3936  0.1548  1.6770
13225TIP3    H261167   5.175   5.774  14.101  0.1914 -0.0858  2.8695
13226TIP3   OH261168   6.655   2.901   5.014  0.1583 -0.9496  0.0051
13226TIP3    H161169   6.645   2.815   4.975  0.6974 -0.3531 -1.5134
13226TIP3    H261170   6.734   2.937   4.974 -0.1648  0.3396  0.4524
13227TIP3   OH261171   1.471   4.304   0.587  0.5365  0.1227  0.3748
13227TIP3    H161172   1.493   4.337   0.500 -0.3525 -0.5206 -0.0966
13227TIP3    H261173   1.385   4.341   0.607  0.1583 -0.7679  0.4315
13228TIP3   OH261174   6.620   1.986  14.013  0.0982  0.1029  0.8916
13228TIP3    H161175   6.652   2.020  13.930 -0.9062  0.8039  0.7679
13228TIP3    H261176   6.604   2.064  14.067  1.1909 -0.3576  1.9383
13229TIP3   OH261177   1.344   0.607   1.870 -0.9514 -0.4652 -0.2375
13229TIP3    H161178   1.437   0.595   1.850 -1.2011 -1.9839 -0.6891
13229TIP3    H261179   1.335   0.576   1.961 -0.8850  0.4343  0.0779
13230TIP3   OH261180   3.976   0.913  15.812 -0.5370 -0.0763  0.5608
13230TIP3    H161181   3.960   1.007  15.826  0.7073  0.6214 -2.0565
13230TIP3    H261182   3.889   0.873  15.815 -1.3466  1.5132 -0.3695
13231TIP3   OH261183   5.968   1.245  10.262 -0.0409  0.2563 -0.5503
13231TIP3    H161184   5.999   1.335  10.254  1.1013  0.0262  0.8154
13231TIP3    H261185   6.048   1.192  10.272 -0.7380 -0.5263  1.6334
13232TIP3   OH261186   4.739   6.037   3.832  0.3511 -0.3292  0.0734
13232TIP3    H161187   4.765   6.119   3.873  0.5835  1.2571 -2.9123
13232TIP3    H261188   4.821   5.993   3.810  0.2617 -0.6882  0.4627
13233TIP3   OH261189   6.083   6.449  14.637  0.1953  0.2733  0.5011
13233TIP3    H161190   6.164   6.479  14.678  0.8148 -1.3153  0.5336
13233TIP3    H261191   6.013   6.480  14.696  0.7571  1.6376  0.4821
13234TIP3   OH261192   1.465   5.739  11.063  0.3488 -0.2929 -0.3812
13234TIP3    H161193   1.372   5.764  11.072  0.3675 -0.0163 -0.9313
13234TIP3    H261194   1.463   5.654  11.020  0.3843  0.6100 -2.2883
13235TIP3   OH261195   2.436   4.580   2.310  0.1470  1.1532  0.0945
13235TIP3    H161196   2.441   4.610   2.219  0.1800 -0.1244 -0.3350
13235TIP3    H261197   2.343   4.589   2.332 -0.2211 -0.3748 -0.7268
13236TIP3   OH261198   3.926   4.468  10.812 -0.2327  0.4828 -0.4283
13236TIP3    H161199   3.862   4.399  10.793  0.6572 -0.7229  0.7713
13236TIP3    H261200   3.990   4.461  10.741  0.8124 -1.1739  0.6119
13237TIP3   OH261201   5.333   1.722   0.725 -0.1896  0.8207  0.0737
13237TIP3    H161202   5.356   1.650   0.666 -1.5156  0.7483 -0.3817
13237TIP3    H261203   5.264   1.770   0.679  0.7150  2.4418  0.3412
13238TIP3   OH261204   0.330   3.380   6.026 -0.2586 -0.0259  0.1142
13238TIP3    H161205   0.390   3.452   6.047 -1.2056  0.4900  1.1763
13238TIP3    H261206   0.355   3.310   6.086 -0.6864  0.1770  0.5328
13239TIP3   OH261207   4.771   2.260  14.583  0.2290 -0.0925 -0.1272
13239TIP3    H161208   4.687   2.253  14.537  0.2291 -1.5543  0.0462
13239TIP3    H261209   4.828   2.196  14.539  0.9050  0.0744  0.4863
13240TIP3   OH261210   5.747   5.188  14.260 -0.6280  0.1239 -0.2315
13240TIP3    H161211   5.790   5.255  14.206 -0.4076 -0.2410 -0.5140
13240TIP3    H261212   5.687   5.237  14.316  2.0888  0.9760  2.1684
13241TIP3   OH261213   2.300   0.010  15.144 -0.1132 -0.1061 -0.1387
13241TIP3    H161214   2.210   0.029  15.116 -0.5998  0.1143  1.5094
13241TIP3    H261215   2.294  -0.004  15.238  1.1987 -2.5925 -0.3546
13242TIP3   OH261216   1.189   3.190   0.845  0.0048  0.0614  0.2363
13242TIP3    H161217   1.108   3.188   0.896 -0.5474  1.2372 -0.5423
13242TIP3    H261218   1.163   3.159   0.758  0.7712 -1.2078  0.4490
13243TIP3   OH261219   3.158   5.125  12.395  0.2567 -0.2608 -0.0963
13243TIP3    H161220   3.197   5.125  12.308  1.4376  0.2186  0.4114
13243TIP3    H261221   3.079   5.179  12.386  1.2266  1.1273 -0.5199
13244TIP3   OH261222   4.641   4.436   3.350  0.3717  0.5825 -0.0464
13244TIP3    H161223   4.557   4.469   3.379 -0.2815 -2.3042  1.7420
13244TIP3    H261224   4.660   4.485   3.270 -1.6473  3.2088  0.9487
13245TIP3   OH261225   2.213   6.352  13.667 -0.3673  0.0304  0.0687
13245TIP3    H161226   2.233   6.270  13.714 -1.1594 -0.3023 -0.1570
13245TIP3    H261227   2.180   6.323  13.582  2.0689  0.6390 -1.1832
13246TIP3   OH261228   6.448   0.211   1.282  0.2038  0.5827 -0.1662
13246TIP3    H161229   6.364   0.178   1.312 -0.4262  0.2513 -2.1306
13246TIP3    H261230   6.432   0.303   1.262  0.1620  0.3898 -1.0363
13247TIP3   OH261231   2.867   6.495  11.488 -0.2270 -0.4806  0.0215
13247TIP3    H161232   2.836   6.494  11.398  0.5402 -1.4215 -0.2539
13247TIP3    H261233   2.903   6.407  11.502  0.9381  0.0852  0.7714
13248TIP3   OH261234   2.122   2.742   0.140 -0.0400 -0.0107  0.3746
13248TIP3    H161235   2.055   2.712   0.201  0.1909 -1.2681  0.0294
13248TIP3    H261236   2.205   2.713   0.179  0.3122  1.3363  0.6862
13249TIP3   OH261237   2.569   1.614   1.365  0.2979  0.1823 -0.0993
13249TIP3    H161238   2.525   1.683   1.314 -1.6063 -0.9522 -0.1089
13249TIP3    H261239   2.523   1.613   1.449 -0.7362 -1.9996 -0.6148
13250TIP3   OH261240   5.492   4.095   2.063 -0.1787 -0.4375  0.3200
13250TIP3    H161241   5.481   4.051   1.979 -0.9481 -1.0869  0.7450
13250TIP3    H261242   5.404   4.129   2.084 -0.4542 -1.8876  1.7127
13251TIP3   OH261243   0.313   0.678   2.783 -0.1321  0.2183  0.5571
13251TIP3    H161244   0.268   0.718   2.709  0.8364  3.3991  1.5201
13251TIP3    H261245   0.243   0.634   2.832 -1.7462  2.4293  0.4133
13252TIP3   OH261246   0.963   5.978   0.494 -0.0518 -0.1203 -0.1968
13252TIP3    H161247   0.996   5.969   0.584  2.1350 -1.2574 -1.0440
13252TIP3    H261248   0.868   5.978   0.504  0.1250  0.2046  2.1488
13253TIP3   OH261249   0.773   5.578   0.160  0.2369 -0.0094 -0.1286
13253TIP3    H161250   0.786   5.620   0.245  1.3773 -0.2195 -0.1813
13253TIP3    H261251   0.836   5.622   0.102 -1.6994  1.3432 -1.3271
13254TIP3   OH261252   5.638   4.652  11.296  0.2298 -0.2740 -0.0429
13254TIP3    H161253   5.699   4.722  11.273 -0.2267  0.3283  0.5649
13254TIP3    H261254   5.608   4.618  11.211  2.1566 -1.2806 -0.3854
13255TIP3   OH261255   6.358   3.874   4.414  0.2182 -0.1785  0.3432
13255TIP3    H161256   6.427   3.825   4.459  1.6437  0.1371 -1.4042
13255TIP3    H261257   6.306   3.912   4.485  3.1249  1.4000  1.8035
13256TIP3   OH261258   2.965   3.351  14.447 -0.4409  0.4948  0.2681
13256TIP3    H161259   2.923   3.266  14.461 -0.4023  0.5249  0.5765
13256TIP3    H261260   2.995   3.348  14.356  0.2417 -0.1230  0.5045
13257TIP3   OH261261   3.562   6.696   1.948  0.5873 -0.1363  0.0245
13257TIP3    H161262   3.473   6.675   1.976 -0.5131  1.7287 -1.7964
13257TIP3    H261263   3.618   6.649   2.010 -1.5769  1.8320  3.8370
13258TIP3   OH261264   1.035   3.540   5.645  0.0822 -0.0807 -0.3463
13258TIP3    H161265   0.965   3.588   5.690  0.0461  0.0688 -0.5634
13258TIP3    H261266   1.059   3.595   5.571 -0.0888 -0.4816 -0.7062
13259TIP3   OH261267   0.685   0.421  10.088 -0.2811 -0.1532  0.0913
13259TIP3    H161268   0.700   0.328  10.103 -1.7875 -0.4755 -0.2379
13259TIP3    H261269   0.707   0.462  10.172  0.1961 -0.8227  0.3025
13260TIP3   OH261270   4.683   4.247  16.039 -0.4706  0.0821 -0.6694
13260TIP3    H161271   4.709   4.177  16.099 -0.7812  1.3450  1.0260
13260TIP3    H261272   4.757   4.256  15.978 -1.0418 -2.6836 -1.9324
13261TIP3   OH261273   2.672   0.918  10.597  0.4052  0.0599  0.0620
13261TIP3    H161274   2.743   0.929  10.660 -0.1187  4.0790  0.2283
13261TIP3    H261275   2.713   0.938  10.512  0.1972 -1.1920 -0.3526
13262TIP3   OH261276   1.362   6.362  10.743 -0.1901  0.0592  0.1257
13262TIP3    H161277   1.430   6.363  10.675  1.2044  0.2682  1.4560
13262TIP3    H261278   1.281   6.383  10.697  0.4807 -1.0310 -1.6724
13263TIP3   OH261279   5.607   0.304   0.571 -0.1094 -0.1783 -0.1539
13263TIP3    H161280   5.637   0.382   0.524 -0.7619 -0.0800 -0.4140
13263TIP3    H261281   5.527   0.278   0.526 -1.9339  1.1157  2.1100
13264TIP3   OH261282   2.204   4.144  13.625 -0.1981  0.3371 -0.2010
13264TIP3    H161283   2.121   4.192  13.620 -0.5993 -0.0618  1.7799
13264TIP3    H261284   2.261   4.199  13.679  0.1374 -0.2894  0.1071
13265TIP3   OH261285   6.282   0.437   0.432  0.1239  0.2750 -0.7165
13265TIP3    H161286   6.327   0.507   0.480 -1.6268  1.5035 -0.7721
13265TIP3    H261287   6.300   0.456   0.340 -0.7801  1.0027 -0.7588
13266TIP3   OH261288   0.381   0.423   4.093 -0.2498 -0.3928  0.1260
13266TIP3    H161289   0.291   0.454   4.102 -0.8993 -1.9598 -0.6637
13266TIP3    H261290   0.425   0.493   4.043 -1.0074  0.3933  0.5291
13267TIP3   OH261291   0.362   3.819  14.444 -0.1475  0.3270  0.0990
13267TIP3    H161292   0.386   3.890  14.384 -2.8694  1.4285  0.1999
13267TIP3    H261293   0.271   3.799  14.422  0.0860 -2.1177  1.1139
13268TIP3   OH261294   4.353   2.978  16.436  0.2849  0.3574  0.3621
13268TIP3    H161295   4.306   2.995  16.517  0.3757  0.7362  0.3362
13268TIP3    H261296   4.445   2.989  16.459  0.2393  2.4404 -0.2348
13269TIP3   OH261297   3.963   3.477   4.384  0.1331 -0.0323 -0.2291
13269TIP3    H161298   4.045   3.435   4.409  0.3912  0.0533 -0.9154
13269TIP3    H261299   3.985   3.568   4.369  0.6102 -0.5363 -3.3786
13270TIP3   OH261300   0.901   1.821   1.835 -0.1651  0.2134 -0.0600
13270TIP3    H161301   0.890   1.817   1.740 -1.7986  0.1636  0.0902
13270TIP3    H261302   0.980   1.873   1.849  2.4325 -2.9879 -1.4810
13271TIP3   OH261303   6.037   0.747   6.079  0.4816  0.3340 -0.1946
13271TIP3    H161304   6.054   0.659   6.046  2.3495 -0.4742  2.5962
13271TIP3    H261305   6.123   0.782   6.102 -0.4667  1.4899  1.9484
13272TIP3   OH261306   4.773   1.104   3.499 -0.2714 -0.3960 -0.0883
13272TIP3    H161307   4.814   1.157   3.569 -1.4073 -0.4803  0.6589
13272TIP3    H261308   4.709   1.163   3.459 -0.6006 -0.7897 -0.1412
13273TIP3   OH261309   1.259   0.115  14.411  0.4003  0.0734  0.1657
13273TIP3    H161310   1.177   0.118  14.362  0.3736  0.4506  0.2294
13273TIP3    H261311   1.272   0.205  14.441 -0.2541 -0.3661  1.9291
13274TIP3   OH261312   5.471   5.377   1.619 -0.2764 -0.9319 -0.1440
13274TIP3    H161313   5.397   5.322   1.643 -0.5201 -0.3992  0.3359
13274TIP3    H261314   5.437   5.466   1.623  0.6751 -0.6003  1.1421
13275TIP3   OH261315   4.909   0.661  12.589 -0.5029  0.1442 -0.1355
13275TIP3    H161316   4.968   0.646  12.515 -0.2348  1.6673 -0.2670
13275TIP3    H261317   4.890   0.574  12.622 -1.0747 -0.6340 -2.3332
13276TIP3   OH261318   3.686   1.450   1.976  0.3623 -0.2066 -0.9056
13276TIP3    H161319   3.685   1.363   2.014 -1.4072 -0.0690 -0.5645
13276TIP3    H261320   3.729   1.439   1.891 -0.2511 -1.5008 -1.0609
13277TIP3   OH261321   6.647   0.392  13.114  0.0660 -0.4184  0.4508
13277TIP3    H161322   6.696   0.377  13.033 -0.2084 -0.2434  0.2509
13277TIP3    H261323   6.640   0.487  13.122 -1.1389 -0.4442 -0.0799
13278TIP3   OH261324   2.163   1.955   2.130  0.1064 -0.0633  0.0692
13278TIP3    H161325   2.081   1.908   2.149  0.3997 -0.5900  0.0668
13278TIP3    H261326   2.229   1.886   2.124  0.8659  0.4632  1.6960
13279TIP3   OH261327   6.110   2.388   2.519 -0.3787 -0.2260 -0.4567
13279TIP3    H161328   6.180   2.453   2.527 -0.9826  0.5766 -1.5152
13279TIP3    H261329   6.157   2.306   2.504  0.4260 -0.2530  1.7911
13280TIP3   OH261330   1.873   5.163   0.047  0.1923 -0.0639  0.0559
13280TIP3    H161331   1.848   5.080   0.006 -0.2120 -0.1960  0.5639
13280TIP3    H261332   1.894   5.139   0.137  1.3686  0.1764 -0.1333
13281TIP3   OH261333   6.724   1.846  16.631  0.6671 -0.5844 -0.2606
13281TIP3    H161334   6.688   1.932  16.610 -1.4116 -1.7766 -2.0669
13281TIP3    H261335   6.668   1.813  16.702 -1.9128 -2.3291 -2.8841
13282TIP3   OH261336   1.795   3.704   5.909  0.1827 -0.7829 -0.5965
13282TIP3    H161337   1.870   3.646   5.893  0.2561 -0.8131 -0.1439
13282TIP3    H261338   1.734   3.650   5.960  0.4682 -0.3037  0.2673
13283TIP3   OH261339   3.020   0.985   4.277 -0.2717 -0.4201 -0.0111
13283TIP3    H161340   3.040   1.076   4.255 -2.1417 -0.1795 -0.8161
13283TIP3    H261341   2.966   0.953   4.205 -0.6158 -1.8144  0.8248
13284TIP3   OH261342   0.031   2.802   0.065 -0.8101 -0.4212  0.3168
13284TIP3    H161343   0.002   2.784  -0.025 -0.4817  2.3919 -0.4515
13284TIP3    H261344   0.114   2.755   0.073 -1.6666 -2.0991 -0.2131
13285TIP3   OH261345   0.082   4.381   1.098 -0.6744  0.2290 -0.1952
13285TIP3    H161346   0.080   4.397   1.192 -0.3853 -0.4088 -0.0755
13285TIP3    H261347   0.175   4.376   1.076 -0.7416 -0.3117 -0.3830
13286TIP3   OH261348   3.038   2.831   3.526 -0.6069  0.6021 -0.0036
13286TIP3    H161349   2.960   2.784   3.496 -0.6953 -0.8189  2.1707
13286TIP3    H261350   3.106   2.764   3.530 -0.2100  1.0565  1.3732
13287TIP3   OH261351   3.232   5.714  12.451 -0.5209  0.3289 -0.5057
13287TIP3    H161352   3.289   5.737  12.377  0.9010  1.7942  0.9670
13287TIP3    H261353   3.289   5.665  12.510 -1.1672  0.6511  0.3988
13288TIP3   OH261354   6.523   4.400  16.443 -0.6452 -0.1205  0.1609
13288TIP3    H161355   6.579   4.404  16.365 -3.0021  0.1185 -1.6430
13288TIP3    H261356   6.536   4.484  16.487 -1.1504  0.8326 -1.4263
13289TIP3   OH261357   0.169   1.117  12.795  0.5676 -0.7729 -0.0603
13289TIP3    H161358   0.261   1.123  12.771  0.8485 -3.1346  0.1786
13289TIP3    H261359   0.139   1.034  12.757 -1.3067 -0.3497  0.3648
13290TIP3   OH261360   2.157   4.788   3.824  0.3771 -0.0456  0.4379
13290TIP3    H161361   2.146   4.778   3.729 -0.5321 -2.1680  0.7322
13290TIP3    H261362   2.219   4.861   3.832  0.4662  0.2082 -1.7731
13291TIP3   OH261363   3.705   2.508   6.460 -0.5022  0.5621 -0.7947
13291TIP3    H161364   3.630   2.516   6.519 -0.9943 -1.3077 -1.0837
13291TIP3    H261365   3.781   2.533   6.513 -1.3090  2.8071 -0.5863
13292TIP3   OH261366   1.369   1.350   2.201 -0.1288  0.5068  0.3594
13292TIP3    H161367   1.351   1.432   2.248 -0.3194 -0.4427  2.0125
13292TIP3    H261368   1.465   1.345   2.198 -0.0958 -0.0766  1.8769
13293TIP3   OH261369   5.716   2.153  11.935  0.1165 -0.8642  0.5047
13293TIP3    H161370   5.751   2.160  11.846 -1.6686  1.3778 -0.1179
13293TIP3    H261371   5.629   2.115  11.923 -0.1838 -0.4415  1.2757
13294TIP3   OH261372   3.072   0.992   3.533  0.4606  0.4810 -0.5383
13294TIP3    H161373   3.111   1.004   3.446  1.2069  0.9622 -0.1459
13294TIP3    H261374   2.996   1.049   3.533  0.2981  0.2710 -0.9730
13295TIP3   OH261375   4.969   5.725  16.240  0.0830  0.2704  0.4445
13295TIP3    H161376   5.029   5.773  16.182  0.4957 -0.3568  0.3455
13295TIP3    H261377   5.027   5.681  16.302 -0.3811  1.6079  1.8947
13296TIP3   OH261378   5.251   5.919   3.242 -0.0482  0.4189 -0.4297
13296TIP3    H161379   5.194   5.986   3.202 -0.4178  0.7211  0.5680
13296TIP3    H261380   5.302   5.885   3.169  0.9474  2.5719 -0.8134
13297TIP3   OH261381   1.251   4.081  13.535 -0.1234 -0.0300  0.4029
13297TIP3    H161382   1.314   4.132  13.586  0.1728 -0.8614  0.8898
13297TIP3    H261383   1.181   4.062  13.597 -0.5940  0.4077  0.0163
13298TIP3   OH261384   5.890   2.876  12.455  0.0028  0.4375  0.0435
13298TIP3    H161385   5.866   2.933  12.528 -0.1746 -0.0771  0.3889
13298TIP3    H261386   5.855   2.790  12.478 -1.3326  0.5745 -1.3020
13299TIP3   OH261387   5.660   5.505  10.799 -0.0239 -0.0070 -0.2042
13299TIP3    H161388   5.637   5.519  10.707  1.0174  1.6025 -0.2749
13299TIP3    H261389   5.599   5.560  10.848 -0.5002 -0.7691  0.0663
13300TIP3   OH261390   1.148   6.004   2.036  0.2479 -0.2971 -0.1120
13300TIP3    H161391   1.055   6.020   2.018 -0.3319 -1.5398  1.4766
13300TIP3    H261392   1.171   5.931   1.979  0.2446 -0.0080 -0.4859
13301TIP3   OH261393   2.991   1.523  15.310 -0.4152  0.6843  0.0818
13301TIP3    H161394   3.025   1.609  15.334  1.2651 -0.5094  2.3139
13301TIP3    H261395   3.013   1.514  15.217 -3.3579  3.7673 -1.1519
13302TIP3   OH261396   2.268   3.954  17.158 -0.2975  0.0713  0.2941
13302TIP3    H161397   2.197   3.992  17.106 -1.0414 -0.2734  1.0260
13302TIP3    H261398   2.255   3.860  17.151  1.4092 -0.0978 -1.3388
13303TIP3   OH261399   2.485   1.316   2.023 -0.2359  0.4296  0.3482
13303TIP3    H161400   2.523   1.329   2.110  0.9468  0.8366 -0.2037
13303TIP3    H261401   2.455   1.226   2.023 -1.8002  0.8960  1.7376
13304TIP3   OH261402   2.586   5.471  15.209 -0.3303  0.4218 -0.3890
13304TIP3    H161403   2.594   5.523  15.129 -0.9879 -0.1396 -0.8308
13304TIP3    H261404   2.556   5.385  15.179 -0.5850  0.2053  0.4589
13305TIP3   OH261405   6.051   3.819  16.022  0.3123 -0.3057  0.3248
13305TIP3    H161406   6.147   3.818  16.013  0.1909 -0.7082 -1.2412
13305TIP3    H261407   6.029   3.912  16.027  0.6192 -0.0276 -2.0883
13306TIP3   OH261408   3.858   1.220  12.730 -0.0453 -0.0851  0.2159
13306TIP3    H161409   3.897   1.301  12.762  0.1496 -0.4191  0.8470
13306TIP3    H261410   3.805   1.188  12.803 -0.1432 -0.5056 -0.0353
13307TIP3   OH261411   2.421   2.982   0.447 -0.3549  0.1702  0.7699
13307TIP3    H161412   2.330   3.012   0.446 -1.1863 -2.1485  1.2563
13307TIP3    H261413   2.443   2.969   0.355 -0.0883  1.7857  0.5693
13308TIP3   OH261414   5.830   1.517  16.152  0.2608  0.1805  0.3122
13308TIP3    H161415   5.839   1.603  16.194  0.1537  0.0881  0.5285
13308TIP3    H261416   5.919   1.490  16.133  0.4481 -0.5272  2.0164
13309TIP3   OH261417   5.396   2.977  11.715 -0.1804  0.0711  0.7419
13309TIP3    H161418   5.333   2.980  11.787 -0.4469  0.2485  0.5087
13309TIP3    H261419   5.475   2.941  11.753 -0.6088 -0.7143  0.9015
13310TIP3   OH261420   3.991   5.068  10.771  0.5832 -0.0261 -0.4546
13310TIP3    H161421   3.938   5.139  10.735  0.7392  0.5794  0.4836
13310TIP3    H261422   4.064   5.112  10.816  1.0238 -0.7941 -0.3953
13311TIP3   OH261423   1.650   3.113  17.284 -0.0184 -0.2681 -0.2701
13311TIP3    H161424   1.691   3.153  17.360  0.4874 -1.3855  0.0714
13311TIP3    H261425   1.690   3.026  17.278 -2.3332 -1.4533  0.0987
13312TIP3   OH261426   5.707   4.331   5.277  0.5413  0.4665 -0.0575
13312TIP3    H161427   5.703   4.424   5.253  0.9424  0.2057 -1.2006
13312TIP3    H261428   5.797   4.318   5.304  0.5061  0.3805  0.0176
13313TIP3   OH261429   0.574   6.061  11.613 -0.3510  0.3314 -0.8584
13313TIP3    H161430   0.533   6.132  11.663  0.0506 -0.8219  1.2003
13313TIP3    H261431   0.632   6.018  11.675 -1.0833 -2.2463 -1.8275
13314TIP3   OH261432   2.985   3.123   0.580 -0.2581  0.1942 -0.0120
13314TIP3    H161433   3.026   3.045   0.542  0.2917  1.1135 -1.3863
13314TIP3    H261434   3.058   3.181   0.600 -0.7640  1.2088 -1.0082
13315TIP3   OH261435   3.481   6.034  13.047 -0.0523 -0.0755 -0.3188
13315TIP3    H161436   3.554   5.988  13.088  1.5509  1.8146 -0.9102
13315TIP3    H261437   3.500   6.030  12.953 -0.6070  0.5993 -0.4695
13316TIP3   OH261438   5.556   4.725   1.759  0.2035  0.5862  0.7232
13316TIP3    H161439   5.506   4.750   1.836 -0.7386 -1.4780  0.8389
13316TIP3    H261440   5.601   4.644   1.785 -0.5991 -0.4846 -1.0355
13317TIP3   OH261441   6.493   0.335   3.996 -0.1367 -0.2583  0.2874
13317TIP3    H161442   6.408   0.295   3.977  0.3078 -1.3641  0.5284
13317TIP3    H261443   6.541   0.329   3.914 -0.8848  2.0563 -0.4117
13318TIP3   OH261444   0.779   3.051  16.685 -0.5960  0.8129 -0.2547
13318TIP3    H161445   0.866   3.061  16.648  0.2404 -1.0219  1.0820
13318TIP3    H261446   0.789   3.072  16.778 -1.5988  0.6315 -0.0870
13319TIP3   OH261447   6.453   0.798   1.302  0.8734 -0.1543  0.0041
13319TIP3    H161448   6.374   0.852   1.299  1.3481  0.8719  2.8214
13319TIP3    H261449   6.428   0.720   1.351  0.4904 -2.1851 -3.1036
13320TIP3   OH261450   4.564   5.017   4.974  0.6138  0.2002 -0.3770
13320TIP3    H161451   4.580   4.925   4.955 -1.7087 -0.0808 -1.3312
13320TIP3    H261452   4.565   5.060   4.888  0.7328  0.8992 -0.0366
13321TIP3   OH261453   4.248   0.508   0.193 -0.1605 -0.5769  0.2263
13321TIP3    H161454   4.212   0.446   0.256  0.8354 -0.4645  0.9301
13321TIP3    H261455   4.244   0.593   0.237 -3.0562  0.2444 -1.3339
13322TIP3   OH261456   0.442   3.592  11.384  0.3126  0.1158 -0.6342
13322TIP3    H161457   0.377   3.662  11.389  0.1111 -0.1034 -0.0115
13322TIP3    H261458   0.507   3.623  11.322  0.2467  0.8704 -0.3309
13323TIP3   OH261459   1.873   3.172  14.529  0.0262  0.9416 -0.0275
13323TIP3    H161460   1.793   3.119  14.536 -0.0877  1.1429  0.1808
13323TIP3    H261461   1.914   3.164  14.615  0.4939  0.4206 -0.2899
13324TIP3   OH261462   6.800   5.039  14.658  0.1940 -0.7711  0.4052
13324TIP3    H161463   6.738   5.103  14.623  1.2310 -0.4893 -1.0574
13324TIP3    H261464   6.873   5.040  14.595  1.5018 -1.3645  1.8388
13325TIP3   OH261465   3.093   4.909   2.558  0.9371  0.1831 -0.4321
13325TIP3    H161466   3.107   4.836   2.619  1.5623  0.5579 -0.1153
13325TIP3    H261467   3.136   4.881   2.477 -0.1533 -0.4427 -0.8090
13326TIP3   OH261468   1.580   5.191  16.297  0.6399  0.1775  0.5255
13326TIP3    H161469   1.546   5.265  16.347 -0.3826  1.9579 -2.5128
13326TIP3    H261470   1.506   5.162  16.243  1.8961 -0.9287 -0.6937
13327TIP3   OH261471   4.489   5.714   6.467 -0.4861 -0.5439  0.0018
13327TIP3    H161472   4.417   5.723   6.530 -0.0422 -0.6335  0.5281
13327TIP3    H261473   4.450   5.668   6.393 -0.9141 -0.8029  0.3803
13328TIP3   OH261474   3.769   2.977   4.082 -0.3119 -0.1641 -0.1392
13328TIP3    H161475   3.679   2.944   4.083 -0.5874  0.5836  0.3859
13328TIP3    H261476   3.766   3.051   4.021 -0.2052  0.2691  0.3783
13329TIP3   OH261477   1.203   2.708  14.394  1.1300 -0.0518  0.0370
13329TIP3    H161478   1.294   2.693  14.421  1.1442 -0.7172 -0.3522
13329TIP3    H261479   1.195   2.803  14.389  2.0508  0.0044 -0.7249
13330TIP3   OH261480   2.970   2.809  11.324 -0.4180  0.1503 -0.4290
13330TIP3    H161481   2.971   2.729  11.273  0.0052 -0.1041 -0.0290
13330TIP3    H261482   2.955   2.879  11.260  0.9261 -0.0775 -1.0192
13331TIP3   OH261483   4.936   0.720   4.235  0.0458 -0.5256 -0.4939
13331TIP3    H161484   4.846   0.745   4.217  0.3016  0.7168 -0.1041
13331TIP3    H261485   4.968   0.685   4.152 -0.8384 -1.1477 -0.5876
13332TIP3   OH261486   4.842   2.689  16.020  0.3187 -0.1464  0.1206
13332TIP3    H161487   4.881   2.723  15.939  0.3911  1.5121  0.8021
13332TIP3    H261488   4.816   2.767  16.069  2.0289 -0.9660  2.5762
13333TIP3   OH261489   6.262   6.722   3.011 -0.2008  0.2712  0.0771
13333TIP3    H161490   6.200   6.751   2.945  1.6167  0.8771 -1.4606
13333TIP3    H261491   6.300   6.802   3.046 -0.2012 -0.0833  0.9088
13334TIP3   OH261492   5.738   3.237   4.016  0.6519 -0.8079 -0.3592
13334TIP3    H161493   5.751   3.330   4.035  0.1231 -0.9311  0.6305
13334TIP3    H261494   5.762   3.192   4.097 -0.2926 -1.4462 -0.4296
13335TIP3   OH261495   5.628   3.263   3.087  0.2504  0.0890  0.5045
13335TIP3    H161496   5.655   3.355   3.078 -1.1128  0.5037  0.3979
13335TIP3    H261497   5.699   3.213   3.045 -0.9821  1.3519 -3.5535
13336TIP3   OH261498   6.258   1.120   5.270  0.0451  0.2654 -0.2026
13336TIP3    H161499   6.177   1.152   5.231  1.1410  1.3748 -1.7145
13336TIP3    H261500   6.322   1.123   5.199  0.9133 -2.8582  0.2746
13337TIP3   OH261501   2.807   4.332  10.800 -0.3458 -0.0097  0.2272
13337TIP3    H161502   2.845   4.416  10.775 -0.3237 -0.2535 -0.5887
13337TIP3    H261503   2.861   4.267  10.756  0.5809 -0.5485  2.0442
13338TIP3   OH261504   1.461   4.438   4.982  0.6951  0.6224 -0.5336
13338TIP3    H161505   1.380   4.444   4.931  0.0285  0.8076  0.5312
13338TIP3    H261506   1.433   4.413   5.070  1.8584  0.0278 -0.3074
13339TIP3   OH261507   1.328   1.867   4.117 -0.0168 -0.1110  0.0508
13339TIP3    H161508   1.421   1.857   4.137 -0.2811 -1.1829  0.8484
13339TIP3    H261509   1.287   1.881   4.203 -0.5635  0.6930 -0.3274
13340TIP3   OH261510   4.673   6.280  10.882 -0.1502 -0.2354  0.4455
13340TIP3    H161511   4.630   6.216  10.940  0.4832  0.0225  1.2286
13340TIP3    H261512   4.729   6.226  10.826 -0.1979 -0.4341  0.5848
13341TIP3   OH261513   4.835   1.967  17.262  0.0146 -0.0276 -0.0178
13341TIP3    H161514   4.816   1.965  17.169 -0.7775 -0.0313  0.1416
13341TIP3    H261515   4.755   2.000  17.303  0.8071  1.3003  0.5390
13342TIP3   OH261516   2.426   5.449  17.091 -1.0223 -0.2210 -0.1926
13342TIP3    H161517   2.373   5.498  17.028 -0.1405 -0.3144 -1.0336
13342TIP3    H261518   2.370   5.441  17.168 -2.1711 -0.2001 -0.9978
13343TIP3   OH261519   1.696   5.689   3.039 -0.1428 -0.2592 -0.3384
13343TIP3    H161520   1.630   5.666   2.974 -0.7634 -0.0135  0.1972
13343TIP3    H261521   1.777   5.698   2.988 -1.1357  2.8510 -1.6170
13344TIP3   OH261522   1.131   3.442  16.363  0.2776 -0.1167 -0.7574
13344TIP3    H161523   1.074   3.366  16.362 -1.1376  0.9023 -1.3365
13344TIP3    H261524   1.219   3.407  16.346 -0.0614 -1.7795  0.6197
13345TIP3   OH261525   0.917   5.779  16.188 -0.6764  0.1209  0.3344
13345TIP3    H161526   0.867   5.840  16.243 -0.0551 -0.0344  1.0980
13345TIP3    H261527   0.906   5.812  16.099 -0.4944  1.2440  0.7133
13346TIP3   OH261528   4.672   6.780   4.330  0.4185  0.2479  0.0454
13346TIP3    H161529   4.716   6.707   4.286 -1.5593 -0.9090 -0.1092
13346TIP3    H261530   4.634   6.741   4.409 -0.5966  1.1136  0.0088
13347TIP3   OH261531   4.713   4.605   3.149  0.2652  0.2187  0.5788
13347TIP3    H161532   4.716   4.635   3.058 -2.1012 -2.2113 -0.4590
13347TIP3    H261533   4.690   4.683   3.199  2.0043  1.7048 -0.7800
13348TIP3   OH261534   0.251   3.025  15.626 -0.3307  0.1019 -0.4009
13348TIP3    H161535   0.232   3.051  15.536  0.4023  0.4941 -0.4540
13348TIP3    H261536   0.329   2.970  15.618  0.2671  0.8572  0.0748
13349TIP3   OH261537   5.859   3.280   1.393  0.2715 -0.0821 -0.8361
13349TIP3    H161538   5.938   3.246   1.349  0.4554 -1.2916  0.3509
13349TIP3    H261539   5.801   3.304   1.321  1.3150 -0.1548 -1.7405
13350TIP3   OH261540   4.425   0.183   1.674  0.1264  0.2361  0.2107
13350TIP3    H161541   4.332   0.194   1.653  0.1956 -0.4961 -0.5114
13350TIP3    H261542   4.471   0.231   1.605  0.2865  0.8070  0.7076
13351TIP3   OH261543   5.573   1.240  10.629  0.2832  0.1937 -0.0998
13351TIP3    H161544   5.654   1.257  10.580  1.0143  2.6333  1.7610
13351TIP3    H261545   5.508   1.298  10.590  0.7113  1.6902  1.2900
13352TIP3   OH261546   1.921   0.254   6.241 -0.2098 -0.2386  0.2717
13352TIP3    H161547   1.998   0.236   6.187 -0.9179 -0.6322 -0.6291
13352TIP3    H261548   1.884   0.334   6.204 -0.0399  0.1502  0.9317
13353TIP3   OH261549   1.167   0.287  17.265  0.3430 -0.3719  0.7261
13353TIP3    H161550   1.119   0.319  17.342 -0.8998 -1.0231  0.2404
13353TIP3    H261551   1.229   0.357  17.246 -1.6618  1.3939  0.2573
13354TIP3   OH261552   4.855   6.045   2.586  0.5725  0.0881 -0.0814
13354TIP3    H161553   4.841   6.129   2.542  3.1366  0.6765  0.0709
13354TIP3    H261554   4.841   6.064   2.679  2.2463  0.6679  0.0762
13355TIP3   OH261555   2.898   0.979  17.264 -0.1526  0.1215 -0.6952
13355TIP3    H161556   2.823   1.004  17.210 -1.9842 -2.7387  0.2636
13355TIP3    H261557   2.961   0.942  17.202 -0.9621 -0.3921 -1.2317
13356TIP3   OH261558   6.506   3.744  16.698  0.3476  0.0607  1.3108
13356TIP3    H161559   6.481   3.659  16.662  1.8433 -0.1864  0.7653
13356TIP3    H261560   6.458   3.751  16.781 -1.5016 -0.3102  0.3238
13357TIP3   OH261561   0.859   1.093  13.286 -0.1394  0.6272 -0.8179
13357TIP3    H161562   0.910   1.173  13.269  2.5323 -0.5716  0.8256
13357TIP3    H261563   0.798   1.119  13.355  1.0794  1.1655  0.0991
13358TIP3   OH261564   6.185   1.500   5.410  1.1496 -0.0700 -0.3525
13358TIP3    H161565   6.246   1.506   5.337  0.7576  0.3680 -0.6543
13358TIP3    H261566   6.142   1.586   5.413  0.4586 -0.4090 -0.2301
13359TIP3   OH261567   1.789   1.137  16.493  0.1080  0.5787  0.3615
13359TIP3    H161568   1.812   1.228  16.512 -0.2136  0.2587  2.5966
13359TIP3    H261569   1.775   1.098  16.579 -1.8622 -1.0505 -0.6149
13360TIP3   OH261570   5.182   0.285   0.980  0.5102 -0.0289 -0.3444
13360TIP3    H161571   5.213   0.275   1.070  1.1498 -0.4643 -0.6058
13360TIP3    H261572   5.245   0.236   0.927  0.1800  0.2790 -1.0389
13361TIP3   OH261573   3.578   3.674  17.262 -1.0358  0.1385 -0.9100
13361TIP3    H161574   3.667   3.709  17.273 -0.7113 -0.0661 -2.5561
13361TIP3    H261575   3.530   3.743  17.217 -2.1944  0.8408  1.2451
13362TIP3   OH261576   2.616   5.416  12.025 -0.3581 -0.0511  0.6598
13362TIP3    H161577   2.689   5.458  12.070  1.0774 -1.0442 -0.6332
13362TIP3    H261578   2.627   5.323  12.046 -1.0613 -0.2455  0.1670
13363TIP3   OH261579   5.211   5.017   5.783 -0.1032  0.2923 -0.1863
13363TIP3    H161580   5.152   5.013   5.708 -1.1827 -1.1268  0.6978
13363TIP3    H261581   5.269   5.091   5.764 -0.5062  0.1213 -2.2883
13364TIP3   OH261582   2.098   5.889  16.467 -0.6672  0.0748 -0.7015
13364TIP3    H161583   2.140   5.891  16.553 -1.1602 -1.8785 -0.3655
13364TIP3    H261584   2.126   5.971  16.425  0.6176  0.4720  0.8090
13365TIP3   OH261585   6.355   2.289   2.308  0.5489  0.5025 -0.3483
13365TIP3    H161586   6.364   2.252   2.396 -2.0144  1.2430  0.3128
13365TIP3    H261587   6.327   2.215   2.254 -2.9736  0.9849  0.6285
13366TIP3   OH261588   0.927   3.426   0.206  0.2289  0.1224  0.3633
13366TIP3    H161589   0.896   3.452   0.293 -4.0212  1.4154 -1.2454
13366TIP3    H261590   0.891   3.338   0.193  2.2429 -0.7615  0.4196
13367TIP3   OH261591   2.079   2.553  15.225 -0.0370 -0.5105  0.1923
13367TIP3    H161592   2.145   2.486  15.207 -0.5771 -0.8969 -0.3829
13367TIP3    H261593   2.062   2.593  15.140 -0.3725 -0.2468  0.3819
13368TIP3   OH261594   2.363   2.226   5.166 -0.5089 -0.1056 -0.3137
13368TIP3    H161595   2.275   2.252   5.192 -0.1546 -0.7137  1.5903
13368TIP3    H261596   2.383   2.282   5.091 -2.3483  0.3187 -0.5260
13369TIP3   OH261597   4.353   3.451   4.615 -0.4946 -0.2830  0.0610
13369TIP3    H161598   4.352   3.442   4.520  0.8805 -0.8862  0.0734
13369TIP3    H261599   4.267   3.422   4.643 -0.6054 -0.9775 -0.9370
13370TIP3   OH261600   1.253   2.348  15.237 -0.7032 -0.4689  0.1425
13370TIP3    H161601   1.241   2.419  15.174  1.5301  1.1960  1.4176
13370TIP3    H261602   1.164   2.321  15.260 -1.5822 -0.7531 -3.1849
13371TIP3   OH261603   0.329   4.766  12.396  0.1537  0.6812 -0.8579
13371TIP3    H161604   0.323   4.686  12.343 -1.6892  0.0160  0.2474
13371TIP3    H261605   0.238   4.787  12.417  0.7164  2.0872  0.3257
13372TIP3   OH261606   3.069   3.852  13.781 -0.3915 -0.3364  0.4515
13372TIP3    H161607   2.991   3.905  13.798 -0.9845 -1.6550  2.0210
13372TIP3    H261608   3.110   3.842  13.867  1.4683  0.2222 -0.3221
13373TIP3   OH261609   4.279   4.661   2.770  0.1165 -0.6528 -0.0120
13373TIP3    H161610   4.250   4.583   2.724  0.9156 -1.5375  0.9170
13373TIP3    H261611   4.286   4.728   2.702  0.6887 -1.7472 -1.0785
13374TIP3   OH261612   5.127   1.110  15.446 -0.4665 -0.3294 -0.0160
13374TIP3    H161613   5.178   1.173  15.396 -0.6289  1.2095  1.6615
13374TIP3    H261614   5.185   1.033  15.453 -1.0602 -1.3464 -3.8597
13375TIP3   OH261615   2.782   3.649  15.464 -0.1356  0.3098 -0.0626
13375TIP3    H161616   2.705   3.672  15.515 -0.5533  0.7512 -0.8841
13375TIP3    H261617   2.851   3.708  15.496 -1.2752  3.1036 -2.4008
13376TIP3   OH261618   3.369   5.386   3.891  0.4843  0.2013 -0.1529
13376TIP3    H161619   3.324   5.304   3.913  0.4213 -0.4381 -2.3554
13376TIP3    H261620   3.388   5.377   3.797 -1.1399  3.4850 -0.9161
13377TIP3   OH261621   6.148   5.866  16.359 -0.6856  0.1743 -0.3577
13377TIP3    H161622   6.187   5.926  16.422  0.5558 -0.0788 -0.8625
13377TIP3    H261623   6.156   5.780  16.399 -2.9892  0.3314  0.6320
13378TIP3   OH261624   2.436   5.705   1.793 -0.2179  0.0861 -0.0431
13378TIP3    H161625   2.499   5.649   1.748 -0.5256  1.9346 -2.9732
13378TIP3    H261626   2.489   5.754   1.856  1.2197  1.0454 -1.9082
13379TIP3   OH261627   1.268   6.804   3.827 -0.5701  0.0183 -0.5606
13379TIP3    H161628   1.345   6.860   3.816 -0.6119  0.2809  0.3634
13379TIP3    H261629   1.296   6.736   3.888 -0.8991 -0.2327 -0.6877
13380TIP3   OH261630   4.200   1.551   2.874  0.1486 -0.1060 -0.2495
13380TIP3    H161631   4.173   1.629   2.923  0.7680 -0.2963  0.4103
13380TIP3    H261632   4.295   1.556   2.871  0.0929  0.2043 -1.9712
13381TIP3   OH261633   2.317   2.274   1.018  0.1666 -0.2392 -0.0028
13381TIP3    H161634   2.265   2.332   0.961  1.2740  0.8238  0.0250
13381TIP3    H261635   2.252   2.223   1.066 -0.8377  0.4672 -0.5714
13382TIP3   OH261636   4.734   1.702   1.651 -0.2150  0.4527 -0.1224
13382TIP3    H161637   4.760   1.789   1.620 -2.0836  0.4579 -1.8155
13382TIP3    H261638   4.745   1.707   1.746  0.9073  2.1124 -0.2889
13383TIP3   OH261639   6.681   5.419  12.165  0.1598  0.4158 -0.3728
13383TIP3    H161640   6.739   5.344  12.180  0.2702  0.3328 -1.1835
13383TIP3    H261641   6.684   5.433  12.071  0.4306  1.6776 -0.1973
13384TIP3   OH261642   0.873   3.408  12.018  0.1989 -0.4193  0.5530
13384TIP3    H161643   0.963   3.438  12.001  0.6080 -0.9846  1.5885
13384TIP3    H261644   0.847   3.454  12.097 -0.8943  0.6317 -0.3762
13385TIP3   OH261645   2.797   1.407  13.033  0.0652 -0.9470 -0.6883
13385TIP3    H161646   2.763   1.317  13.030  1.2032 -1.3715 -1.1665
13385TIP3    H261647   2.892   1.397  13.029  0.2342  0.2576 -0.0965
13386TIP3   OH261648   2.949   1.149   0.152  0.2420  0.3147 -0.3770
13386TIP3    H161649   2.975   1.225   0.100 -1.5376 -0.6256 -2.8352
13386TIP3    H261650   2.931   1.080   0.088 -0.9131 -1.3365  1.5711
13387TIP3   OH261651   3.978   5.302   4.233  0.0985 -0.2703 -0.5290
13387TIP3    H161652   3.949   5.346   4.154  1.0759 -0.8269 -1.2232
13387TIP3    H261653   3.902   5.301   4.291 -0.8268 -0.4545 -1.7329
13388TIP3   OH261654   6.048   0.853   4.789 -0.8080  0.3016 -0.3217
13388TIP3    H161655   6.019   0.945   4.792  0.8783  0.8525  2.2731
13388TIP3    H261656   5.968   0.803   4.801 -1.3975  1.6103  1.8772
13389TIP3   OH261657   1.849   0.139   0.102  0.5383  0.0693  0.3375
13389TIP3    H161658   1.838   0.046   0.084 -1.1574  0.4962 -1.2207
13389TIP3    H261659   1.941   0.150   0.124  1.2145 -1.6708 -1.4402
13390TIP3   OH261660   4.441   0.786   1.606  0.1908  0.4781  1.0945
13390TIP3    H161661   4.358   0.745   1.628 -1.3594  0.2930 -3.7803
13390TIP3    H261662   4.428   0.879   1.624 -1.4170  0.5410 -0.1857
13391TIP3   OH261663   1.796   0.229   5.119 -0.2960 -0.1300 -0.0569
13391TIP3    H161664   1.750   0.216   5.037 -0.1932  1.2862 -0.3632
13391TIP3    H261665   1.748   0.176   5.183  0.2131 -2.0391 -1.1897
13392TIP3   OH261666   2.977   3.526   4.630  0.7408 -0.0672 -0.2436
13392TIP3    H161667   3.014   3.538   4.542  1.6096 -4.7587 -0.8096
13392TIP3    H261668   3.053   3.504   4.685 -0.0755  0.5096  1.1538
13393TIP3   OH261669   0.164   0.971  11.832  0.1222  0.4387 -0.0594
13393TIP3    H161670   0.238   1.018  11.869  0.5738 -2.0645  2.5049
13393TIP3    H261671   0.088   1.001  11.882  0.2422 -0.6802  0.8249
13394TIP3   OH261672   3.298   6.460   4.372  0.5703 -0.3065 -0.3021
13394TIP3    H161673   3.203   6.454   4.377  0.5065 -1.2572 -1.8999
13394TIP3    H261674   3.328   6.429   4.457 -0.5403  0.5650  0.4417
13395TIP3   OH261675   1.300   3.429   2.168  0.4476  0.5342 -0.6253
13395TIP3    H161676   1.240   3.354   2.166  0.7200  0.2948 -0.0496
13395TIP3    H261677   1.263   3.488   2.234 -0.1956  1.2877 -1.6204
13396TIP3   OH261678   1.412   5.041  16.995  0.0663 -0.0971  0.7718
13396TIP3    H161679   1.395   4.982  16.921 -2.1755  0.4577  0.7980
13396TIP3    H261680   1.503   5.070  16.981  0.5662 -1.9956 -0.3142
13397TIP3   OH261681   0.442   0.895   3.728 -0.4519 -0.0161  0.2296
13397TIP3    H161682   0.394   0.825   3.683  0.0123  0.0334 -0.3557
13397TIP3    H261683   0.395   0.975   3.707 -0.1134  0.0323 -0.3409
13398TIP3   OH261684   5.934   1.121   2.346  0.2067  0.4951 -0.3758
13398TIP3    H161685   5.871   1.067   2.298 -0.1394  0.7797 -0.2465
13398TIP3    H261686   5.881   1.166   2.411  0.8015 -0.5586  0.8698
13399TIP3   OH261687   5.377   0.649   1.540 -0.7243  0.6756 -0.9587
13399TIP3    H161688   5.313   0.648   1.611  0.9021 -0.2520  0.5563
13399TIP3    H261689   5.337   0.597   1.470 -0.2540 -3.0600  1.3041
13400TIP3   OH261690   4.804   2.570  15.013 -0.6575  0.4326  0.3222
13400TIP3    H161691   4.773   2.509  14.946  0.6293  0.7117 -0.5665
13400TIP3    H261692   4.869   2.521  15.062  1.1907  1.3670 -1.0942
13401TIP3   OH261693   4.025   2.261   5.110  0.3084 -0.5095  0.8710
13401TIP3    H161694   3.936   2.242   5.142  0.3149 -0.2644  1.0398
13401TIP3    H261695   4.013   2.285   5.018  0.4281 -2.4209  0.3334
13402TIP3   OH261696   0.981   6.580  10.764 -0.1521  0.0713  0.4616
13402TIP3    H161697   0.896   6.565  10.805 -1.3931  2.1336 -1.1633
13402TIP3    H261698   1.031   6.629  10.829  0.0475 -1.5698  1.6123
13403TIP3   OH261699   3.088   1.703   2.768 -0.0049 -0.5705 -0.4271
13403TIP3    H161700   3.106   1.793   2.740  0.2221 -0.2305  0.7397
13403TIP3    H261701   3.011   1.710   2.824  2.1012 -0.4768  2.6855
13404TIP3   OH261702   1.596   5.689  15.638  0.0103  0.2283 -0.3453
13404TIP3    H161703   1.612   5.779  15.610  0.3628 -0.6112 -3.1052
13404TIP3    H261704   1.501   5.686  15.655 -0.4063  0.6283 -2.3702
13405TIP3   OH261705   6.542   6.370   2.032  0.3337 -0.4720  0.3711
13405TIP3    H161706   6.567   6.401   2.119 -0.1590 -0.9272  0.6834
13405TIP3    H261707   6.601   6.296   2.015  0.2393 -0.5646  0.4436
13406TIP3   OH261708   1.595   4.943   0.132 -0.3517 -0.4984 -0.1768
13406TIP3    H161709   1.600   4.952   0.227  1.1781 -1.1918 -0.1619
13406TIP3    H261710   1.686   4.946   0.103 -0.8640  1.1621 -1.7855
13407TIP3   OH261711   2.945   1.267  14.266  0.1007 -0.1628 -0.1191
13407TIP3    H161712   2.897   1.201  14.215  1.1415 -0.5928 -0.5797
13407TIP3    H261713   2.931   1.349  14.218 -0.2543 -0.2655 -0.1918
13408TIP3   OH261714   6.126   5.442  15.094  0.2429 -0.3666  0.2468
13408TIP3    H161715   6.070   5.513  15.064 -0.2648 -0.3546  1.1902
13408TIP3    H261716   6.153   5.468  15.182  0.1602 -1.2684  0.5529
13409TIP3   OH261717   0.241   5.999  16.492 -0.2530  0.1754 -0.1935
13409TIP3    H161718   0.276   6.065  16.432 -1.2953  1.3080  0.4116
13409TIP3    H261719   0.146   6.017  16.494 -0.4096 -0.7082  0.7466
13410TIP3   OH261720   2.237   5.220   4.572 -0.3095 -0.2220 -0.3795
13410TIP3    H161721   2.196   5.199   4.656 -0.7265  0.9727 -0.2504
13410TIP3    H261722   2.331   5.216   4.589 -0.3814 -0.8695 -0.1021
13411TIP3   OH261723   1.016   2.164   6.137 -0.2232  0.1631  0.2901
13411TIP3    H161724   0.997   2.254   6.112  1.0711 -0.0310 -1.6517
13411TIP3    H261725   1.108   2.165   6.163  0.2930 -0.8553 -1.3665
13412TIP3   OH261726   5.165   0.623   5.434 -0.0544 -0.1254  0.7464
13412TIP3    H161727   5.234   0.688   5.450  0.7513 -0.6146 -0.6277
13412TIP3    H261728   5.209   0.539   5.445 -1.1292 -0.4888  2.6662
13413TIP3   OH261729   3.185   3.807   1.458 -0.4204  0.4344 -0.0323
13413TIP3    H161730   3.132   3.727   1.467  0.9710 -0.5028  0.1616
13413TIP3    H261731   3.235   3.811   1.539  1.5593 -0.0536 -1.1814
13414TIP3   OH261732   1.554   1.710  14.047  0.1769 -0.2774 -0.5431
13414TIP3    H161733   1.637   1.663  14.031 -0.0518 -0.7422 -0.3822
13414TIP3    H261734   1.498   1.645  14.090  0.5132  0.7195  1.4927
13415TIP3   OH261735   3.498   5.076   4.158  0.4676 -0.0931 -0.0111
13415TIP3    H161736   3.593   5.064   4.149  0.6036  1.6883 -1.4821
13415TIP3    H261737   3.489   5.154   4.212 -0.2137 -0.9282  1.1218
13416TIP3   OH261738   0.998   2.883  12.972  0.0472 -0.1963 -0.1854
13416TIP3    H161739   0.977   2.957  12.916  1.9945  0.6469  0.1228
13416TIP3    H261740   0.977   2.913  13.061 -2.6098 -1.3695 -0.3224
13417TIP3   OH261741   3.996   5.522  16.958 -0.1759 -0.1949 -0.4805
13417TIP3    H161742   3.996   5.571  17.041 -0.5475  1.1204 -1.2283
13417TIP3    H261743   3.914   5.473  16.959  0.3515 -1.0829  0.4285
13418TIP3   OH261744   0.419   5.348  10.740 -0.5450 -0.0415  0.3389
13418TIP3    H161745   0.359   5.415  10.708 -0.0138  0.5844  0.6423
13418TIP3    H261746   0.487   5.341  10.672 -0.6374 -0.3283  0.2716
13419TIP3   OH261747   5.473   3.183   2.534  0.1897 -1.0484 -0.0518
13419TIP3    H161748   5.504   3.168   2.623  0.2403  2.0084  0.5739
13419TIP3    H261749   5.412   3.256   2.543 -1.1661 -1.8301 -2.3173
13420TIP3   OH261750   4.463   1.154  16.309  0.3876 -0.6249  0.5690
13420TIP3    H161751   4.524   1.194  16.246  2.7880 -1.7458  2.0660
13420TIP3    H261752   4.408   1.096  16.256  1.4707 -0.5612 -0.6683
13421TIP3   OH261753   0.906   1.340   1.423 -0.2024  0.2982  0.7917
13421TIP3    H161754   0.880   1.422   1.380  0.7106 -0.3649 -1.1537
13421TIP3    H261755   0.830   1.283   1.415 -0.5011  0.6250  1.2710
13422TIP3   OH261756   2.703   3.653   0.416 -0.2947 -0.6226  1.1259
13422TIP3    H161757   2.627   3.600   0.440 -0.0377 -1.0505  1.0000
13422TIP3    H261758   2.777   3.594   0.424 -0.1247 -0.5976 -0.0747
13423TIP3   OH261759   2.331   3.087   6.053  0.5469  0.5409 -0.0920
13423TIP3    H161760   2.269   3.126   5.991  0.4762  1.4310  0.5135
13423TIP3    H261761   2.276   3.064   6.129  1.1538  2.9032  1.1623
13424TIP3   OH261762   2.375   1.704  15.915 -0.5733 -0.1082 -0.3400
13424TIP3    H161763   2.428   1.743  15.985  1.4728  0.4137 -2.0919
13424TIP3    H261764   2.407   1.745  15.835 -2.7230 -0.8242 -1.6473
13425TIP3   OH261765   1.196   3.726  15.140 -0.5585  0.3292 -0.0007
13425TIP3    H161766   1.212   3.631  15.134  0.7532  0.5062  0.2972
13425TIP3    H261767   1.229   3.749  15.227  0.6592  1.3092 -0.6854
13426TIP3   OH261768   0.827   1.523  11.455  0.1597  0.0786 -0.5774
13426TIP3    H161769   0.835   1.442  11.505  1.8859  0.3713 -0.3180
13426TIP3    H261770   0.878   1.508  11.376 -0.3017  0.5893 -0.9841
13427TIP3   OH261771   4.294   1.761   2.273 -0.3682  0.2500 -0.0435
13427TIP3    H161772   4.209   1.781   2.311 -0.8355  0.3104 -1.0783
13427TIP3    H261773   4.352   1.748   2.348 -1.6141 -1.2728  0.7137
13428TIP3   OH261774   6.223   4.624  15.937 -0.6187  0.2761 -0.4802
13428TIP3    H161775   6.162   4.697  15.938 -3.1760 -1.7028  1.8879
13428TIP3    H261776   6.296   4.653  15.992 -0.4339  1.8573 -1.5061
13429TIP3   OH261777   2.898   6.228   2.668  0.7170  0.3340  0.3374
13429TIP3    H161778   2.866   6.245   2.756 -0.5004 -1.2058  0.2424
13429TIP3    H261779   2.921   6.135   2.668  2.3755  0.7089 -0.4896
13430TIP3   OH261780   1.793   4.518   5.637  0.0018 -0.3264  0.1317
13430TIP3    H161781   1.847   4.566   5.699  1.3582 -1.3403 -0.2225
13430TIP3    H261782   1.848   4.508   5.559 -1.2912  0.0276 -0.8548
13431TIP3   OH261783   4.247   1.801   0.083  0.5430 -0.3467  0.5505
13431TIP3    H161784   4.229   1.810  -0.011 -1.2033  1.1636  0.9661
13431TIP3    H261785   4.174   1.847   0.125  1.9535  0.1112  2.6214
13432TIP3   OH261786   5.160   4.630  15.127  0.4269  0.6903 -0.3028
13432TIP3    H161787   5.223   4.598  15.063 -0.5290  0.3302 -1.0877
13432TIP3    H261788   5.095   4.560  15.135  1.3699 -0.0047  2.3224
13433TIP3   OH261789   1.744   6.071  15.926 -0.3226  0.0680  0.0032
13433TIP3    H161790   1.746   6.067  15.831  2.8041 -0.3901 -0.0112
13433TIP3    H261791   1.812   6.133  15.950  0.7679 -1.7093  1.9226
13434TIP3   OH261792   0.639   4.529   0.182 -0.0396  0.8999 -0.2333
13434TIP3    H161793   0.638   4.600   0.245  0.5254  1.6964 -1.0977
13434TIP3    H261794   0.601   4.566   0.102  0.1156  0.1936 -0.6499
13435TIP3   OH261795   0.980   6.219  11.326 -0.6182 -0.3812 -0.6309
13435TIP3    H161796   1.066   6.249  11.354 -0.8422  0.0615 -0.4036
13435TIP3    H261797   0.925   6.297  11.331 -1.3424 -0.9373  0.5037
13436TIP3   OH261798   2.115   2.943   3.731  0.3846 -0.0641 -0.2611
13436TIP3    H161799   2.105   2.849   3.746  1.3187 -0.1030  0.1724
13436TIP3    H261800   2.175   2.972   3.800  0.7342  0.7031 -0.8764
13437TIP3   OH261801   5.591   4.887  14.950 -0.4517  0.3650  0.3286
13437TIP3    H161802   5.521   4.831  14.918 -2.0933  1.3059  2.1042
13437TIP3    H261803   5.580   4.888  15.045  1.3601  1.3588  0.5790
13438TIP3   OH261804   0.985   1.206   3.654 -0.0876 -1.0165 -0.1750
13438TIP3    H161805   1.076   1.176   3.661  0.3124  0.1946  0.2017
13438TIP3    H261806   0.977   1.238   3.564  0.7859  1.5514  0.5746
13439TIP3   OH261807   6.652   4.867  13.984  0.1824  0.4407  0.1139
13439TIP3    H161808   6.616   4.952  14.008  1.1336  0.5010  1.4399
13439TIP3    H261809   6.637   4.812  14.061  0.5439 -0.2829 -0.3217
13440TIP3   OH261810   0.499   1.792  16.846 -0.2854 -0.4138 -0.4590
13440TIP3    H161811   0.590   1.795  16.819 -0.2676  1.3354 -0.2853
13440TIP3    H261812   0.449   1.808  16.766 -0.3862  0.1765 -0.2811
13441TIP3   OH261813   5.826   1.470   2.455 -0.2598  0.4989  0.3264
13441TIP3    H161814   5.901   1.497   2.508 -1.0515  1.2392  1.1086
13441TIP3    H261815   5.788   1.397   2.504  1.6088 -1.8793 -1.5476
13442TIP3   OH261816   2.488   3.065  11.385  0.4583  0.4570  0.1592
13442TIP3    H161817   2.504   3.145  11.435  0.5683  0.2513  0.4563
13442TIP3    H261818   2.565   3.056  11.328  0.2734  0.7600 -0.1379
13443TIP3   OH261819   0.460   0.193   4.855  0.4080 -0.3833  1.1405
13443TIP3    H161820   0.516   0.169   4.781  0.9616 -1.7515  1.9667
13443TIP3    H261821   0.433   0.109   4.893 -0.5764  0.2831  1.9635
13444TIP3   OH261822   1.992   0.747   5.048 -0.1986  0.1543  0.2339
13444TIP3    H161823   2.000   0.755   5.143  0.2685  0.4106  0.1786
13444TIP3    H261824   1.917   0.801   5.026 -2.1897 -2.2429  0.7700
13445TIP3   OH261825   3.151   4.576  16.971  0.2370 -0.1740  0.2284
13445TIP3    H161826   3.158   4.553  16.878  0.3025  0.1914  0.1378
13445TIP3    H261827   3.110   4.500  17.012 -3.8506  1.2321 -0.8056
13446TIP3   OH261828   2.708   3.658  11.384  0.1150  0.3594 -0.6824
13446TIP3    H161829   2.675   3.724  11.445  1.0163 -0.0272  0.2470
13446TIP3    H261830   2.630   3.608  11.360  0.1289 -1.9521  3.1813
13447TIP3   OH261831   0.980   5.762  12.641  0.4693  0.3131  0.2331
13447TIP3    H161832   0.890   5.735  12.623  1.2835 -0.2528 -4.2198
13447TIP3    H261833   0.973   5.821  12.716 -3.6442  0.6710 -0.1980
13448TIP3   OH261834   0.153   1.840   4.750  0.6472 -0.1463  0.1214
13448TIP3    H161835   0.127   1.804   4.665 -0.4785  0.3868  0.2139
13448TIP3    H261836   0.223   1.782   4.780  0.5135 -0.8222 -0.8043
13449TIP3   OH261837   5.151   3.831  15.188 -0.4278 -0.3291 -0.4108
13449TIP3    H161838   5.092   3.791  15.124 -1.6219 -1.9177  1.5405
13449TIP3    H261839   5.235   3.788  15.174 -1.1993 -2.1998  0.3608
13450TIP3   OH261840   4.482   5.587  15.205 -0.4328  0.0671  0.8116
13450TIP3    H161841   4.526   5.631  15.132 -1.2140  2.1229  1.4993
13450TIP3    H261842   4.392   5.575  15.175  0.0977 -2.6591  0.0253
13451TIP3   OH261843   0.755   6.273   5.708  0.0294  0.5408  0.1387
13451TIP3    H161844   0.803   6.205   5.661  3.1620  1.6379  1.4550
13451TIP3    H261845   0.783   6.355   5.667 -1.4412  1.2274  0.4238
13452TIP3   OH261846   4.076   0.130   2.754 -0.2274  0.0876  0.5254
13452TIP3    H161847   4.160   0.114   2.797  0.1144  1.3094  0.3447
13452TIP3    H261848   4.037   0.202   2.803 -1.2052 -0.5038  0.6408
13453TIP3   OH261849   2.587   3.689   1.021 -0.7967  0.2379 -0.4606
13453TIP3    H161850   2.651   3.692   0.950 -0.3171 -0.3876 -0.0601
13453TIP3    H261851   2.603   3.606   1.065 -1.5035  0.3364  0.0033
13454TIP3   OH261852   2.158   2.315  14.323  0.2246  0.0926  0.5256
13454TIP3    H161853   2.206   2.366  14.258 -0.3328 -0.0128  0.0119
13454TIP3    H261854   2.068   2.348  14.318 -0.2518 -1.1950 -0.1303
13455TIP3   OH261855   5.005   1.974   1.118 -0.0502  0.1242  0.5411
13455TIP3    H161856   4.922   1.930   1.130  0.8854 -2.3777 -1.1949
13455TIP3    H261857   5.069   1.920   1.164  1.0380  0.0565 -0.9451
13456TIP3   OH261858   3.667   3.410  14.313  0.3130 -0.0010  0.0891
13456TIP3    H161859   3.747   3.434  14.267  0.6827  0.1551  0.8119
13456TIP3    H261860   3.612   3.488  14.309  0.3652  0.0295 -0.0353
13457TIP3   OH261861   3.709   4.635   1.215 -0.7702 -0.5596 -0.1842
13457TIP3    H161862   3.683   4.705   1.155  0.0233  1.3465  1.5712
13457TIP3    H261863   3.700   4.555   1.163 -4.0811  0.5085 -1.5669
13458TIP3   OH261864   2.085   2.264  10.878  0.0386 -0.7571 -0.3521
13458TIP3    H161865   2.045   2.347  10.852 -0.4316 -0.8451  0.0628
13458TIP3    H261866   2.106   2.276  10.971  0.7142 -0.8171 -0.4913
13459TIP3   OH261867   4.943   6.519   2.925 -0.0691 -0.0381  0.5269
13459TIP3    H161868   4.956   6.559   2.840  0.5907 -1.1523  0.0968
13459TIP3    H261869   4.996   6.572   2.985 -0.8397  0.9875  0.3507
13460TIP3   OH261870   0.463   3.163  16.314 -0.4155 -0.1071  0.6316
13460TIP3    H161871   0.526   3.170  16.386 -1.4130 -0.2562  1.5377
13460TIP3    H261872   0.430   3.253  16.303  0.0120 -0.0095  0.0895
13461TIP3   OH261873   3.698   1.736  12.001  0.0299  0.4896  0.2431
13461TIP3    H161874   3.686   1.656  11.950 -0.8656  0.1872  0.9051
13461TIP3    H261875   3.624   1.791  11.976  0.8384  1.2821 -0.4854
13462TIP3   OH261876   5.492   1.273   1.585  0.1561 -0.3229 -0.1866
13462TIP3    H161877   5.501   1.264   1.680  0.2168  0.2042 -0.1426
13462TIP3    H261878   5.454   1.359   1.572  0.1259 -0.4037 -0.6417
13463TIP3   OH261879   0.626   3.550  15.162 -0.1558  0.0690  0.3450
13463TIP3    H161880   0.709   3.582  15.196 -0.1478  0.7406 -0.3002
13463TIP3    H261881   0.600   3.613  15.095 -1.9817  0.7610  1.6159
13464TIP3   OH261882   4.651   0.809  15.236  0.7026  0.3734 -0.4007
13464TIP3    H161883   4.628   0.721  15.264  0.7136 -0.0613 -1.6750
13464TIP3    H261884   4.730   0.797  15.183  0.3441  1.0649 -1.1074
13465TIP3   OH261885   6.126   6.791  15.967  0.1342  0.3457 -0.2531
13465TIP3    H161886   6.219   6.773  15.959  0.2974  1.5394 -1.4428
13465TIP3    H261887   6.083   6.706  15.961  1.1370 -0.2043  0.2403
13466TIP3   OH261888   5.477   0.497  12.750  0.1941  0.3764  0.3770
13466TIP3    H161889   5.407   0.462  12.694  1.2139 -0.9408 -0.1112
13466TIP3    H261890   5.455   0.590  12.760  0.1097  0.7396 -2.4392
13467TIP3   OH261891   3.197   6.321  11.985  0.0733 -0.0152  0.2590
13467TIP3    H161892   3.264   6.311  11.917 -0.1190 -0.6191  0.1533
13467TIP3    H261893   3.233   6.387  12.044  0.0797  0.8141 -0.6278
13468TIP3   OH261894   3.966   1.854  12.391 -0.3727 -0.4873 -0.2654
13468TIP3    H161895   3.952   1.857  12.486 -0.1058  0.6107 -0.2430
13468TIP3    H261896   3.928   1.771  12.363 -2.6670  0.2472  0.4533
13469TIP3   OH261897   3.045   6.427   2.040 -0.1896  0.1260  0.1117
13469TIP3    H161898   2.988   6.352   2.029 -0.1932  0.4003 -2.2682
13469TIP3    H261899   2.990   6.494   2.081 -0.1696 -1.1247  2.2828
13470TIP3   OH261900   0.744   5.310  13.305  0.0305  0.8480  0.4007
13470TIP3    H161901   0.773   5.395  13.337  0.5063  0.3704  1.2869
13470TIP3    H261902   0.652   5.324  13.281 -0.1735  1.3875  1.4371
13471TIP3   OH261903   3.395   3.706   0.345  0.0764  0.3376 -0.0462
13471TIP3    H161904   3.331   3.654   0.297 -0.3010  0.3326  0.4667
13471TIP3    H261905   3.440   3.644   0.402 -0.2501  0.5371  0.4329
13472TIP3   OH261906   3.191   0.080  14.694  0.2981 -0.3553 -0.1187
13472TIP3    H161907   3.241   0.038  14.764  0.3333 -0.5896 -0.2845
13472TIP3    H261908   3.166   0.009  14.636  1.3642  0.0065 -1.0399
13473TIP3   OH261909   6.103   0.745  10.620  0.3346 -0.1009 -0.1353
13473TIP3    H161910   6.080   0.704  10.537 -1.2603  0.1828  0.1260
13473TIP3    H261911   6.115   0.671  10.680 -2.3014 -0.3017  0.2766
13474TIP3   OH261912   2.804   0.817  14.496 -0.1394 -0.3944  0.4202
13474TIP3    H161913   2.857   0.749  14.455 -3.0811 -1.6294 -1.6613
13474TIP3    H261914   2.777   0.780  14.580  0.6953 -0.5287  0.6348
13475TIP3   OH261915   6.765   3.286  13.792 -0.2978 -0.2301 -0.0930
13475TIP3    H161916   6.836   3.233  13.756 -0.3669 -0.9658  0.8175
13475TIP3    H261917   6.806   3.333  13.865  0.1533  2.1729 -1.7563
13476TIP3   OH261918   3.897   0.753  15.002 -0.6062 -0.3904  0.4076
13476TIP3    H161919   3.902   0.708  15.087 -2.2374  2.3996  2.1187
13476TIP3    H261920   3.972   0.812  15.001  0.1531 -1.3256 -0.7477
13477TIP3   OH261921   5.586   0.641   4.660  0.0651  0.1688  0.3742
13477TIP3    H161922   5.626   0.615   4.577  0.6736  1.5932  0.1948
13477TIP3    H261923   5.616   0.731   4.674  0.4511 -0.2379  2.4407
13478TIP3   OH261924   6.183   3.511   3.251 -0.0146 -0.1084 -0.4995
13478TIP3    H161925   6.098   3.509   3.295  1.1140  1.1171  1.9229
13478TIP3    H261926   6.188   3.598   3.212 -0.4369 -0.7110 -1.9746
13479TIP3   OH261927   6.408   3.214  11.620 -0.3373 -0.0435 -0.2830
13479TIP3    H161928   6.441   3.288  11.672 -0.3431  0.2408 -0.6728
13479TIP3    H261929   6.314   3.212  11.638 -0.6466  1.1210 -1.5479
13480TIP3   OH261930   5.792   2.862   2.251  0.1508  0.1355 -0.1331
13480TIP3    H161931   5.720   2.893   2.196 -0.1118  3.0391  1.6646
13480TIP3    H261932   5.870   2.871   2.195 -0.4470  0.2199 -0.9702
13481TIP3   OH261933   2.461   4.055  14.713 -0.3513  0.0425  0.2345
13481TIP3    H161934   2.507   4.087  14.635  0.5246  0.0664  0.7506
13481TIP3    H261935   2.374   4.033  14.682  0.2279 -0.6855 -0.9223
13482TIP3   OH261936   1.262   4.848  12.905 -0.4411 -0.2517 -0.2069
13482TIP3    H161937   1.306   4.800  12.835  1.3249  1.2303 -0.1768
13482TIP3    H261938   1.255   4.937  12.873 -1.2515  0.0670  0.7998
13483TIP3   OH261939   5.563   3.623  15.945 -0.1090 -0.0727  0.2625
13483TIP3    H161940   5.649   3.650  15.915 -0.0489  1.2592  1.5443
13483TIP3    H261941   5.504   3.692  15.916 -0.8799 -1.2154 -1.0474
13484TIP3   OH261942   3.447   4.487   1.947  1.0745  0.5622  0.7267
13484TIP3    H161943   3.463   4.424   2.017 -2.5033  1.2186  2.3749
13484TIP3    H261944   3.492   4.567   1.977  0.8689  0.3941  1.5129
13485TIP3   OH261945   0.107   5.844   2.652 -0.6648  0.0417  0.0940
13485TIP3    H161946   0.164   5.767   2.653  0.8544  1.1186 -0.2770
13485TIP3    H261947   0.072   5.847   2.563 -3.1832 -1.8666  0.8828
13486TIP3   OH261948   1.091   1.376  12.213 -0.2561  0.5275 -1.0494
13486TIP3    H161949   1.113   1.286  12.237 -1.5374  0.7598  1.2567
13486TIP3    H261950   1.174   1.414  12.185  0.4161 -1.1800 -1.5194
13487TIP3   OH261951   0.302   6.495   0.759 -0.1831  0.0709 -0.0399
13487TIP3    H161952   0.247   6.420   0.782  0.5446 -0.0455  1.4250
13487TIP3    H261953   0.249   6.571   0.782 -0.7187  0.0203 -1.0466
13488TIP3   OH261954   4.532   1.133  11.697 -0.1833 -0.0234 -0.5316
13488TIP3    H161955   4.546   1.039  11.688 -0.2925 -0.2524  1.3502
13488TIP3    H261956   4.568   1.171  11.616  0.9179 -1.5665 -0.7975
13489TIP3   OH261957   3.327   5.285   0.655  0.1240  0.3397 -0.7289
13489TIP3    H161958   3.244   5.244   0.630 -1.3867  1.9796  1.2883
13489TIP3    H261959   3.382   5.277   0.577 -0.8037 -3.4120 -1.2132
13490TIP3   OH261960   6.228   0.981   4.156 -0.3069  0.0807  0.1577
13490TIP3    H161961   6.187   0.989   4.243 -0.2486 -0.4067  0.2343
13490TIP3    H261962   6.303   0.924   4.171  1.1924  2.0170  0.2802
13491TIP3   OH261963   5.207   4.899  14.998 -0.3118  0.3046 -0.2359
13491TIP3    H161964   5.239   4.826  14.945 -0.7998  0.9680 -1.5017
13491TIP3    H261965   5.176   4.859  15.079 -0.7811 -0.9198 -0.9971
13492TIP3   OH261966   0.798   1.187   4.632  0.0218  0.3917 -0.0469
13492TIP3    H161967   0.739   1.256   4.663  1.7474  1.1872  1.6973
13492TIP3    H261968   0.874   1.234   4.597  0.5230 -0.6021 -0.3357
13493TIP3   OH261969   6.395   3.784   6.466  0.0827  0.1116 -0.0013
13493TIP3    H161970   6.402   3.700   6.510  2.6138  0.4598  0.4338
13493TIP3    H261971   6.312   3.820   6.495 -1.0095 -2.1461 -0.1168
13494TIP3   OH261972   6.671   1.261  11.031 -0.2966  0.1646  0.0788
13494TIP3    H161973   6.710   1.230  10.949 -1.6994 -0.7264 -0.2789
13494TIP3    H261974   6.619   1.337  11.007  0.3631  0.7370  0.3945
13495TIP3   OH261975   3.764   1.927   1.601  0.2146  0.0398 -0.3894
13495TIP3    H161976   3.776   1.844   1.647 -1.8592 -0.6938 -1.0470
13495TIP3    H261977   3.774   1.904   1.508  0.6102  0.7381 -0.5273
13496TIP3   OH261978   5.805   1.717  10.776 -0.0578 -0.3994 -0.0798
13496TIP3    H161979   5.878   1.722  10.715 -0.2532 -0.3645 -0.3150
13496TIP3    H261980   5.827   1.644  10.834  0.3623 -0.1195  0.1207
13497TIP3   OH261981   2.907   2.231   4.279 -0.1014 -0.1244  0.0184
13497TIP3    H161982   2.910   2.149   4.230  1.1938  0.7765 -1.4934
13497TIP3    H261983   2.998   2.254   4.294 -0.4168  1.5005 -0.3744
13498TIP3   OH261984   0.812   0.151  15.523  0.1453  0.3899  0.2021
13498TIP3    H161985   0.816   0.122  15.614 -3.4963 -0.4318  0.2348
13498TIP3    H261986   0.891   0.204  15.512  0.3717  1.1628  4.0539
13499TIP3   OH261987   3.437   1.140  13.812  0.5099 -0.5464 -0.3308
13499TIP3    H161988   3.501   1.150  13.742 -0.7500 -1.0223 -1.6225
13499TIP3    H261989   3.404   1.228  13.828  0.8177 -0.4313 -0.3359
13500TIP3   OH261990   6.192   1.515   3.399  0.1168 -0.0076  0.1825
13500TIP3    H161991   6.234   1.509   3.314  1.1169 -2.1264  0.7619
13500TIP3    H261992   6.156   1.428   3.415 -3.9668  1.4362  0.0774
13501TIP3   OH261993   5.233   3.654  16.433 -0.3918  0.6574  0.2886
13501TIP3    H161994   5.228   3.562  16.458  1.4261  0.3979 -0.1910
13501TIP3    H261995   5.174   3.699  16.495 -0.6399 -0.7018  1.0783
13502TIP3   OH261996   5.262   4.512   1.758 -0.7229  0.0964 -0.2722
13502TIP3    H161997   5.324   4.567   1.805 -1.0783  1.2144 -1.0638
13502TIP3    H261998   5.234   4.446   1.822 -0.3059  0.8515  0.7024
13503TIP3   OH261999   0.615   4.185  16.372 -0.3561  0.0735 -0.1969
13503TIP3    H162000   0.553   4.176  16.445 -0.9180  1.5086 -0.4590
13503TIP3    H262001   0.699   4.158  16.408 -0.3946  1.8573  1.3641
13504TIP3   OH262002   0.314   1.944  15.699 -0.1287 -0.5040  0.1699
13504TIP3    H162003   0.358   1.875  15.749 -1.0368 -0.9889  0.3155
13504TIP3    H262004   0.324   2.023  15.753  0.6985 -0.5622  0.1174
13505TIP3   OH262005   6.075   0.076   0.437 -0.2484 -0.0597  0.4814
13505TIP3    H162006   5.982   0.093   0.453 -0.3048 -1.3180  1.6259
13505TIP3    H262007   6.078  -0.013   0.402  0.4565  0.3740 -0.6311
13506TIP3   OH262008   3.176   2.904  15.889 -0.6185 -0.4256 -0.2183
13506TIP3    H162009   3.108   2.971  15.880 -0.2398 -0.1847 -1.6315
13506TIP3    H262010   3.128   2.822  15.895 -1.0712 -0.1057  0.8647
13507TIP3   OH262011   5.169   0.895   2.407  0.2684  0.4549  0.1982
13507TIP3    H162012   5.079   0.903   2.439 -0.3648  2.1713 -1.7829
13507TIP3    H262013   5.214   0.971   2.445  0.4665  0.4689 -0.0614
13508TIP3   OH262014   0.370   2.112   4.637  0.6640 -0.5205 -0.5923
13508TIP3    H162015   0.334   2.142   4.720 -0.3474 -1.5536 -0.6365
13508TIP3    H262016   0.461   2.088   4.657  1.0893  1.2427 -0.2782
13509TIP3   OH262017   1.815   3.134   5.522 -0.0464  0.2664 -0.1923
13509TIP3    H162018   1.770   3.050   5.522  0.7547 -0.3237  3.1447
13509TIP3    H262019   1.757   3.192   5.572  1.7553  0.0770  2.2902
13510TIP3   OH262020   2.102   0.834  11.162  0.0085  0.3127  0.1825
13510TIP3    H162021   2.024   0.832  11.217  0.8467 -0.1554  1.4070
13510TIP3    H262022   2.147   0.915  11.187  0.1786  0.3202 -0.1444
13511TIP3   OH262023   1.293   0.867   4.235 -0.2771 -0.0810 -0.2942
13511TIP3    H162024   1.330   0.919   4.305 -0.3186  0.7416 -0.8736
13511TIP3    H262025   1.212   0.912   4.210  0.2801  0.2497 -1.5880
13512TIP3   OH262026   2.128   1.281   1.792 -0.0068  0.6259  0.3803
13512TIP3    H162027   2.083   1.275   1.708  0.2188  2.8067  0.0340
13512TIP3    H262028   2.220   1.260   1.772 -0.4760 -2.1863  0.7811
13513TIP3   OH262029   0.441   0.431  13.666  0.2858 -0.1182 -0.8007
13513TIP3    H162030   0.363   0.485  13.681  1.8111  2.2477 -0.8015
13513TIP3    H262031   0.486   0.430  13.750  0.5620 -0.9830 -0.9506
13514TIP3   OH262032   3.873   1.997  13.958  0.4133  0.2708 -0.1144
13514TIP3    H162033   3.962   2.004  13.923 -0.1700 -0.5970 -1.8918
13514TIP3    H262034   3.851   1.905  13.950  0.0262  0.1131  2.1507
13515TIP3   OH262035   2.242   4.519  11.982  0.9731  0.3560 -0.6594
13515TIP3    H162036   2.322   4.467  11.994 -0.7898 -3.1329 -2.3738
13515TIP3    H262037   2.179   4.481  12.043 -0.0700  1.3454 -1.0783
13516TIP3   OH262038   4.236   0.243   1.973 -0.2587  0.1868  0.2588
13516TIP3    H162039   4.249   0.151   1.993 -0.4366  0.4798  1.8164
13516TIP3    H262040   4.205   0.243   1.882  1.0719 -1.1686 -0.2421
13517TIP3   OH262041   4.678   3.669  13.507  0.2587  0.4938 -0.0197
13517TIP3    H162042   4.631   3.630  13.580  0.1232  1.1305  0.2345
13517TIP3    H262043   4.616   3.731  13.468 -0.4337 -1.2713 -1.9489
13518TIP3   OH262044   6.323   1.494   2.143 -0.1257  0.0488  0.2929
13518TIP3    H162045   6.237   1.479   2.103 -1.9937  2.1037  3.1314
13518TIP3    H262046   6.373   1.415   2.122 -1.1251  0.4392 -5.0056
13519TIP3   OH262047   4.513   4.912  14.407  0.0281 -0.3425 -0.4286
13519TIP3    H162048   4.429   4.903  14.363  0.3128 -0.0218 -1.0510
13519TIP3    H262049   4.541   4.822  14.425 -1.3493 -0.4422  1.5709
13520TIP3   OH262050   0.907   3.393   1.724 -1.0457  0.6712  0.2416
13520TIP3    H162051   0.860   3.425   1.648  0.9140  0.6948 -1.0351
13520TIP3    H262052   0.996   3.375   1.692 -0.5362 -0.6744  2.1886
13521TIP3   OH262053   0.674   2.782  13.788 -0.0228  0.7872  0.1086
13521TIP3    H162054   0.655   2.826  13.705 -0.8446  1.8474  0.8117
13521TIP3    H262055   0.652   2.848  13.854 -1.4860 -0.7542  1.2305
13522TIP3   OH262056   5.584   4.542   6.104 -0.4885  0.4812  0.2328
13522TIP3    H162057   5.525   4.600   6.153  0.4645  0.9097  0.9108
13522TIP3    H262058   5.663   4.538   6.158  0.5051  0.7621 -1.1529
13523TIP3   OH262059   5.090   4.539  14.342  0.0776 -0.6351  0.4156
13523TIP3    H162060   5.044   4.517  14.423 -0.0510 -0.7949  0.3010
13523TIP3    H262061   5.085   4.634  14.337 -1.7890 -0.7252 -0.4793
13524TIP3   OH262062   2.175   6.151   5.228  0.7029 -0.5914  0.1597
13524TIP3    H162063   2.233   6.146   5.304  0.7225  1.5968  0.3695
13524TIP3    H262064   2.182   6.242   5.199 -1.9283 -0.4753 -0.3546
13525TIP3   OH262065   5.531   6.390   2.143 -0.7175 -0.5385 -0.0846
13525TIP3    H162066   5.560   6.358   2.058 -1.1640 -2.1523  0.3411
13525TIP3    H262067   5.439   6.364   2.148 -0.7292 -0.3372  0.8411
13526TIP3   OH262068   4.985   4.824   4.631  0.0018 -0.3506 -0.0960
13526TIP3    H162069   4.916   4.844   4.567  0.8346 -0.4561 -1.0621
13526TIP3    H262070   4.957   4.742   4.672  0.5704 -1.5999 -2.0455
13527TIP3   OH262071   2.598   5.450   1.760 -0.1225  0.7924 -0.3554
13527TIP3    H162072   2.656   5.404   1.819 -0.3682 -0.1878 -0.8636
13527TIP3    H262073   2.642   5.534   1.743  1.7046 -0.3561 -1.5987
13528TIP3   OH262074   1.995   6.069   4.068 -0.1941  0.4670 -0.0103
13528TIP3    H162075   1.956   6.153   4.089  1.5577  1.4654 -0.5325
13528TIP3    H262076   2.063   6.057   4.134 -0.8806 -0.9139  0.4940
13529TIP3   OH262077   1.470   1.329   5.739  0.3062  0.4299  0.7558
13529TIP3    H162078   1.383   1.314   5.778  0.5115 -0.5816  0.8570
13529TIP3    H262079   1.531   1.287   5.800  0.7124 -0.3760 -0.1735
13530TIP3   OH262080   3.995   2.392   1.113  0.1612  0.0907  0.0327
13530TIP3    H162081   3.966   2.349   1.194 -2.5105  1.7089  0.0738
13530TIP3    H262082   3.994   2.485   1.134 -1.7538  0.6451 -2.0976
13531TIP3   OH262083   1.697   4.471   5.153 -0.1720  0.7601  0.4512
13531TIP3    H162084   1.603   4.480   5.169 -0.7080  0.0429 -1.8537
13531TIP3    H262085   1.703   4.410   5.080  2.1701 -0.1272  1.2673
13532TIP3   OH262086   4.707   5.957   0.766  0.5715  0.2711 -0.5923
13532TIP3    H162087   4.731   6.030   0.823  0.7591  0.4903 -0.9483
13532TIP3    H262088   4.702   5.995   0.678  0.8739 -0.1829 -0.8142
13533TIP3   OH262089   3.539   4.362   1.097 -0.1104  1.3530  0.1773
13533TIP3    H162090   3.569   4.417   1.025 -0.5590  1.1961 -0.1334
13533TIP3    H262091   3.444   4.357   1.086 -0.0685  0.4516  0.1525
13534TIP3   OH262092   4.355   0.795  16.064 -0.0045 -0.5968 -0.2760
13534TIP3    H162093   4.316   0.868  16.112 -0.7617 -0.4813 -1.0351
13534TIP3    H262094   4.319   0.803  15.976 -0.0220 -1.8286 -0.3964
13535TIP3   OH262095   6.035   3.805   3.301 -0.4036 -0.2572 -0.3396
13535TIP3    H162096   6.066   3.887   3.338 -0.0701 -0.5479  0.0246
13535TIP3    H262097   6.085   3.794   3.220  0.6682 -0.8698  0.3885
13536TIP3   OH262098   3.952   5.401  16.429 -0.5047 -0.5528  0.6691
13536TIP3    H162099   3.985   5.377  16.516  0.6167  1.6526  0.9362
13536TIP3    H262100   3.985   5.333  16.371  1.0041 -0.6689  1.5991
13537TIP3   OH262101   3.366   1.645  16.052 -0.2649 -0.1176  0.1959
13537TIP3    H162102   3.403   1.716  16.104 -1.0145  0.2671  0.2209
13537TIP3    H262103   3.317   1.689  15.983  0.7231 -0.6154 -0.8651
13538TIP3   OH262104   1.520   0.439   3.125  0.3353 -0.1315 -0.8373
13538TIP3    H162105   1.498   0.521   3.169  0.1810 -0.4700 -0.2649
13538TIP3    H262106   1.448   0.424   3.063  0.0918 -0.1027 -0.5639
13539TIP3   OH262107   0.176   3.328   2.038 -0.2920  0.6481 -0.2624
13539TIP3    H162108   0.116   3.402   2.053 -0.8989  0.1477 -0.2104
13539TIP3    H262109   0.119   3.252   2.031  0.4204 -0.1732  1.8619
13540TIP3   OH262110   4.938   2.540   3.552 -0.4827 -0.7453 -0.0516
13540TIP3    H162111   4.925   2.538   3.457 -0.2564  2.6310 -0.2594
13540TIP3    H262112   4.853   2.514   3.588 -1.8044  1.5354 -1.2799
13541TIP3   OH262113   2.826   4.119   0.766  0.1327 -0.8009  0.0022
13541TIP3    H162114   2.835   4.188   0.700 -0.0374  0.6836  1.4781
13541TIP3    H262115   2.741   4.136   0.807 -0.9536 -3.2388 -1.0325
13542TIP3   OH262116   6.314   5.848   5.621  0.6847  0.4062 -0.4044
13542TIP3    H162117   6.350   5.930   5.656  0.0592  0.3586  0.3792
13542TIP3    H262118   6.384   5.784   5.633  0.5032  0.4025  0.7478
13543TIP3   OH262119   3.395   1.931   2.667 -0.2916  0.1245  0.8428
13543TIP3    H162120   3.369   2.021   2.685 -3.3096 -0.5538  0.3865
13543TIP3    H262121   3.410   1.892   2.753 -0.8036  0.5830  1.1446
13544TIP3   OH262122   2.480   2.030   3.278 -0.1837 -0.0681  0.2338
13544TIP3    H162123   2.498   1.958   3.338 -1.1635 -0.7756 -0.2957
13544TIP3    H262124   2.396   2.065   3.307  0.6022  1.3549  0.9305
13545TIP3   OH262125   6.707   3.022   1.545  0.0031  0.0266 -0.3142
13545TIP3    H162126   6.732   3.051   1.457  2.1713  1.6375  0.7722
13545TIP3    H262127   6.735   2.930   1.548  0.5953  0.1731 -1.0450
13546TIP3   OH262128   6.313   6.369  13.097  0.4224 -0.5169  0.2905
13546TIP3    H162129   6.393   6.409  13.132  0.2589  0.2477 -0.1776
13546TIP3    H262130   6.250   6.375  13.168  0.7861 -1.1338  0.6658
13547TIP3   OH262131   1.942   4.881   1.418 -0.2733 -0.2120 -0.0069
13547TIP3    H162132   1.914   4.897   1.508  1.6191  0.9701  0.4173
13547TIP3    H262133   1.897   4.948   1.366 -1.3480 -0.8797  0.0147
13548TIP3   OH262134   5.545   4.649  16.612 -0.0067 -0.2658  0.4522
13548TIP3    H162135   5.460   4.664  16.653 -0.0044 -0.0834  0.3923
13548TIP3    H262136   5.535   4.567  16.564 -0.5875  0.4764 -0.7197
13549TIP3   OH262137   2.161   3.314   1.585 -0.2205  0.2270  0.3429
13549TIP3    H162138   2.107   3.239   1.560 -0.6639 -0.1186  2.1436
13549TIP3    H262139   2.113   3.390   1.551 -1.1300 -0.1640  0.6967
13550TIP3   OH262140   6.162   2.082   4.464  0.3067 -0.1293 -0.1142
13550TIP3    H162141   6.152   2.153   4.400 -0.4018 -0.2125 -0.1008
13550TIP3    H262142   6.143   2.123   4.549 -0.2747 -0.3718 -0.1247
13551TIP3   OH262143   3.967   4.650   4.608  0.1703  0.0072 -0.1494
13551TIP3    H162144   3.965   4.746   4.608  2.1301  0.0974  0.8361
13551TIP3    H262145   3.941   4.625   4.520 -0.8129  1.4201 -0.2873
13552TIP3   OH262146   2.821   3.998  16.034  0.0002 -0.0620 -0.8874
13552TIP3    H162147   2.863   3.953  16.107  0.4844  0.0482 -1.0981
13552TIP3    H262148   2.867   3.968  15.956 -1.3688 -1.1944 -1.2972
13553TIP3   OH262149   5.007   6.267  14.363  0.4330  0.0914 -0.1547
13553TIP3    H162150   4.956   6.306  14.292 -1.5549 -1.2211  0.4694
13553TIP3    H262151   5.074   6.332  14.382 -1.6164  2.4136 -0.3448
13554TIP3   OH262152   0.878   6.277   3.441 -0.4041  0.2802  0.6886
13554TIP3    H162153   0.810   6.250   3.380 -0.5176  0.6331  0.6561
13554TIP3    H262154   0.841   6.353   3.486  0.3642  1.1463 -0.0774
13555TIP3   OH262155   5.969   4.850   1.802  0.8048  0.7695 -0.0944
13555TIP3    H162156   5.985   4.779   1.865 -0.6470  0.5793  0.0872
13555TIP3    H262157   5.895   4.898   1.839  1.1620  1.8210 -0.7070
13556TIP3   OH262158   3.428   5.467   3.042  1.0986 -0.8001 -0.7968
13556TIP3    H162159   3.503   5.425   3.082  1.2823 -0.7118 -1.0510
13556TIP3    H262160   3.378   5.396   3.001 -0.0260 -1.1595  1.0580
13557TIP3   OH262161   0.864   2.636  11.695 -0.0670  0.8350  0.0898
13557TIP3    H162162   0.863   2.713  11.639 -0.7385  0.8351  0.0958
13557TIP3    H262163   0.813   2.661  11.772 -0.6676  0.2461 -0.1066
13558TIP3   OH262164   3.370   2.553   3.007  0.1832 -0.6688 -0.9339
13558TIP3    H162165   3.311   2.565   3.082  1.2935 -1.5655  0.1105
13558TIP3    H262166   3.353   2.629   2.951 -0.8310 -0.1026  0.1053
13559TIP3   OH262167   6.256   2.564   2.885 -0.5136 -0.1543 -0.2360
13559TIP3    H162168   6.255   2.610   2.802 -1.0926 -1.6114 -1.0742
13559TIP3    H262169   6.216   2.625   2.947  0.5635  1.2256 -0.8364
13560TIP3   OH262170   0.842   5.529  16.799  0.0318 -0.3136  0.0028
13560TIP3    H162171   0.902   5.588  16.753 -1.5967  0.8399 -0.7457
13560TIP3    H262172   0.821   5.575  16.880 -0.6839 -0.1957 -0.2454
13561TIP3   OH262173   0.557   4.664   3.206  0.1104  0.1720  0.0370
13561TIP3    H162174   0.547   4.714   3.126 -0.2622  1.0878  0.6416
13561TIP3    H262175   0.471   4.667   3.248 -0.4744 -2.5760 -0.7956
13562TIP3   OH262176   1.298   5.576  14.942 -0.4804 -0.3903  0.1310
13562TIP3    H162177   1.341   5.590  15.026  1.6602  1.1718 -1.1026
13562TIP3    H262178   1.209   5.609  14.954  0.0458  0.5874  1.5654
13563TIP3   OH262179   3.002   3.069   5.776 -0.1076  0.1111  0.1119
13563TIP3    H162180   3.053   3.054   5.696  1.8471 -1.1135  1.5057
13563TIP3    H262181   3.052   3.136   5.824 -0.1995 -0.5672  1.1811
13564TIP3   OH262182   2.404   0.594   3.414  0.7080 -0.3872 -0.1877
13564TIP3    H162183   2.427   0.630   3.329  0.0396 -0.8768 -0.5792
13564TIP3    H262184   2.367   0.668   3.463 -0.4454 -0.4618 -0.9075
13565TIP3   OH262185   2.528   2.952  11.108  0.1094  0.0202 -0.2110
13565TIP3    H162186   2.557   2.891  11.176  0.0848 -0.7806 -0.9069
13565TIP3    H262187   2.609   2.984  11.069  0.1156  0.1725 -0.0735
13566TIP3   OH262188   1.574   0.342  12.039 -0.1262 -0.4007  0.2482
13566TIP3    H162189   1.612   0.272  11.985 -0.3948  0.5259 -1.1924
13566TIP3    H262190   1.644   0.365  12.100  0.4420 -1.0003 -0.1603
13567TIP3   OH262191   2.638   4.390  13.701  0.9311 -0.3460  0.5583
13567TIP3    H162192   2.600   4.327  13.762  0.3953 -0.3618  0.2156
13567TIP3    H262193   2.725   4.356  13.682  0.4657 -1.2643 -0.0093
13568TIP3   OH262194   6.500   5.590  10.988  0.4557  0.7078  0.2727
13568TIP3    H162195   6.586   5.592  10.945  0.8423  1.9606  1.0591
13568TIP3    H262196   6.443   5.641  10.930  0.3953  0.3985  0.0598
13569TIP3   OH262197   3.694   1.831  15.480 -0.2277  0.1035  0.0930
13569TIP3    H162198   3.601   1.850  15.478 -0.1122  0.7014 -1.2529
13569TIP3    H262199   3.715   1.818  15.572 -1.7928 -0.8641  0.3379
13570TIP3   OH262200   1.217   2.282  16.215 -0.4648  0.4873 -0.2344
13570TIP3    H162201   1.238   2.374  16.201 -2.0682  0.7873 -0.7820
13570TIP3    H262202   1.260   2.260  16.298  1.1555  1.3031 -0.8130
13571TIP3   OH262203   6.582   6.361  12.330 -0.0288  0.1307 -0.1088
13571TIP3    H162204   6.661   6.379  12.382  0.3726 -0.5990 -0.4511
13571TIP3    H262205   6.596   6.273  12.295 -0.8600  0.1204 -0.4330
13572TIP3   OH262206   1.342   3.812  16.360  0.1430 -0.2098 -0.0639
13572TIP3    H162207   1.416   3.818  16.420 -1.1005 -1.1639  1.6797
13572TIP3    H262208   1.379   3.782  16.278  1.8003  0.2466  0.4841
13573TIP3   OH262209   6.172   0.100  13.941  0.0397 -0.3043 -0.4172
13573TIP3    H162210   6.096   0.105  13.884 -1.4316 -0.6523  1.4270
13573TIP3    H262211   6.195   0.007  13.943  0.1186 -0.2864 -0.4580
13574TIP3   OH262212   3.939   2.417  17.017  0.2525 -0.1287 -0.0693
13574TIP3    H162213   3.845   2.408  17.033  0.1478  2.4992  1.5328
13574TIP3    H262214   3.945   2.450  16.927 -0.2830 -1.0299 -0.4462
13575TIP3   OH262215   0.259   6.151   3.778  0.0782 -0.3056  0.4854
13575TIP3    H162216   0.280   6.224   3.837  0.2606 -0.7669  1.0106
13575TIP3    H262217   0.342   6.102   3.770 -0.3411 -1.1626  1.1691
13576TIP3   OH262218   1.025   4.442  12.945 -0.2748 -0.4359 -0.2511
13576TIP3    H162219   0.952   4.501  12.929 -0.0734 -0.5987 -2.0046
13576TIP3    H262220   1.045   4.452  13.038 -0.4872  1.9723 -0.3989
13577TIP3   OH262221   4.057   4.233   5.408  0.2291 -0.0537 -0.0103
13577TIP3    H162222   4.146   4.214   5.378 -0.3610  0.1565 -2.0213
13577TIP3    H262223   4.016   4.147   5.417  1.2230 -0.3538  3.2259
13578TIP3   OH262224   3.598   3.043  14.617 -0.3153 -0.2439  0.2202
13578TIP3    H162225   3.555   2.961  14.592  1.3262 -0.8654 -0.7113
13578TIP3    H262226   3.583   3.101  14.543 -3.2322  1.1036  1.6941
13579TIP3   OH262227   5.297   1.577  12.504 -0.1040  0.3916  0.6889
13579TIP3    H162228   5.203   1.589  12.516  0.0878  1.9400  0.7907
13579TIP3    H262229   5.303   1.503  12.444 -1.4446  0.9905 -0.2542
13580TIP3   OH262230   3.362   4.575   0.706 -0.3638 -0.0409  0.0675
13580TIP3    H162231   3.357   4.665   0.741  1.1058 -0.1373  0.5927
13580TIP3    H262232   3.442   4.540   0.743 -1.2028 -1.7858  0.3070
13581TIP3   OH262233   0.987   4.707   5.441 -0.6076 -0.3974 -0.2302
13581TIP3    H162234   0.979   4.795   5.405 -2.8254 -0.4972 -0.0729
13581TIP3    H262235   0.987   4.649   5.365 -1.9247 -0.4095 -0.2306
13582TIP3   OH262236   1.817   2.658   2.738 -0.1025  0.2225  0.0754
13582TIP3    H162237   1.835   2.688   2.649  2.0182  1.5171  0.8617
13582TIP3    H262238   1.790   2.567   2.728 -1.9849  0.9273 -2.0209
13583TIP3   OH262239   3.555   5.789  13.903 -0.2184 -0.9266  0.0343
13583TIP3    H162240   3.554   5.786  13.998 -3.1970 -0.0128  0.1182
13583TIP3    H262241   3.502   5.714  13.876 -0.9223 -0.1512 -0.8108
13584TIP3   OH262242   5.825   5.332   1.315 -0.0921  0.1362 -0.0935
13584TIP3    H162243   5.866   5.249   1.288  1.6629  1.4800 -1.8768
13584TIP3    H262244   5.822   5.327   1.411  3.0710 -0.7063  0.0889
13585TIP3   OH262245   3.235   1.310   5.363  0.6943  0.0123  0.2875
13585TIP3    H162246   3.234   1.378   5.431  0.7673 -0.7022  1.0174
13585TIP3    H262247   3.278   1.352   5.288 -0.6228  1.2476  0.1930
13586TIP3   OH262248   0.072   5.684   3.179 -0.0799  0.2884 -1.0589
13586TIP3    H162249   0.164   5.698   3.158 -0.3925  1.7331 -1.5553
13586TIP3    H262250   0.040   5.770   3.205 -0.4327 -0.7979  2.6991
13587TIP3   OH262251   1.825   4.097  11.534 -0.3357 -0.4704 -0.2169
13587TIP3    H162252   1.787   4.171  11.581  1.7528  1.9245 -2.0203
13587TIP3    H262253   1.917   4.096  11.562  0.5788  0.0437 -2.9346
13588TIP3   OH262254   2.773   6.405   6.073  0.2439 -0.2022 -0.0529
13588TIP3    H162255   2.811   6.320   6.052  0.2611 -0.2182  0.0404
13588TIP3    H262256   2.841   6.450   6.124  0.1155 -0.2514  0.1623
13589TIP3   OH262257   0.479   0.249   6.178  0.5371  0.1099  0.2650
13589TIP3    H162258   0.501   0.165   6.217  2.7035  0.1470 -0.7354
13589TIP3    H262259   0.501   0.313   6.246  0.9563 -0.0180  0.2504
13590TIP3   OH262260   0.511   2.269   0.366  0.7399  0.2616 -0.6170
13590TIP3    H162261   0.422   2.251   0.337  1.0345  1.6825 -2.5417
13590TIP3    H262262   0.545   2.332   0.304  2.2514  1.7350  1.5500
13591TIP3   OH262263   6.100   2.928  17.090  0.5830  0.0317  0.3746
13591TIP3    H162264   6.089   3.019  17.061  0.9708 -0.0980 -0.2100
13591TIP3    H262265   6.011   2.898  17.107  0.3150  0.0905 -0.8125
13592TIP3   OH262266   4.327   2.013   4.469 -0.7846  1.0345 -0.4982
13592TIP3    H162267   4.240   2.009   4.429 -1.0538  0.2896  0.1403
13592TIP3    H262268   4.373   2.081   4.419 -0.6770 -0.6788 -2.9205
13593TIP3   OH262269   4.965   0.811  14.602 -0.2778  0.3436  0.1758
13593TIP3    H162270   4.934   0.885  14.655  0.3625  0.9418 -0.2626
13593TIP3    H262271   5.035   0.772  14.655 -0.3537  0.2927  0.2383
13594TIP3   OH262272   1.142   1.469   2.719  0.3336  0.5893 -0.2251
13594TIP3    H162273   1.179   1.424   2.795 -1.4729 -0.7203 -0.0467
13594TIP3    H262274   1.050   1.485   2.743 -0.0410  0.9747 -1.7851
13595TIP3   OH262275   3.693   0.472   5.873  0.8254  0.1499 -0.1069
13595TIP3    H162276   3.761   0.537   5.857  0.9886 -0.8303 -4.6939
13595TIP3    H262277   3.611   0.520   5.865  0.9781  0.2177 -1.5769
13596TIP3   OH262278   0.920   1.971   3.273  0.0757 -0.2327 -0.0443
13596TIP3    H162279   0.849   1.914   3.301  0.8099 -1.0747  0.1180
13596TIP3    H262280   0.877   2.056   3.257 -1.3452 -1.2424 -2.0234
13597TIP3   OH262281   4.990   4.234   5.286  0.6177  0.4335  0.6582
13597TIP3    H162282   4.941   4.315   5.306  0.1982 -0.0763  1.8510
13597TIP3    H262283   5.079   4.263   5.269  0.4722  1.1623  1.0836
13598TIP3   OH262284   3.337   4.308  16.694  1.0017 -0.1370 -0.3970
13598TIP3    H162285   3.428   4.294  16.720  0.6802  0.5515  1.2118
13598TIP3    H262286   3.319   4.400  16.716 -0.5144 -0.6637  0.8130
13599TIP3   OH262287   0.757   3.785  14.714 -0.0467 -0.1937  0.5072
13599TIP3    H162288   0.756   3.841  14.792 -1.5656  0.7034 -0.1226
13599TIP3    H262289   0.665   3.768  14.695  0.2789 -0.0444 -1.3544
13600TIP3   OH262290   1.959   6.569  11.974 -0.5316 -0.0169 -0.2101
13600TIP3    H162291   1.938   6.536  12.062  0.5396  0.1560  0.1168
13600TIP3    H262292   2.007   6.651  11.990  0.2540 -0.3264 -0.9429
13601TIP3   OH262293   0.912   3.934  14.481  0.1981  0.0754 -0.4933
13601TIP3    H162294   0.866   3.880  14.545 -1.0440 -0.4378 -1.7483
13601TIP3    H262295   0.880   3.903  14.396  2.5456  0.0107 -1.4474
13602TIP3   OH262296   5.049   2.408   5.472  0.5204 -0.6829  0.4427
13602TIP3    H162297   5.073   2.337   5.412 -0.6752 -0.4565 -0.3363
13602TIP3    H262298   5.012   2.363   5.549 -0.4036 -0.9238 -0.1246
13603TIP3   OH262299   2.864   6.289  16.539 -0.7196  0.4484  0.1866
13603TIP3    H162300   2.782   6.283  16.489 -1.0599  0.5362  0.7330
13603TIP3    H262301   2.926   6.328  16.477 -0.4229 -1.7794 -1.0391
13604TIP3   OH262302   6.146   1.427  11.625  0.1861  0.2643  0.6013
13604TIP3    H162303   6.214   1.408  11.690 -1.1080 -0.5876  1.7484
13604TIP3    H262304   6.083   1.482  11.671 -1.4518 -1.4844  0.5619
13605TIP3   OH262305   3.176   3.945  13.061  0.3220 -0.1316 -0.4192
13605TIP3    H162306   3.215   4.031  13.046  1.9676 -0.7098  0.2960
13605TIP3    H262307   3.221   3.911  13.138  2.0544 -2.9002 -2.4458
13606TIP3   OH262308   5.073   5.912  13.569 -0.4349  0.7139 -0.4351
13606TIP3    H162309   5.148   5.884  13.517 -1.2090  0.3325 -1.3853
13606TIP3    H262310   5.102   5.904  13.660  0.1839 -0.8160 -0.7415
13607TIP3   OH262311   4.178   3.111   2.110  0.0128  0.2252  0.3107
13607TIP3    H162312   4.212   3.163   2.182 -0.3466 -0.5713  1.0822
13607TIP3    H262313   4.229   3.139   2.034 -0.9497  2.5014  0.4376
13608TIP3   OH262314   5.504   3.775  11.516  0.8574 -0.0407  0.7125
13608TIP3    H162315   5.482   3.775  11.423 -0.1637 -1.7730  0.9106
13608TIP3    H262316   5.591   3.815  11.520  0.1825  1.7126 -0.7606
13609TIP3   OH262317   3.351   3.190  11.335  0.1111  0.0158 -0.7480
13609TIP3    H162318   3.443   3.216  11.328  0.3673 -0.8954 -0.8341
13609TIP3    H262319   3.310   3.226  11.257  0.1231  1.4648 -0.1273
13610TIP3   OH262320   3.599   1.635  13.048 -0.0143  0.1784  0.8405
13610TIP3    H162321   3.660   1.563  13.066 -1.5235 -1.0775  1.1415
13610TIP3    H262322   3.625   1.705  13.109  1.2196 -0.2486  0.8304
13611TIP3   OH262323   6.570   6.209  11.826  0.2628  0.1799 -0.1851
13611TIP3    H162324   6.654   6.175  11.796  0.6228 -0.3791  1.3794
13611TIP3    H262325   6.588   6.246  11.913 -1.0073  0.4802 -0.0243
13612TIP3   OH262326   2.065   1.177  12.963 -0.6286  0.0282  0.5272
13612TIP3    H162327   2.027   1.260  12.934 -0.0553 -0.4331 -1.7304
13612TIP3    H262328   1.998   1.112  12.943 -0.3726 -0.2682  0.6243
13613TIP3   OH262329   1.851   6.559   0.600  0.4027  0.5400 -0.7196
13613TIP3    H162330   1.809   6.561   0.514  0.6206  1.8702 -0.8098
13613TIP3    H262331   1.897   6.642   0.606 -0.7325  1.0900  1.2506
13614TIP3   OH262332   5.464   1.413  15.885 -0.1089 -0.0764  0.2446
13614TIP3    H162333   5.417   1.452  15.958 -0.0275 -2.0159  1.4006
13614TIP3    H262334   5.537   1.366  15.925  1.5518  1.0077 -1.3324
13615TIP3   OH262335   6.802   6.674   4.309 -0.2822  0.3907  0.0765
13615TIP3    H162336   6.878   6.671   4.367 -1.7966 -1.1500  2.1261
13615TIP3    H262337   6.759   6.757   4.330 -0.0933  0.4749  0.1339
13616TIP3   OH262338   2.712   6.563  14.418 -0.1895 -0.5623 -0.4419
13616TIP3    H162339   2.721   6.513  14.500  1.1070  0.7294  0.2676
13616TIP3    H262340   2.675   6.501  14.356  0.0669 -1.9918  0.7606
13617TIP3   OH262341   0.614   6.547  15.390  0.2648  0.1900  0.3715
13617TIP3    H162342   0.698   6.593  15.379  0.9370 -1.1289 -0.2934
13617TIP3    H262343   0.585   6.529  15.301 -1.1499  1.2984  0.5681
13618TIP3   OH262344   5.044   3.513   2.485  0.1898 -0.0802  0.0089
13618TIP3    H162345   4.980   3.530   2.554  2.4000  0.1820  2.1381
13618TIP3    H262346   5.042   3.418   2.472 -1.5570  0.0518 -1.0065
13619TIP3   OH262347   4.287   3.114   3.941  0.3213 -0.2042  0.5357
13619TIP3    H162348   4.192   3.113   3.930  0.0454  1.2601  2.2070
13619TIP3    H262349   4.316   3.190   3.891  0.4994 -0.1735  0.6857
13620TIP3   OH262350   1.893   3.067  13.668  0.3700 -0.1653  0.4721
13620TIP3    H162351   1.961   3.119  13.711 -0.3608  0.2517  1.1530
13620TIP3    H262352   1.824   3.059  13.734 -0.6154  0.1467 -0.4971
13621TIP3   OH262353   6.606   4.971   4.671  0.0089 -0.6116 -0.0865
13621TIP3    H162354   6.571   4.994   4.757 -0.2088  0.6405 -0.4849
13621TIP3    H262355   6.696   5.002   4.673  0.2073 -1.1867 -0.0789
13622TIP3   OH262356   4.072   0.002  12.730 -0.2111 -0.8332  0.2348
13622TIP3    H162357   4.073  -0.015  12.824 -0.6247 -0.6044  0.2839
13622TIP3    H262358   4.087  -0.084  12.690  1.0301 -0.7646  0.5104
13623TIP3   OH262359   4.302   4.770   0.474 -0.0757  0.0073  0.2997
13623TIP3    H162360   4.330   4.706   0.540 -1.5650  0.6852  1.6714
13623TIP3    H262361   4.218   4.739   0.443 -0.8120  1.2288  0.9675
13624TIP3   OH262362   5.249   4.818  10.718 -0.0065 -0.0656  0.2461
13624TIP3    H162363   5.188   4.745  10.730 -1.2885  0.6555 -1.3058
13624TIP3    H262364   5.194   4.888  10.683  1.5933  0.8986 -0.4294
13625TIP3   OH262365   1.202   4.976  11.574  0.2162  0.0805  0.0466
13625TIP3    H162366   1.213   5.032  11.651  0.1035 -1.1211  0.9784
13625TIP3    H262367   1.277   4.917  11.577  0.0328 -0.1904 -0.5867
13626TIP3   OH262368   0.871   4.567  13.628 -0.1744 -0.1635 -0.2318
13626TIP3    H162369   0.896   4.483  13.590  1.8987 -0.5013  1.6517
13626TIP3    H262370   0.781   4.554  13.659 -0.5200 -1.0673 -1.5569
13627TIP3   OH262371   2.563   3.077   2.099  0.3475  0.3154  0.3103
13627TIP3    H162372   2.565   3.150   2.037  1.0194 -1.9768 -2.5377
13627TIP3    H262373   2.639   3.092   2.156  0.1002  2.1202  0.2487
13628TIP3   OH262374   1.476   1.022  13.880  0.0341 -0.6401  0.4918
13628TIP3    H162375   1.477   1.067  13.796  1.7654 -1.5461 -0.0349
13628TIP3    H262376   1.414   0.951  13.869 -0.3788 -0.2491  0.2753
13629TIP3   OH262377   0.447   5.362  13.427 -0.1760 -0.1253 -0.4817
13629TIP3    H162378   0.438   5.441  13.480  1.5447  0.3332 -0.8131
13629TIP3    H262379   0.359   5.345  13.395 -0.8646  0.7900  0.8009
13630TIP3   OH262380   1.373   2.403  12.900  0.2059 -0.1145 -0.5294
13630TIP3    H162381   1.279   2.390  12.884 -0.1568  0.7521  0.7392
13630TIP3    H262382   1.416   2.339  12.845 -1.2152 -1.8218  0.2633
13631TIP3   OH262383   5.544   4.103   4.593 -0.3667 -0.1107  0.6333
13631TIP3    H162384   5.449   4.116   4.600 -1.0951 -2.5655 -2.4410
13631TIP3    H262385   5.557   4.010   4.610  1.3021 -0.0499 -0.1085
13632TIP3   OH262386   6.212   6.155   1.216 -0.1852 -0.3200  0.0557
13632TIP3    H162387   6.289   6.142   1.271  0.8714  1.0849 -1.0141
13632TIP3    H262388   6.240   6.132   1.128 -1.0576  0.0174 -0.3258
13633TIP3   OH262389   3.113   4.929  13.705  0.5634 -0.3061 -0.5013
13633TIP3    H162390   3.146   4.957  13.620 -0.1537 -0.1365 -0.7353
13633TIP3    H262391   3.115   5.008  13.759  0.1609 -0.1952 -0.6426
13634TIP3   OH262392   5.263   1.321  15.304  0.2032  0.0084  0.5840
13634TIP3    H162393   5.276   1.403  15.352  1.3125 -0.9204  1.9561
13634TIP3    H262394   5.343   1.271  15.321  0.2966 -0.6913 -1.6423
13635TIP3   OH262395   0.280   6.328  10.405 -0.2898  0.4425 -0.0190
13635TIP3    H162396   0.310   6.319  10.496  1.2083  0.8506 -0.4348
13635TIP3    H262397   0.275   6.239  10.373 -0.3152  0.3200  0.3191
13636TIP3   OH262398   1.263   6.385   4.943 -0.3587  0.3707  0.3412
13636TIP3    H162399   1.258   6.434   5.025 -1.5707  1.0645 -0.1196
13636TIP3    H262400   1.175   6.392   4.906  0.1719  0.0643 -1.0259
13637TIP3   OH262401   5.423   5.743   5.882  0.0209  0.5214 -0.1762
13637TIP3    H162402   5.373   5.801   5.824 -0.8912  0.4461  0.5288
13637TIP3    H262403   5.387   5.656   5.866 -2.1693  0.8258  2.4306
13638TIP3   OH262404   1.815   4.862  13.253  0.1279 -0.3171  0.0177
13638TIP3    H162405   1.763   4.848  13.333  1.0508  1.3217  0.9618
13638TIP3    H262406   1.785   4.947  13.220  1.9144  0.5107  0.4011
13639TIP3   OH262407   3.276   4.591  12.663  0.2218  0.1290  0.0304
13639TIP3    H162408   3.192   4.562  12.625 -0.0148 -0.3619  0.8947
13639TIP3    H262409   3.288   4.534  12.739  1.7449 -0.3491 -0.5343
13640TIP3   OH262410   3.306   3.361   5.835 -0.3302  0.2868  0.0202
13640TIP3    H162411   3.328   3.437   5.781 -0.5438 -0.3458 -0.9825
13640TIP3    H262412   3.378   3.355   5.898  0.8642 -0.0064 -1.3197
13641TIP3   OH262413   6.394   5.070   6.026 -0.2195 -0.1739 -0.5658
13641TIP3    H162414   6.302   5.089   6.042 -0.2198  0.9395 -1.7410
13641TIP3    H262415   6.428   5.047   6.113 -1.5264 -0.3170 -0.0629
13642TIP3   OH262416   5.522   5.144   4.755 -0.7287  0.8943 -0.7858
13642TIP3    H162417   5.471   5.064   4.759 -0.6235  0.8783  2.3626
13642TIP3    H262418   5.475   5.207   4.810 -0.6280  2.9694 -2.8767
13643TIP3   OH262419   3.243   2.682   5.108 -0.6859 -0.0003  0.1383
13643TIP3    H162420   3.160   2.672   5.156 -0.2230 -0.4964  0.8436
13643TIP3    H262421   3.252   2.601   5.059 -0.2338 -0.2814  0.6770
13644TIP3   OH262422   2.917   4.885  15.704 -0.2939 -0.0963  0.0959
13644TIP3    H162423   2.989   4.934  15.665 -0.1936 -0.5738 -0.3393
13644TIP3    H262424   2.871   4.948  15.759 -0.3272  0.5505 -0.6584
13645TIP3   OH262425   0.612   3.197  17.217 -0.0970 -0.0577  0.5984
13645TIP3    H162426   0.684   3.261  17.210 -0.9471  0.7316 -2.2492
13645TIP3    H262427   0.532   3.250  17.210 -0.8350 -1.3089 -1.6024
13646TIP3   OH262428   5.474   2.616  15.270  0.2155  0.0483 -0.2156
13646TIP3    H162429   5.406   2.588  15.332  0.8555 -1.1624 -0.0318
13646TIP3    H262430   5.521   2.685  15.316 -1.0862  1.1461 -0.4746
13647TIP3   OH262431   2.159   5.677   5.345  0.2138  0.5092 -0.4204
13647TIP3    H162432   2.183   5.622   5.420  1.7769  3.2137  1.2708
13647TIP3    H262433   2.125   5.757   5.385  0.6004  1.8425 -2.6199
13648TIP3   OH262434   5.771   1.765   1.749 -0.4807 -0.9340  0.4548
13648TIP3    H162435   5.713   1.699   1.786  0.3848 -1.7181  0.4680
13648TIP3    H262436   5.858   1.739   1.780 -0.2406  0.9321  1.5134
13649TIP3   OH262437   6.756   5.270  11.426 -0.0891 -0.2441  0.6028
13649TIP3    H162438   6.695   5.197  11.440  0.4075 -0.7408  0.2213
13649TIP3    H262439   6.703   5.337  11.382 -0.1825 -0.9665 -0.4159
13650TIP3   OH262440   4.117   6.442   4.885  0.9310 -0.6346 -0.1429
13650TIP3    H162441   4.154   6.405   4.966  1.3946  0.3369  0.1016
13650TIP3    H262442   4.171   6.519   4.867  0.4857 -0.5328 -1.0846
13651TIP3   OH262443   3.982   2.336   0.058  0.0368 -0.0315  0.0488
13651TIP3    H162444   4.024   2.348  -0.028  0.0526  0.9694  0.1817
13651TIP3    H262445   4.055   2.332   0.120 -0.0055  0.0940  0.1066
13652TIP3   OH262446   4.089   2.369   6.303 -0.2519 -0.0396  0.3409
13652TIP3    H162447   4.152   2.299   6.319  0.0029 -0.1989 -1.2673
13652TIP3    H262448   4.130   2.448   6.340  0.5697 -0.2770 -0.0584
13653TIP3   OH262449   1.273   5.225   4.040  0.3378  0.0592  0.4610
13653TIP3    H162450   1.238   5.314   4.043 -1.5352 -0.6394  0.9142
13653TIP3    H262451   1.315   5.213   4.126  0.8497  0.5826  0.2919
13654TIP3   OH262452   6.784   2.705  12.902 -0.6274  0.0460 -0.0814
13654TIP3    H162453   6.868   2.748  12.916 -0.5128 -0.4916  0.9298
13654TIP3    H262454   6.801   2.612  12.920 -1.7428  0.1223  1.5837
13655TIP3   OH262455   1.225   1.344  13.060  0.1722 -0.0009 -0.0521
13655TIP3    H162456   1.286   1.271  13.052 -0.8505 -1.1426  1.8881
13655TIP3    H262457   1.271   1.418  13.020  1.3563 -1.5946 -1.8388
13656TIP3   OH262458   4.435   5.402  15.979  0.5028 -0.4128 -0.0972
13656TIP3    H162459   4.516   5.443  15.951  0.2650  0.9784  1.1218
13656TIP3    H262460   4.404   5.354  15.902  0.8290  1.6694 -1.5865
13657TIP3   OH262461   1.491   6.809  15.676  0.1378 -0.0219  0.2781
13657TIP3    H162462   1.559   6.812  15.743 -1.2189 -1.5921  1.8184
13657TIP3    H262463   1.453   6.722  15.684 -0.6179  0.0323 -2.0367
13658TIP3   OH262464   1.764   2.974  16.014  0.0999 -0.1154 -0.0066
13658TIP3    H162465   1.712   3.012  16.085 -0.2763  0.2933 -0.4986
13658TIP3    H262466   1.808   2.899  16.055  0.0862  0.2642  0.7219
13659TIP3   OH262467   1.454   4.631  17.210  0.7267  0.2350 -0.1146
13659TIP3    H162468   1.532   4.578  17.230 -0.4821 -1.5105  0.1575
13659TIP3    H262469   1.420   4.594  17.129  0.0570  0.8443 -0.1182
13660TIP3   OH262470   3.764   0.463  16.721  0.2427 -0.7395 -0.3618
13660TIP3    H162471   3.783   0.385  16.773 -0.4940 -0.8835 -0.3007
13660TIP3    H262472   3.802   0.535  16.772 -0.2102 -0.9110  0.2275
13661TIP3   OH262473   3.551   4.959   2.728  0.2876  0.1948 -0.5044
13661TIP3    H162474   3.536   5.017   2.653 -0.8379  0.1532 -0.3194
13661TIP3    H262475   3.638   4.922   2.711 -0.9410 -1.8157 -3.1680
13662TIP3   OH262476   5.477   3.950   6.867 -0.2061  0.0327 -0.4928
13662TIP3    H162477   5.563   3.965   6.828  0.0520  1.7341  0.6146
13662TIP3    H262478   5.470   4.016   6.936 -3.2024  1.2897 -1.8044
13663TIP3   OH262479   1.277   4.245  12.000  0.7962  0.0601  0.3414
13663TIP3    H162480   1.301   4.215  12.088 -0.4907  0.3121  0.7962
13663TIP3    H262481   1.190   4.284  12.011  0.1452 -0.8794 -1.2466
13664TIP3   OH262482   0.386   4.322   0.227  0.0446  0.6090 -0.4785
13664TIP3    H162483   0.450   4.384   0.262 -0.3059 -0.0731  1.5018
13664TIP3    H262484   0.438   4.262   0.173  1.8104 -1.7318  3.3715
13665TIP3   OH262485   2.073   6.323  12.510  0.2719  0.3320  0.2366
13665TIP3    H162486   2.125   6.340  12.432 -0.4525  1.7722  0.0396
13665TIP3    H262487   2.070   6.407  12.556 -0.6660 -0.0902  0.9801
13666TIP3   OH262488   1.573   6.577  13.480 -0.5542 -0.0381  0.2211
13666TIP3    H162489   1.668   6.576  13.473 -0.5545 -0.2809  0.2330
13666TIP3    H262490   1.555   6.557  13.572 -0.5894  1.3663  0.5457
13667TIP3   OH262491   3.150   0.703   3.612 -0.0335 -0.0373  0.3432
13667TIP3    H162492   3.228   0.658   3.579 -0.6275 -2.0248  1.5170
13667TIP3    H262493   3.131   0.770   3.546  1.2414 -1.1188 -1.1845
13668TIP3   OH262494   1.993   6.272  14.406 -0.2547 -0.8018 -0.4697
13668TIP3    H162495   1.926   6.226  14.457 -0.7415 -1.3615 -1.5592
13668TIP3    H262496   1.945   6.310  14.332  0.7371 -2.1874 -1.9156
13669TIP3   OH262497   0.773   0.566  16.538 -0.3674  0.0696 -0.3492
13669TIP3    H162498   0.800   0.555  16.629  0.9609  1.0328 -0.6080
13669TIP3    H262499   0.765   0.476  16.505 -0.0625 -0.2779  0.4886
13670TIP3   OH262500   4.497   1.040  17.026 -0.0808 -0.1420 -0.0238
13670TIP3    H162501   4.547   0.959  17.034  0.8595  0.2495 -1.5711
13670TIP3    H262502   4.534   1.098  17.093 -1.9277 -1.4870  2.3103
13671TIP3   OH262503   5.745   5.352   1.636 -0.1579  0.2155 -0.1446
13671TIP3    H162504   5.652   5.332   1.623  0.0136 -0.4109 -0.4651
13671TIP3    H262505   5.747   5.446   1.654 -0.6951  0.5508 -1.7250
13672TIP3   OH262506   5.091   3.465  17.059  0.0878  0.4378 -0.4536
13672TIP3    H162507   5.111   3.538  17.000  1.4439 -0.3434 -1.0188
13672TIP3    H262508   5.058   3.396  17.001  0.5004  0.0026 -0.1861
13673TIP3   OH262509   6.530   0.961   4.255  0.1161 -0.2269 -0.7030
13673TIP3    H162510   6.514   0.867   4.267  0.1761 -0.2711 -0.9504
13673TIP3    H262511   6.624   0.971   4.265  0.1585 -0.2541 -1.0358
13674TIP3   OH262512   2.272   2.345  16.787  0.1470  0.2702  0.6260
13674TIP3    H162513   2.283   2.346  16.882  1.5033  0.3639  0.4905
13674TIP3    H262514   2.178   2.333  16.773  0.0793 -0.9299  1.9606
13675TIP3   OH262515   2.989   3.761  11.353 -0.6732 -0.5125 -0.4855
13675TIP3    H162516   3.025   3.773  11.265 -0.6978 -1.6920 -0.6693
13675TIP3    H262517   2.910   3.709  11.340  0.0823 -1.9106  0.3554
13676TIP3   OH262518   1.958   1.819   3.290  0.4544 -0.3839  0.2562
13676TIP3    H162519   2.010   1.873   3.231  0.5894  0.1695  0.8733
13676TIP3    H262520   2.008   1.817   3.371 -0.7980  0.7544  1.1044
13677TIP3   OH262521   4.710   5.268  16.182 -0.1393 -0.1559  0.5429
13677TIP3    H162522   4.683   5.343  16.235 -0.0955 -0.9993  1.7826
13677TIP3    H262523   4.798   5.292  16.151 -0.2469  0.4335  0.6724
13678TIP3   OH262524   2.458   0.253  14.380  0.8030  0.7764 -1.4564
13678TIP3    H162525   2.554   0.258  14.382  0.8350  0.9305 -2.5484
13678TIP3    H262526   2.438   0.234  14.288 -0.1146 -1.5856 -0.8279
13679TIP3   OH262527   2.355   5.413   1.264  0.0339 -0.0013 -0.1972
13679TIP3    H162528   2.407   5.462   1.328 -0.6042  0.4017  0.0208
13679TIP3    H262529   2.295   5.478   1.228 -0.8819 -0.6460  0.1464
13680TIP3   OH262530   6.063   5.949  15.770 -0.4113 -0.3969  0.5437
13680TIP3    H162531   6.135   5.937  15.832  1.4859 -3.9964 -1.9591
13680TIP3    H262532   6.101   6.001  15.699 -1.4360  0.6318  0.7241
13681TIP3   OH262533   5.859   1.635  11.701  0.4491  0.9426 -0.4097
13681TIP3    H162534   5.899   1.669  11.621 -1.0487  2.0102 -0.7345
13681TIP3    H262535   5.836   1.714  11.751  0.4736  0.3068  0.6210
13682TIP3   OH262536   5.220   2.409  14.422  0.0962  0.1298 -0.1107
13682TIP3    H162537   5.155   2.475  14.446  0.0909 -0.1057  0.5235
13682TIP3    H262538   5.188   2.328  14.463  0.4657 -0.1204 -0.3128
13683TIP3   OH262539   6.488   6.644  16.910 -0.1839  0.4797 -0.5496
13683TIP3    H162540   6.481   6.739  16.924  0.4545  0.9393 -2.8493
13683TIP3    H262541   6.399   6.611  16.923 -0.4093  1.3715  0.2944
13684TIP3   OH262542   4.661   5.500  12.777 -0.1261  0.5406 -0.3066
13684TIP3    H162543   4.690   5.410  12.765 -1.5162  0.1573 -0.9492
13684TIP3    H262544   4.741   5.552  12.766  0.3556 -0.4700 -1.9591
13685TIP3   OH262545   4.862   2.274   4.017 -0.3288 -0.0106  0.1381
13685TIP3    H162546   4.828   2.248   3.931 -1.5642  0.0239  0.5934
13685TIP3    H262547   4.829   2.363   4.030  1.8072  0.8999 -0.3400
13686TIP3   OH262548   5.193   3.686  16.875  0.0761 -0.3502 -0.2053
13686TIP3    H162549   5.215   3.767  16.828 -0.8967 -0.8374 -1.5541
13686TIP3    H262550   5.099   3.692  16.890 -0.3446 -1.9726 -1.8744
13687TIP3   OH262551   2.816   0.854  16.669  0.9679  0.0244 -0.2911
13687TIP3    H162552   2.881   0.865  16.600  0.6016 -0.0644 -0.6517
13687TIP3    H262553   2.850   0.782  16.723  0.9082 -0.3805 -0.7880
13688TIP3   OH262554   2.240   3.139   4.357  0.0429 -0.0935 -0.2042
13688TIP3    H162555   2.285   3.221   4.335 -0.2647  0.4719  1.1833
13688TIP3    H262556   2.151   3.152   4.327 -0.0810  0.2130  0.2828
13689TIP3   OH262557   4.561   5.208   5.379  0.0421 -0.3784  0.6850
13689TIP3    H162558   4.652   5.210   5.349  0.0486 -0.4762  0.6972
13689TIP3    H262559   4.529   5.123   5.351 -0.0627 -0.3223  0.6326
13690TIP3   OH262560   4.631   4.625  14.256  0.4827 -0.3857 -0.1299
13690TIP3    H162561   4.706   4.601  14.201  0.8406 -1.4676  0.7818
13690TIP3    H262562   4.670   4.651  14.340 -0.0855  0.5787 -0.1575
13691TIP3   OH262563   2.404   6.045   1.738  0.2843 -0.1265 -0.4510
13691TIP3    H162564   2.377   6.085   1.821 -0.2970 -0.3529 -0.5296
13691TIP3    H262565   2.389   6.113   1.673  0.8857  0.1061 -0.3600
13692TIP3   OH262566   6.624   1.356   3.286 -0.3549  0.3174 -0.0337
13692TIP3    H162567   6.665   1.442   3.285  0.0787  0.1256  0.4071
13692TIP3    H262568   6.575   1.351   3.204 -1.0306  1.2820  0.2952
13693TIP3   OH262569   5.285   6.077   2.927 -0.2408  0.7922  0.1626
13693TIP3    H162570   5.223   6.100   2.859  1.7146  1.6737 -1.4263
13693TIP3    H262571   5.298   5.983   2.918 -0.0801  0.8855 -0.6504
13694TIP3   OH262572   0.984   0.202  16.366 -0.2253  0.4943  0.0845
13694TIP3    H162573   0.956   0.111  16.361  1.2412 -0.1657  2.5661
13694TIP3    H262574   1.078   0.198  16.381  0.1224  2.4916 -1.1079
13695TIP3   OH262575   5.789   1.725  16.511 -0.4506 -0.3195  0.6962
13695TIP3    H162576   5.761   1.633  16.517 -1.0921 -0.1059  1.0560
13695TIP3    H262577   5.723   1.773  16.560 -1.6433  0.6515 -1.7369
13696TIP3   OH262578   6.518   5.329  13.530 -0.1794  0.3162 -0.1252
13696TIP3    H162579   6.571   5.316  13.608 -0.1687 -1.7938 -0.4179
13696TIP3    H262580   6.576   5.304  13.458 -0.3373  1.7825 -0.7775
13697TIP3   OH262581   2.557   5.293  12.296 -0.3744  0.0705  0.4574
13697TIP3    H162582   2.580   5.385  12.285 -1.5125  0.1354 -2.2849
13697TIP3    H262583   2.468   5.293  12.329 -0.0670 -0.0717  1.3022
13698TIP3   OH262584   2.059   3.770   5.359  0.1200  0.3183 -0.2383
13698TIP3    H162585   2.129   3.721   5.315  0.7968  0.1556  0.9774
13698TIP3    H262586   2.084   3.862   5.349 -0.6074  0.3952 -1.6130
13699TIP3   OH262587   6.688   2.504  15.381  0.3082  0.1708  0.2468
13699TIP3    H162588   6.708   2.447  15.455 -0.7382 -0.8452 -0.2244
13699TIP3    H262589   6.674   2.445  15.307 -0.6329  1.0327 -0.2984
13700TIP3   OH262590   5.141   4.688  14.096 -0.3433 -0.2982 -0.3302
13700TIP3    H162591   5.120   4.742  14.019  0.4137 -1.3279 -1.2984
13700TIP3    H262592   5.236   4.695  14.104 -0.5481  1.0020  1.4691
13701TIP3   OH262593   5.855   6.304   2.161  0.5310 -0.0108 -0.2657
13701TIP3    H162594   5.803   6.286   2.239  0.2700 -0.4521 -0.5384
13701TIP3    H262595   5.798   6.280   2.088  0.6998  0.5898 -0.6006
13702TIP3   OH262596   2.710   2.314   4.780  0.2634 -0.5189  0.0245
13702TIP3    H162597   2.745   2.225   4.774 -0.1126 -0.7979  1.5837
13702TIP3    H262598   2.786   2.370   4.766  1.1597 -1.1129  2.0860
13703TIP3   OH262599   5.535   2.774  12.288  0.4661  0.5411 -0.2856
13703TIP3    H162600   5.557   2.698  12.236  0.9058  1.2952 -1.2194
13703TIP3    H262601   5.443   2.792  12.267  0.9520  1.5269 -1.7319
13704TIP3   OH262602   5.414   4.664   1.283  0.5032  0.2838  0.9470
13704TIP3    H162603   5.347   4.657   1.350 -0.7414  1.0143 -0.1552
13704TIP3    H262604   5.434   4.574   1.259 -0.5109  0.0526  0.9137
13705TIP3   OH262605   0.006   6.336  16.319 -0.3250 -0.1765  0.4069
13705TIP3    H162606   0.009   6.425  16.284  1.5669  0.3577  1.7583
13705TIP3    H262607  -0.085   6.324  16.347 -1.0138  0.6722 -1.3251
13706TIP3   OH262608   6.710   1.761  13.621 -0.0575  0.1640  0.4248
13706TIP3    H162609   6.621   1.773  13.653 -0.4526  0.7579 -0.8099
13706TIP3    H262610   6.730   1.842  13.573  0.3705 -0.7489 -1.0170
13707TIP3   OH262611   1.715   5.907   6.273  0.1470 -0.2041  0.6872
13707TIP3    H162612   1.635   5.862   6.301 -0.2689 -0.4567 -0.7872
13707TIP3    H262613   1.762   5.842   6.220  0.3248  0.5638 -0.1225
13708TIP3   OH262614   6.302   2.961   1.873 -0.4906 -0.2837  0.3328
13708TIP3    H162615   6.272   2.928   1.958  0.5014 -0.9922  0.4253
13708TIP3    H262616   6.397   2.964   1.881 -0.0802 -3.3466 -1.7622
13709TIP3   OH262617   1.544   3.545   2.652 -0.3878  0.2284  0.8940
13709TIP3    H162618   1.462   3.497   2.640 -0.3693  0.3913 -0.0196
13709TIP3    H262619   1.528   3.603   2.726 -0.6093 -0.7627  1.6397
13710TIP3   OH262620   5.306   0.490   0.672  0.3966  0.0689 -0.9851
13710TIP3    H162621   5.219   0.452   0.680  0.7796 -0.6230  0.2741
13710TIP3    H262622   5.359   0.422   0.629  0.2226  0.6704 -2.1848
13711TIP3   OH262623   2.978   2.235   5.273 -0.0268  0.2422 -0.4001
13711TIP3    H162624   2.982   2.140   5.261 -0.1716  0.3477 -1.3905
13711TIP3    H262625   2.886   2.253   5.293  0.1326  0.1097  0.4949
13712TIP3   OH262626   1.411   3.276  15.151 -0.1094 -0.0387  0.1418
13712TIP3    H162627   1.403   3.204  15.089 -1.9855  0.0127  0.2836
13712TIP3    H262628   1.500   3.308  15.138  0.3285 -1.5404 -0.8329
13713TIP3   OH262629   5.771   2.889   1.517  0.7130  0.1660  0.5761
13713TIP3    H162630   5.711   2.912   1.446  2.2587  2.9480  0.0162
13713TIP3    H262631   5.830   2.825   1.478  0.0877 -0.1601  0.1369
13714TIP3   OH262632   1.327   4.245   2.445 -0.3433  0.3502  0.0436
13714TIP3    H162633   1.252   4.223   2.389 -0.1255  3.6039 -1.8147
13714TIP3    H262634   1.397   4.188   2.414 -1.3963 -1.0678  0.1757
13715TIP3   OH262635   3.829   5.123  14.391 -0.5897 -0.3594  0.0650
13715TIP3    H162636   3.816   5.053  14.327 -2.3745  0.6053 -0.6667
13715TIP3    H262637   3.903   5.092  14.445 -1.2209 -2.7265 -0.3151
13716TIP3   OH262638   3.289   4.400   3.419 -0.3580 -0.0274 -0.1297
13716TIP3    H162639   3.229   4.326   3.411  3.0928 -3.3989  1.9129
13716TIP3    H262640   3.271   4.436   3.506  1.0123 -1.6743  0.9075
13717TIP3   OH262641   3.929   3.315  13.442  0.0969  0.2699 -0.0029
13717TIP3    H162642   3.917   3.345  13.351  0.9867  1.6475  0.3048
13717TIP3    H262643   3.971   3.229  13.434  0.4147  0.4986 -0.8993
13718TIP3   OH262644   2.198   6.375   2.811 -0.0538 -0.3869 -0.3620
13718TIP3    H162645   2.169   6.319   2.739 -0.6385 -0.2598 -0.2348
13718TIP3    H262646   2.141   6.352   2.884  1.0557 -1.0667  0.2999
13719TIP3   OH262647   4.396   2.759  16.924 -0.8969  0.1725 -0.3109
13719TIP3    H162648   4.464   2.712  16.875 -0.2710  0.1503  0.5684
13719TIP3    H262649   4.438   2.783  17.006 -2.2084 -0.6068  0.6297
13720TIP3   OH262650   5.735   0.844   3.610 -0.5576 -0.2210 -0.3546
13720TIP3    H162651   5.821   0.806   3.626  0.8583  2.0492 -2.0095
13720TIP3    H262652   5.741   0.932   3.647 -3.1704 -0.8290  1.9217
13721TIP3   OH262653   0.958   3.426  14.207 -0.2818 -0.3117 -0.1665
13721TIP3    H162654   1.000   3.459  14.128  0.0270 -0.3369 -0.0119
13721TIP3    H262655   0.866   3.450  14.197 -0.1892 -0.0533 -0.3965
13722TIP3   OH262656   0.745   3.971  16.795 -0.3545 -0.0451 -0.4289
13722TIP3    H162657   0.790   4.051  16.770  0.1926 -0.6081 -1.3218
13722TIP3    H262658   0.696   3.946  16.716 -1.2258 -0.1202  0.1248
13723TIP3   OH262659   2.915   6.260  11.037 -0.7666 -0.2807 -0.1966
13723TIP3    H162660   2.970   6.290  10.964 -0.9241  1.1968  0.2395
13723TIP3    H262661   2.826   6.281  11.010 -1.1978 -2.8782 -0.9935
13724TIP3   OH262662   3.471   2.755   1.653 -0.1932  0.0649  0.0459
13724TIP3    H162663   3.485   2.661   1.661  0.2897  0.1602  0.3902
13724TIP3    H262664   3.503   2.776   1.566  1.6568  0.2307  0.7184
13725TIP3   OH262665   2.117   4.384  16.112  0.1244 -0.3974 -0.1155
13725TIP3    H162666   2.052   4.328  16.154  0.1824  0.4239  1.1152
13725TIP3    H262667   2.200   4.361  16.153  0.2392  0.1679 -0.0201
13726TIP3   OH262668   2.316   2.109  12.318 -0.1402 -0.0600  0.5232
13726TIP3    H162669   2.295   2.176  12.383 -1.3963 -2.2284  2.5036
13726TIP3    H262670   2.409   2.089  12.333 -0.0033  0.5889  0.5435
13727TIP3   OH262671   3.597   6.274   0.510 -0.2839  0.3745 -0.3002
13727TIP3    H162672   3.623   6.361   0.542 -1.4408  0.2754  0.9783
13727TIP3    H262673   3.543   6.292   0.434 -2.2657  0.9357  1.1500
13728TIP3   OH262674   6.640   4.662  14.174 -0.5469 -0.5784 -0.7651
13728TIP3    H162675   6.603   4.587  14.222 -1.8236  0.0863 -0.6649
13728TIP3    H262676   6.707   4.697  14.233 -1.4381 -0.3508  0.1581
13729TIP3   OH262677   0.247   3.963  16.865  0.1293  0.0844 -0.2672
13729TIP3    H162678   0.242   3.918  16.781 -0.4378  0.1945 -0.3002
13729TIP3    H262679   0.158   3.998  16.878  0.5855  1.3019 -0.3065
13730TIP3   OH262680   6.042   0.138  14.185  0.0038  0.3721 -0.1097
13730TIP3    H162681   6.114   0.079  14.163 -1.0118 -0.8368 -0.2789
13730TIP3    H262682   6.012   0.172  14.101 -0.2317  0.1339 -0.1232
13731TIP3   OH262683   6.211   2.131  13.778  0.8010  0.1508  0.2973
13731TIP3    H162684   6.149   2.073  13.734  0.4723 -0.3967  1.4591
13731TIP3    H262685   6.264   2.166  13.707 -0.4715  0.2079 -0.6735
13732TIP3   OH262686   0.426   1.645   0.410  0.2574  0.1541 -0.1114
13732TIP3    H162687   0.438   1.629   0.504  3.1494  0.7669 -0.3007
13732TIP3    H262688   0.510   1.622   0.370 -0.5766  0.8489 -2.4417
13733TIP3   OH262689   1.385   5.944   0.941 -0.3992 -0.7223 -0.1627
13733TIP3    H162690   1.454   6.009   0.960 -2.3875  2.2659 -2.2562
13733TIP3    H262691   1.433   5.868   0.909  2.0215  0.2493  0.8380
13734TIP3   OH262692   5.553   2.272   0.721  0.3127  0.2047 -0.2572
13734TIP3    H162693   5.504   2.195   0.748 -0.7739  1.0097  0.1820
13734TIP3    H262694   5.604   2.244   0.645 -0.6898 -0.7290 -0.6107
13735TIP3   OH262695   5.620   1.040  14.813 -0.9910  0.5470 -0.1301
13735TIP3    H162696   5.572   0.960  14.790  0.8546 -1.1287  1.4228
13735TIP3    H262697   5.591   1.060  14.901  0.8920 -0.3781  0.7529
13736TIP3   OH262698   1.142   3.993  15.725 -0.4037  0.3107 -0.0746
13736TIP3    H162699   1.065   4.026  15.680 -0.4437 -0.1339 -0.3365
13736TIP3    H262700   1.208   4.061  15.713 -0.7522  0.6999  0.1629
13737TIP3   OH262701   6.521   2.525   5.226 -0.6576 -0.1685 -0.4124
13737TIP3    H162702   6.506   2.600   5.283  1.6580  1.8701 -2.2346
13737TIP3    H262703   6.598   2.482   5.262 -0.0241  0.3034 -1.1709
13738TIP3   OH262704   0.597   3.940  12.871  0.1123  0.2468  0.3892
13738TIP3    H162705   0.691   3.943  12.889  0.2734  0.3441 -0.4123
13738TIP3    H262706   0.579   4.022  12.825 -0.8157  1.2749  2.4643
13739TIP3   OH262707   0.263   4.078   4.789 -0.3303  0.1760 -0.4615
13739TIP3    H162708   0.275   4.170   4.809  1.1341  0.2710 -1.6235
13739TIP3    H262709   0.348   4.038   4.807 -1.8689 -1.8220  3.9609
13740TIP3   OH262710   0.030   2.198  11.990 -0.3331  0.1416 -0.4048
13740TIP3    H162711   0.053   2.121  11.939 -2.9275  0.3230 -2.0879
13740TIP3    H262712   0.104   2.257  11.980 -0.3479 -0.1756 -3.4165
13741TIP3   OH262713   0.429   3.283  12.689 -0.4046  0.3255  0.4218
13741TIP3    H162714   0.407   3.196  12.656  0.1770  0.1152  0.5809
13741TIP3    H262715   0.345   3.327  12.697 -0.7081 -0.2311  0.3691
13742TIP3   OH262716   2.084   5.215   0.420  0.6132  0.0960 -0.7951
13742TIP3    H162717   2.027   5.292   0.414  1.6719  0.7822 -2.3595
13742TIP3    H262718   2.097   5.203   0.514 -0.2761  1.2948 -0.4916
13743TIP3   OH262719   2.164   5.821  12.261  0.3486 -0.3148 -0.1450
13743TIP3    H162720   2.247   5.808  12.215  0.1698  0.8292 -0.8509
13743TIP3    H262721   2.165   5.913  12.287  0.3108 -0.8524  1.9419
13744TIP3   OH262722   4.708   1.306   5.357 -0.3057  0.2992 -0.3278
13744TIP3    H162723   4.614   1.315   5.373 -0.2231  0.0154  0.3490
13744TIP3    H262724   4.749   1.331   5.440  0.2820  1.6640 -0.9925
13745TIP3   OH262725   0.784   3.555  10.887  0.6588 -0.2605 -0.0212
13745TIP3    H162726   0.858   3.562  10.826  1.4634 -1.8270  0.6942
13745TIP3    H262727   0.759   3.645  10.905  1.1533  0.2693 -1.7520
13746TIP3   OH262728   4.149   0.326   2.987 -0.2063  0.1355 -0.3084
13746TIP3    H162729   4.227   0.381   2.996  0.9052 -0.9397 -2.4543
13746TIP3    H262730   4.076   0.388   2.979  0.8233  1.2691 -1.2426
13747TIP3   OH262731   5.194   2.187  17.012 -0.0969  0.0808  0.2446
13747TIP3    H162732   5.147   2.135  17.077  0.4675  0.1793  0.7552
13747TIP3    H262733   5.248   2.247  17.065  1.7446 -1.0572 -0.2650
13748TIP3   OH262734   3.876   2.078   5.808 -0.6151 -0.1265  0.0425
13748TIP3    H162735   3.903   2.054   5.896 -1.4135 -1.8854 -0.1277
13748TIP3    H262736   3.957   2.092   5.760 -0.1795  1.3455  1.1477
13749TIP3   OH262737   0.868   0.315   3.045  0.0408 -0.4391 -0.5370
13749TIP3    H162738   0.935   0.333   3.111 -1.6376 -0.8265  1.3874
13749TIP3    H262739   0.875   0.221   3.029  0.9604 -0.2164 -1.5469
13750TIP3   OH262740   4.002   0.896   3.559 -0.5164  0.7080 -0.1102
13750TIP3    H162741   4.038   0.962   3.619 -1.7121  0.1555  1.2794
13750TIP3    H262742   4.078   0.844   3.532  0.0703  1.0556  0.8199
13751TIP3   OH262743   2.323   0.778  16.159  0.4337  0.0053 -0.2160
13751TIP3    H162744   2.281   0.733  16.087  0.2460  1.6420 -1.1684
13751TIP3    H262745   2.403   0.728  16.175  0.7138 -0.1350 -1.8820
13752TIP3   OH262746   5.193   6.515  15.217 -0.0315  0.2090 -0.3094
13752TIP3    H162747   5.240   6.578  15.162  3.0527 -1.2016  0.4487
13752TIP3    H262748   5.180   6.439  15.160 -0.1129  0.0812 -0.1211
13753TIP3   OH262749   1.510   3.399  16.877  0.1257 -0.8237 -0.4957
13753TIP3    H162750   1.598   3.403  16.912  0.0618 -2.0918 -0.1254
13753TIP3    H262751   1.461   3.347  16.941 -0.4322 -1.6697 -1.5639
13754TIP3   OH262752   3.176   1.507   1.382 -0.1675  0.0700  0.3982
13754TIP3    H162753   3.187   1.581   1.442 -1.0435 -0.6867  1.5253
13754TIP3    H262754   3.206   1.431   1.432  1.3368 -0.2804 -0.9754
13755TIP3   OH262755   4.485   6.797  15.966  0.0776 -0.2444  0.5697
13755TIP3    H162756   4.554   6.832  16.023 -0.4711 -0.1407  1.1767
13755TIP3    H262757   4.515   6.709  15.942  0.7155  0.0328  0.3119
13756TIP3   OH262758   0.243   3.956   1.732 -0.7334  0.0083  0.2673
13756TIP3    H162759   0.203   3.886   1.783  0.6049 -0.8589  0.1965
13756TIP3    H262760   0.231   3.930   1.641  1.4784 -1.2319  0.2481
13757TIP3   OH262761   2.045   3.437  11.374  0.2496 -0.0346  0.2717
13757TIP3    H162762   1.951   3.440  11.358  0.0125  1.6074  1.6422
13757TIP3    H262763   2.073   3.353  11.339 -1.6579 -0.3941 -0.4998
13758TIP3   OH262764   4.729   0.980   3.902 -0.2321  0.0287  0.0568
13758TIP3    H162765   4.823   0.991   3.917 -0.0739 -2.0694  0.9101
13758TIP3    H262766   4.690   0.987   3.989 -0.8259  0.4606 -0.2383
13759TIP3   OH262767   5.929   1.802  14.065  0.0418 -0.1865  0.0138
13759TIP3    H162768   6.023   1.809  14.080  0.0780  0.1970 -0.3685
13759TIP3    H262769   5.891   1.875  14.116 -0.2025 -1.2558  1.4355
13760TIP3   OH262770   5.706   5.101  12.307 -0.2604 -0.0239 -0.2202
13760TIP3    H162771   5.772   5.040  12.340 -0.4970 -0.0932  0.1342
13760TIP3    H262772   5.753   5.183  12.295 -0.6298  0.6961  2.5441
13761TIP3   OH262773   2.989   4.578   0.500 -0.0299 -0.6781 -0.8982
13761TIP3    H162774   3.071   4.544   0.465  0.8568  1.3787 -0.9923
13761TIP3    H262775   2.994   4.673   0.486 -0.8214 -0.0183  2.3325
13762TIP3   OH262776   4.274   5.562  14.217 -0.5672  0.0203  0.4750
13762TIP3    H162777   4.191   5.592  14.180 -0.5207 -0.6533 -0.2176
13762TIP3    H262778   4.341   5.602  14.161 -0.4463  0.0955  0.6729
13763TIP3   OH262779   2.892   2.016  17.142 -0.5395 -0.2470 -0.6639
13763TIP3    H162780   2.854   2.095  17.103 -2.6414 -1.6296 -1.6288
13763TIP3    H262781   2.953   1.984  17.075 -2.3932 -1.3348 -1.9346
13764TIP3   OH262782   6.477   3.990   0.453  0.0818  0.1361 -0.6304
13764TIP3    H162783   6.412   4.029   0.395  0.2877  0.9714 -0.2987
13764TIP3    H262784   6.543   3.955   0.394 -1.1746 -1.7144 -1.0379
13765TIP3   OH262785   4.487   6.795   0.453  0.1624 -0.3098  0.1718
13765TIP3    H162786   4.469   6.719   0.398 -1.8668  0.9785 -1.0795
13765TIP3    H262787   4.572   6.777   0.492  0.0524 -2.8840 -0.6295
13766TIP3   OH262788   5.600   2.166   4.946 -0.1498  0.0450 -0.2613
13766TIP3    H162789   5.694   2.155   4.957  0.0394  1.7798  0.2398
13766TIP3    H262790   5.568   2.188   5.033 -1.0362 -0.5763 -0.4160
13767TIP3   OH262791   4.710   3.818  17.035 -0.6469 -0.2911  0.1255
13767TIP3    H162792   4.739   3.895  17.085 -0.9592 -1.4238  2.1887
13767TIP3    H262793   4.781   3.755  17.045 -1.4673 -1.1599  0.6720
13768TIP3   OH262794   5.388   4.265   4.909  0.2136 -0.0319  0.5427
13768TIP3    H162795   5.407   4.210   4.985 -2.1458  1.5789  2.4534
13768TIP3    H262796   5.304   4.233   4.877 -1.3349  2.4472  1.8548
13769TIP3   OH262797   0.644   1.027   2.305  0.1906 -0.5913 -0.1330
13769TIP3    H162798   0.566   1.078   2.328  0.0063 -0.7958 -0.3106
13769TIP3    H262799   0.620   0.978   2.227  0.5901 -0.4376 -0.3586
13770TIP3   OH262800   6.783   6.449  12.527 -0.3452 -0.0990 -0.2605
13770TIP3    H162801   6.856   6.397  12.560 -0.5318  1.5326  3.1167
13770TIP3    H262802   6.821   6.500  12.455  2.1684  1.3015  1.9039
13771TIP3   OH262803   4.881   4.490  15.560 -0.5373  0.0623  0.4969
13771TIP3    H162804   4.972   4.466  15.579 -0.4254 -0.2158 -0.3671
13771TIP3    H262805   4.856   4.547  15.633  0.7347  1.1799  0.0993
13772TIP3   OH262806   4.399   3.648  14.321  0.0835 -0.3319 -0.3319
13772TIP3    H162807   4.467   3.705  14.358 -2.4159  0.5010  3.5191
13772TIP3    H262808   4.399   3.571  14.377 -2.0128 -0.3656 -0.2984
13773TIP3   OH262809   5.166   5.366   5.683  0.7713 -0.1673  0.3877
13773TIP3    H162810   5.242   5.316   5.653 -0.8101 -2.1336 -0.6364
13773TIP3    H262811   5.091   5.324   5.639 -0.9823  1.1946  1.9087
13774TIP3   OH262812   2.610   6.619  16.438  1.0523  0.5212 -0.3895
13774TIP3    H162813   2.674   6.669  16.488  1.2395 -0.4595  0.3835
13774TIP3    H262814   2.585   6.547  16.496 -0.4859  0.6690 -0.8107
13775TIP3   OH262815   0.636   3.449  14.861 -0.5837  0.0286  0.3481
13775TIP3    H162816   0.560   3.500  14.889 -0.3864  0.1988  0.5842
13775TIP3    H262817   0.710   3.490  14.906  0.1691  2.0442 -2.4575
13776TIP3   OH262818   2.806   2.405   0.084  0.3734  0.0287  0.0640
13776TIP3    H162819   2.850   2.321   0.097  0.7333  0.3943  1.3182
13776TIP3    H262820   2.872   2.462   0.045  0.7602  0.3154  1.1144
13777TIP3   OH262821   1.426   2.136   1.653 -0.5493  0.3040  0.1615
13777TIP3    H162822   1.458   2.186   1.577 -0.3468  0.2580  0.2178
13777TIP3    H262823   1.352   2.086   1.618 -1.1215  1.0815  0.2355
13778TIP3   OH262824   0.802   0.202  16.835 -0.2507  0.0628  0.0731
13778TIP3    H162825   0.831   0.268  16.772  1.8026  2.5483  3.2556
13778TIP3    H262826   0.858   0.126  16.818  1.4435  1.2971 -0.1069
13779TIP3   OH262827   3.270   0.018  16.087  0.2637 -0.0955  0.5965
13779TIP3    H162828   3.185  -0.019  16.065 -1.4552  3.3470  0.7695
13779TIP3    H262829   3.292  -0.022  16.171 -1.3976 -0.7787  0.7512
13780TIP3   OH262830   3.563   1.165   2.651  0.1741 -0.2259  0.1912
13780TIP3    H162831   3.622   1.133   2.582  0.3331  2.0742 -0.8249
13780TIP3    H262832   3.546   1.256   2.627 -1.0713  0.1640  2.3549
13781TIP3   OH262833   0.187   0.810   0.426  0.3096 -0.0537  0.4129
13781TIP3    H162834   0.237   0.746   0.376 -0.2939  1.5529 -2.4527
13781TIP3    H262835   0.097   0.777   0.424  0.1020  0.5378 -0.5461
13782TIP3   OH262836   5.536   5.930   4.104  0.4615  0.2514  0.6058
13782TIP3    H162837   5.568   6.018   4.083  1.4121 -0.1871  0.1492
13782TIP3    H262838   5.491   5.902   4.024 -1.9027  1.1846  1.5132
13783TIP3   OH262839   1.449   5.142  14.023 -0.4177  0.4200 -0.5292
13783TIP3    H162840   1.422   5.193  14.100 -2.3074  0.8342 -1.4112
13783TIP3    H262841   1.377   5.081  14.008  0.0314  0.1853 -1.8466
13784TIP3   OH262842   1.236   1.127   2.898  0.1967 -0.0171  0.0494
13784TIP3    H162843   1.269   1.215   2.914  0.0061 -0.1389  1.2097
13784TIP3    H262844   1.235   1.118   2.803 -1.0707  1.7239 -0.1417
13785TIP3   OH262845   5.391   4.050   0.131  0.2748  0.5010  0.5395
13785TIP3    H162846   5.460   4.000   0.174 -0.3830 -0.4963  0.4738
13785TIP3    H262847   5.317   4.045   0.191  0.1126  1.1725  0.4006
13786TIP3   OH262848   6.364   0.458  12.898  0.2441 -0.2615 -0.2166
13786TIP3    H162849   6.398   0.538  12.938 -0.3087  0.5188 -1.2668
13786TIP3    H262850   6.269   0.464  12.912  0.1103 -0.2800 -1.1018
13787TIP3   OH262851   5.970   1.164   4.708  0.2935  0.2614  0.0096
13787TIP3    H162852   6.051   1.162   4.656  0.0798  0.8952 -0.3538
13787TIP3    H262853   5.928   1.246   4.684  0.0755  0.4615  1.0231
13788TIP3   OH262854   3.119   1.885   2.109  0.3343 -0.6438  0.4295
13788TIP3    H162855   3.084   1.826   2.042 -1.9928 -0.3076  1.2611
13788TIP3    H262856   3.168   1.951   2.060 -1.0709 -0.5630 -0.9245
13789TIP3   OH262857   1.022   6.327  12.678  0.1039 -0.1776  0.5262
13789TIP3    H162858   1.022   6.262  12.608  1.1090  1.2580 -0.8651
13789TIP3    H262859   1.112   6.357  12.683 -0.2109  0.6338  1.6008
13790TIP3   OH262860   3.332   6.208   4.536 -0.0492 -0.0681 -0.2427
13790TIP3    H162861   3.403   6.233   4.476  1.7131  0.6187  2.0049
13790TIP3    H262862   3.272   6.158   4.481  1.4956  0.4414 -2.5626
13791TIP3   OH262863   0.639   5.598   2.516  0.2368 -0.2465 -0.6635
13791TIP3    H162864   0.652   5.629   2.426  0.0707 -0.5424 -0.7932
13791TIP3    H262865   0.640   5.677   2.570  0.4598 -0.0789 -0.9133
13792TIP3   OH262866   0.510   4.590  12.843  0.4450  0.4056  0.5114
13792TIP3    H162867   0.564   4.528  12.794  1.7583  1.2781  0.8065
13792TIP3    H262868   0.520   4.564  12.935 -0.6991 -0.2179  0.4807
13793TIP3   OH262869   5.269   4.025   5.316 -0.0219 -0.0595  0.1231
13793TIP3    H162870   5.357   4.051   5.343 -0.0377 -0.7837  0.9371
13793TIP3    H262871   5.249   4.080   5.240  2.4450 -2.2242 -2.2688
13794TIP3   OH262872   1.897   2.938   0.232  0.0626 -0.3711 -0.0821
13794TIP3    H162873   1.836   2.867   0.212 -0.9688  0.0856  1.2797
13794TIP3    H262874   1.936   2.960   0.147 -0.4525 -1.7641 -0.7179
13795TIP3   OH262875   5.210   1.901  15.377 -0.0095  0.1625  0.1823
13795TIP3    H162876   5.130   1.875  15.332 -0.1361  0.3746  0.2801
13795TIP3    H262877   5.270   1.926  15.307  0.6456 -1.8078  0.0022
13796TIP3   OH262878   1.861   4.085   6.385 -0.2776  0.1037 -0.2976
13796TIP3    H162879   1.847   3.991   6.374 -0.2735  0.1602 -0.8098
13796TIP3    H262880   1.875   4.097   6.479 -0.0217 -0.4408 -0.2662
13797TIP3   OH262881   1.713   6.502   2.842 -0.1860  0.0019 -0.4292
13797TIP3    H162882   1.723   6.430   2.780  0.7026 -0.0761 -0.2151
13797TIP3    H262883   1.628   6.488   2.882  0.3018 -1.3733  0.1596
13798TIP3   OH262884   1.054   2.534  12.134 -0.0504 -1.2362 -0.4496
13798TIP3    H162885   1.019   2.621  12.114 -0.9610 -1.5184 -0.1560
13798TIP3    H262886   1.129   2.524  12.076  1.2781  0.5138  0.8593
13799TIP3   OH262887   4.110   1.024  15.139  0.0716  0.4941 -0.0114
13799TIP3    H162888   4.184   1.029  15.199  0.7186 -0.9932 -0.6288
13799TIP3    H262889   4.117   0.937  15.100 -1.6336  0.5768 -0.5764
13800TIP3   OH262890   5.954   1.993   2.272 -0.1041  0.2861 -0.3504
13800TIP3    H162891   5.983   2.084   2.285 -0.8292  0.4557  0.1651
13800TIP3    H262892   5.964   1.978   2.178 -0.1292  0.9556 -0.4669
13801TIP3   OH262893   5.454   1.976   3.940 -0.0471  0.1506  0.3879
13801TIP3    H162894   5.464   1.933   3.855 -0.3015 -0.5847  0.7153
13801TIP3    H262895   5.494   2.062   3.929  2.8425 -1.0813  0.4278
13802TIP3   OH262896   0.421   5.733  12.779 -0.5352  0.3055 -0.2462
13802TIP3    H162897   0.488   5.712  12.714 -2.1441 -0.6323 -1.6597
13802TIP3    H262898   0.410   5.828  12.774 -0.1426  0.3199 -0.8225
13803TIP3   OH262899   0.638   1.873   5.780 -0.3048  0.2817 -0.1986
13803TIP3    H162900   0.548   1.854   5.805  0.5531 -1.5058  1.8745
13803TIP3    H262901   0.675   1.917   5.856  0.9198 -0.2351 -0.4694
13804TIP3   OH262902   5.604   2.240  17.267  0.3531  0.3194 -0.1412
13804TIP3    H162903   5.548   2.312  17.296  1.2697  0.3553  1.6868
13804TIP3    H262904   5.693   2.274  17.276  0.8219 -1.1176  1.1023
13805TIP3   OH262905   0.567   3.455  16.551 -0.1016  0.1464 -0.2000
13805TIP3    H162906   0.481   3.447  16.511  0.7105 -0.5574 -1.9500
13805TIP3    H262907   0.551   3.488  16.639 -2.0826  0.7618 -0.7553
13806TIP3   OH262908   6.249   3.431  13.365 -0.5557 -0.8178  0.3306
13806TIP3    H162909   6.179   3.450  13.427 -0.1944 -0.1339  0.5406
13806TIP3    H262910   6.326   3.475  13.401 -0.6644  0.8476 -1.3030
13807TIP3   OH262911   0.901   2.625   0.243 -0.0354 -0.4326 -0.2910
13807TIP3    H162912   0.843   2.684   0.195 -0.3381  0.0192  0.6192
13807TIP3    H262913   0.987   2.640   0.204 -0.1093  0.6161 -0.0807
13808TIP3   OH262914   0.646   4.907  13.510 -0.0991 -0.1993  0.0442
13808TIP3    H162915   0.703   4.976  13.475  0.2254  0.8068  2.4066
13808TIP3    H262916   0.558   4.940  13.496  0.0047 -0.0239 -0.2123
13809TIP3   OH262917   2.828   5.029  13.683  0.6515  0.0502  0.0865
13809TIP3    H162918   2.880   4.983  13.749  1.0552  2.7118  1.7334
13809TIP3    H262919   2.738   5.001  13.700  1.1503 -3.2274 -1.6689
13810TIP3   OH262920   6.092   6.755   5.927  0.3933 -0.1625 -0.6594
13810TIP3    H162921   6.140   6.732   5.848  1.3038 -0.4728 -0.0374
13810TIP3    H262922   6.151   6.732   5.999  0.8028  2.7789  0.0748
13811TIP3   OH262923   0.679   4.522  15.441  0.0821 -0.1527  0.7413
13811TIP3    H162924   0.687   4.572  15.360 -1.1401  2.1719  1.9466
13811TIP3    H262925   0.699   4.432  15.416 -0.5073  0.4235 -2.1614
13812TIP3   OH262926   0.031   2.906   4.118 -0.1470 -0.6449  0.5308
13812TIP3    H162927  -0.054   2.863   4.109 -0.3088 -0.0634 -1.0996
13812TIP3    H262928   0.030   2.945   4.205 -2.4823  1.2649 -0.2474
13813TIP3   OH262929   3.075   4.184   0.451  0.0960  0.1803  0.1009
13813TIP3    H162930   3.107   4.192   0.540 -0.3551 -0.2174  0.3042
13813TIP3    H262931   3.088   4.092   0.429 -0.7324  0.0492  0.1281
13814TIP3   OH262932   5.685   0.477   0.866 -0.3523  0.0070  0.1368
13814TIP3    H162933   5.757   0.462   0.927 -0.4785  0.0271  0.2923
13814TIP3    H262934   5.686   0.400   0.808 -0.4578 -0.1889  0.3920
13815TIP3   OH262935   2.051   1.111  16.299 -0.6206 -0.1999  0.3141
13815TIP3    H162936   2.065   1.126  16.206 -1.1210  0.6709  0.3694
13815TIP3    H262937   1.968   1.155  16.319 -0.9960 -1.1702  0.9783
13816TIP3   OH262938   4.792   0.512  10.507  0.4157 -0.6977  0.9204
13816TIP3    H162939   4.751   0.537  10.425 -0.5526  2.0232  2.1075
13816TIP3    H262940   4.886   0.519  10.491  0.2189  1.7409  0.5223
13817TIP3   OH262941   5.000   3.815  13.380  0.1756 -0.1026  0.4858
13817TIP3    H162942   5.004   3.730  13.424  1.3628 -0.1426  0.3266
13817TIP3    H262943   4.990   3.878  13.451  0.1454 -0.3061  0.6651
13818TIP3   OH262944   1.029   3.925   6.017 -0.2961 -0.4114 -0.3298
13818TIP3    H162945   1.047   3.831   6.015  2.0289 -0.0853  1.4303
13818TIP3    H262946   1.115   3.966   6.006 -1.4029  1.5777 -2.3407
13819TIP3   OH262947   1.150   4.580  13.671 -0.6960  0.4636  0.1707
13819TIP3    H162948   1.061   4.557  13.696 -0.1532 -1.4956  0.5325
13819TIP3    H262949   1.157   4.556  13.579 -0.5898  0.7677  0.0977
13820TIP3   OH262950   3.541   2.225  16.311  0.2231  0.2449  0.0371
13820TIP3    H162951   3.506   2.204  16.225 -0.0170 -1.5682  0.5398
13820TIP3    H262952   3.586   2.309  16.299 -2.0007  1.3512 -1.2419
13821TIP3   OH262953   2.482   4.081  16.600  0.4054  0.1251 -0.5049
13821TIP3    H162954   2.392   4.075  16.633  0.7324 -0.5182  0.3154
13821TIP3    H262955   2.532   4.024  16.658  1.1530 -0.4424 -1.6728
13822TIP3   OH262956   1.522   5.446  16.400  0.1780  0.1111  0.0904
13822TIP3    H162957   1.609   5.461  16.436 -0.3727  0.5590  1.2952
13822TIP3    H262958   1.463   5.491  16.461 -0.8902 -0.1373 -0.7316
13823TIP3   OH262959   5.955   1.160   6.313 -0.3634 -0.4211 -0.4684
13823TIP3    H162960   6.020   1.130   6.377 -0.7387 -1.3189 -0.4975
13823TIP3    H262961   5.890   1.206   6.366  1.3546  2.4816 -0.6540
13824TIP3   OH262962   1.320   3.028  12.411  0.1177  0.3050  1.0577
13824TIP3    H162963   1.257   3.051  12.342 -0.8446 -0.4812  1.6380
13824TIP3    H262964   1.273   2.966  12.466  1.4514 -0.3841  1.4674
13825TIP3   OH262965   6.494   0.039  13.896  0.1578 -0.2341  0.3824
13825TIP3    H162966   6.406   0.076  13.895 -0.1218 -0.8841  0.7113
13825TIP3    H262967   6.552   0.115  13.888 -0.3296  0.5364  3.0919
13826TIP3   OH262968   1.725   0.143  15.151 -0.0731  0.9252 -0.1887
13826TIP3    H162969   1.644   0.135  15.100  0.2647 -0.3725 -0.5602
13826TIP3    H262970   1.792   0.169  15.088 -0.2552  2.4548  0.2007
13827TIP3   OH262971   3.466   4.284  17.133  0.0638 -0.1583  0.4278
13827TIP3    H162972   3.504   4.222  17.072  4.4101  0.6598  1.9736
13827TIP3    H262973   3.483   4.370  17.094 -0.5573  0.2542  1.0246
13828TIP3   OH262974   5.292   0.512   4.582 -0.8057 -0.2864 -0.4448
13828TIP3    H162975   5.328   0.525   4.669 -3.3224 -0.1872  0.6818
13828TIP3    H262976   5.284   0.416   4.574  0.4825 -0.3532 -1.0599
13829TIP3   OH262977   5.754   3.722   0.729 -0.2024  0.3917 -0.0210
13829TIP3    H162978   5.742   3.741   0.823  3.3493 -0.2492  0.7089
13829TIP3    H262979   5.813   3.790   0.698  1.0970 -1.0949 -0.9870
13830TIP3   OH262980   3.969   1.118   3.305  0.3556 -0.0452  0.1704
13830TIP3    H162981   3.910   1.145   3.375  1.8577  0.9793  1.0850
13830TIP3    H262982   3.936   1.164   3.227  2.2034  3.8976  1.4533
13831TIP3   OH262983   0.268   2.532  17.044  0.7106  0.1715  0.0821
13831TIP3    H162984   0.180   2.556  17.014  1.2483 -0.7659 -2.4598
13831TIP3    H262985   0.283   2.445  17.007  2.4586 -0.0039  1.0879
13832TIP3   OH262986   5.499   4.657  13.015  0.4518  0.1011 -0.0278
13832TIP3    H162987   5.507   4.582  12.956 -0.5396  0.9091 -1.2356
13832TIP3    H262988   5.518   4.733  12.960 -2.3231  1.0397  0.1378
13833TIP3   OH262989   1.229   1.231  15.356  0.1593  0.7623  0.5097
13833TIP3    H162990   1.163   1.198  15.417 -2.4859  3.9157 -0.3502
13833TIP3    H262991   1.256   1.154  15.306 -3.5307 -0.6589  0.3851
13834TIP3   OH262992   5.325   3.655  15.285  0.0582  0.0627  0.7054
13834TIP3    H162993   5.250   3.618  15.330 -0.2941  1.3536  1.2119
13834TIP3    H262994   5.390   3.671  15.354  0.0536  0.7275  0.5691
13835TIP3   OH262995   5.197   1.748   1.207  0.4806  0.4576  0.0453
13835TIP3    H162996   5.179   1.680   1.142  0.6017 -1.7535  2.2061
13835TIP3    H262997   5.291   1.741   1.223  0.3281  0.4945  0.9814
13836TIP3   OH262998   6.161   4.423   3.326  0.9646 -0.3138 -0.4741
13836TIP3    H162999   6.066   4.412   3.335  0.8334  0.4471 -0.8815
13836TIP3    H263000   6.198   4.342   3.362  0.1392 -0.8355 -0.7774
13837TIP3   OH263001   0.222   5.580   0.597  0.3476 -0.4970  0.0375
13837TIP3    H163002   0.205   5.596   0.504 -0.7699  0.4619  0.3838
13837TIP3    H263003   0.317   5.589   0.606  0.2393  1.9312 -0.5848
13838TIP3   OH263004   6.196   4.301   3.761 -1.0921  0.5659 -0.4366
13838TIP3    H163005   6.118   4.322   3.708 -1.2737  2.6077  0.5595
13838TIP3    H263006   6.247   4.382   3.763  0.7268 -0.5215 -0.4459
13839TIP3   OH263007   3.771   0.216   5.888 -0.2899 -0.2164  0.0666
13839TIP3    H163008   3.701   0.154   5.864  0.7292 -0.4856 -2.6091
13839TIP3    H263009   3.725   0.295   5.915 -1.6167 -0.9263 -0.0366
13840TIP3   OH263010   4.398   0.868  11.136 -0.2880 -0.4813  0.0455
13840TIP3    H163011   4.345   0.860  11.057  0.4564  2.5767 -0.8907
13840TIP3    H263012   4.420   0.961  11.141  1.0191 -0.8289  3.0148
13841TIP3   OH263013   4.440   3.336   5.534  0.7280 -0.4661  0.2913
13841TIP3    H163014   4.401   3.375   5.611 -0.0942 -0.6625 -0.0102
13841TIP3    H263015   4.532   3.326   5.556  1.0894  2.0867  0.1861
13842TIP3   OH263016   2.239   4.196  11.412  0.0384  0.5182 -0.0806
13842TIP3    H163017   2.324   4.231  11.387 -0.7960  1.6539 -1.4965
13842TIP3    H263018   2.232   4.114  11.363  0.2985  0.4598 -0.0201
13843TIP3   OH263019   4.880   1.541   0.232 -0.3570 -0.1390 -1.0798
13843TIP3    H163020   4.867   1.449   0.253  1.2282 -0.8416 -2.7969
13843TIP3    H263021   4.896   1.542   0.137 -0.8058  1.9627 -1.1884
13844TIP3   OH263022   2.073   2.304   4.781 -0.2113 -0.3259 -0.0016
13844TIP3    H163023   2.067   2.209   4.774  0.1117 -0.4557  1.1518
13844TIP3    H263024   1.982   2.334   4.781 -0.4098 -0.8203  1.4393
13845TIP3   OH263025   1.029   3.172  14.114 -0.1537  0.1417  0.5412
13845TIP3    H163026   1.122   3.196  14.113 -0.4775  1.9426  3.4562
13845TIP3    H263027   0.985   3.244  14.158 -2.9942 -0.6754 -0.7015
13846TIP3   OH263028   0.835   4.855   0.131 -0.0478  0.4002  0.8098
13846TIP3    H163029   0.868   4.942   0.150  0.6384  0.1959  0.5826
13846TIP3    H263030   0.746   4.854   0.168 -0.5546  1.6152 -0.2998
13847TIP3   OH263031   6.048   0.357  15.082  0.0320  0.2342  0.4944
13847TIP3    H163032   6.092   0.322  15.004 -3.8394 -1.9025 -1.0414
13847TIP3    H263033   6.113   0.348  15.152  3.3535  1.2771 -2.1533
13848TIP3   OH263034   5.943   1.418  10.794 -0.5283  0.3665  0.4612
13848TIP3    H163035   5.914   1.426  10.703 -0.2506 -0.4926  0.2812
13848TIP3    H263036   6.029   1.376  10.788  0.4639  2.2228  1.0187
13849TIP3   OH263037   2.255   4.108   0.431 -0.0012 -0.3237  0.1872
13849TIP3    H163038   2.217   4.027   0.467 -1.7260  0.7177  0.8744
13849TIP3    H263039   2.193   4.176   0.457  0.8550  1.0825 -1.2882
13850TIP3   OH263040   2.831   5.500  12.181 -0.2549 -0.2333  0.1790
13850TIP3    H163041   2.899   5.523  12.245  1.1158  0.5204 -1.4776
13850TIP3    H263042   2.749   5.529  12.222  0.5644  0.1967  1.5864
13851TIP3   OH263043   5.535   5.450  15.898 -0.0457  0.3809  0.1882
13851TIP3    H163044   5.617   5.414  15.865 -0.3124 -1.2045  1.2010
13851TIP3    H263045   5.488   5.376  15.934 -1.4761  1.4390  0.6077
13852TIP3   OH263046   4.810   2.866   4.565  0.2463 -0.1291  0.5454
13852TIP3    H163047   4.895   2.849   4.606  0.1396 -0.6458  0.5632
13852TIP3    H263048   4.822   2.949   4.518  0.9197 -0.4667  0.0979
13853TIP3   OH263049   1.317   3.958   3.501  0.5551 -0.4048  0.0893
13853TIP3    H163050   1.366   3.977   3.421 -0.8473 -0.1375 -0.7394
13853TIP3    H263051   1.352   3.874   3.531  1.1949 -0.4524 -0.7402
13854TIP3   OH263052   1.641   1.834  11.921 -0.1828 -0.1408  0.1330
13854TIP3    H163053   1.626   1.829  11.826 -1.5260 -0.3769  0.3362
13854TIP3    H263054   1.631   1.744  11.952  1.7850 -0.3307  0.3174
13855TIP3   OH263055   3.405   5.747  12.243  0.1465  0.7091  0.1170
13855TIP3    H163056   3.376   5.759  12.153 -0.1965 -0.9074 -0.0203
13855TIP3    H263057   3.482   5.690  12.236 -1.6107 -1.9379  0.9639
13856TIP3   OH263058   2.907   3.837  16.238  0.6597 -0.0680 -0.0147
13856TIP3    H163059   2.878   3.746  16.238  2.6404 -0.7676 -1.5622
13856TIP3    H263060   2.999   3.834  16.212  0.9080  2.3623  0.2636
13857TIP3   OH263061   2.172   3.078   0.537  0.0963  0.1007 -0.2883
13857TIP3    H163062   2.231   3.151   0.552 -0.6137  0.6868 -0.2937
13857TIP3    H263063   2.118   3.106   0.463  0.7292 -0.9974 -1.1894
13858TIP3   OH263064   4.126   1.786  11.053 -0.5666 -0.0873  0.3362
13858TIP3    H163065   4.108   1.712  11.112  1.4156 -0.2731  0.7705
13858TIP3    H263066   4.150   1.745  10.970  1.8511 -0.0562  0.9485
13859TIP3   OH263067   4.334   0.882   2.869 -0.2958 -0.1796 -0.2666
13859TIP3    H163068   4.355   0.967   2.830 -1.4383 -0.1868 -0.9391
13859TIP3    H263069   4.272   0.842   2.808 -1.6312 -0.4852  1.2273
13860TIP3   OH263070   4.669   5.239  12.669  0.0631 -0.0892  0.1362
13860TIP3    H163071   4.726   5.249  12.593 -1.0483  0.5717 -0.6433
13860TIP3    H263072   4.618   5.160  12.652 -1.7420  1.2051 -0.9327
13861TIP3   OH263073   2.337   3.560  13.410  0.5332 -0.1434 -0.2826
13861TIP3    H163074   2.282   3.502  13.463  1.8268 -0.0222  1.2832
13861TIP3    H263075   2.301   3.553  13.322 -1.3562 -0.8038  0.4868
13862TIP3   OH263076   0.712   4.762   1.922 -0.2256  0.3123  0.0941
13862TIP3    H163077   0.736   4.770   1.830 -1.0477  0.4534 -0.1154
13862TIP3    H263078   0.785   4.716   1.962 -0.3538 -0.7562 -0.8464
13863TIP3   OH263079   1.764   0.222  10.574  0.1012  0.0076 -0.1698
13863TIP3    H163080   1.710   0.196  10.499  2.0681  0.6475 -1.9077
13863TIP3    H263081   1.796   0.309  10.550 -0.2838  0.8235  2.0750
13864TIP3   OH263082   0.026   4.202  12.659 -0.3267 -0.2624  0.3837
13864TIP3    H163083   0.114   4.229  12.686 -0.1527  0.2490 -0.6288
13864TIP3    H263084   0.035   4.111  12.633  0.1173  0.0341 -0.5520
13865TIP3   OH263085   2.287   6.136   4.272 -0.0307 -0.1154  0.4088
13865TIP3    H163086   2.347   6.211   4.279  0.5370 -0.5906  0.6960
13865TIP3    H263087   2.203   6.170   4.301 -0.2988  0.9989 -1.4978
13866TIP3   OH263088   0.837   1.915  15.997  0.4886 -0.4600 -0.3189
13866TIP3    H163089   0.904   1.856  15.962  0.9602  1.8514 -3.8561
13866TIP3    H263090   0.886   1.983  16.043  0.6034  0.6206 -1.9418
13867TIP3   OH263091   3.526   3.660  14.321 -0.5429 -0.3812  0.1563
13867TIP3    H163092   3.511   3.739  14.269 -2.1637 -2.2692 -2.4931
13867TIP3    H263093   3.463   3.666  14.393 -0.0530  1.0856  0.4961
13868TIP3   OH263094   5.447   2.493   0.595  0.1556 -0.5917 -0.4485
13868TIP3    H163095   5.506   2.458   0.528  2.3135  1.8515 -0.0088
13868TIP3    H263096   5.444   2.425   0.662  2.4399 -0.9000 -0.5686
13869TIP3   OH263097   1.547   3.040   1.062  0.0097 -0.0717  0.7329
13869TIP3    H163098   1.588   3.099   0.999 -0.2840 -0.9112 -0.2719
13869TIP3    H263099   1.472   3.089   1.096  1.1555  1.0616  1.7794
13870TIP3   OH263100   2.170   1.689   0.040  0.4352  0.0703 -0.4053
13870TIP3    H163101   2.223   1.669   0.117 -0.6455 -0.2746  0.2696
13870TIP3    H263102   2.083   1.708   0.075 -0.2359 -0.7046 -1.5768
13871TIP3   OH263103   5.863   2.044  16.037 -0.2608  0.0996 -0.1545
13871TIP3    H163104   5.815   2.069  15.958  0.7295  1.8030 -0.2527
13871TIP3    H263105   5.947   2.012  16.006  0.2972  1.1759  0.2157
13872TIP3   OH263106   2.932   3.679   1.528  0.2379 -0.1311  0.0442
13872TIP3    H163107   2.920   3.723   1.444  1.0204 -1.8215 -0.9927
13872TIP3    H263108   2.849   3.691   1.573 -0.1335  0.9590 -0.8883
13873TIP3   OH263109   5.854   2.863  15.986 -0.1711 -0.3232  0.1751
13873TIP3    H163110   5.886   2.865  16.077 -0.7717 -1.1069  0.4146
13873TIP3    H263111   5.933   2.874  15.933  0.0506  1.3987  0.7897
13874TIP3   OH263112   1.218   1.858   1.309  0.1514 -0.2552  0.2372
13874TIP3    H163113   1.141   1.847   1.253  0.9412  0.0417 -0.9446
13874TIP3    H263114   1.202   1.798   1.382 -0.8387 -0.7768 -0.3708
13875TIP3   OH263115   0.512   0.984   1.598  0.2976  0.0265  0.1986
13875TIP3    H163116   0.551   1.070   1.613 -0.4186  0.2358  0.9122
13875TIP3    H263117   0.420   0.995   1.620 -0.2370 -0.4021 -1.6815
13876TIP3   OH263118   5.053   3.950  15.405  0.2842  0.1367  0.0732
13876TIP3    H163119   5.085   3.941  15.315  0.7621  2.4090 -0.0465
13876TIP3    H263120   5.056   3.862  15.440  0.7045 -0.7080 -1.9442
13877TIP3   OH263121   4.366   0.200  15.496 -0.5861 -0.1740 -0.3574
13877TIP3    H163122   4.283   0.237  15.468 -0.5213  0.4889  0.3300
13877TIP3    H263123   4.369   0.114  15.452 -1.7802 -0.3558 -0.1113
13878TIP3   OH263124   6.811   3.208   3.513  0.2301 -0.0460  0.3300
13878TIP3    H163125   6.848   3.223   3.426 -1.4152  1.0565 -0.2222
13878TIP3    H263126   6.841   3.282   3.565 -0.0847  0.1375  0.2528
13879TIP3   OH263127   1.794   0.836  16.630  0.7782 -0.7795  0.1304
13879TIP3    H163128   1.872   0.869  16.586  1.2266  0.5961  1.8582
13879TIP3    H263129   1.722   0.857  16.570  1.4777  0.0184 -0.4570
13880TIP3   OH263130   1.330   4.667  12.400  0.1973 -0.3068 -0.3165
13880TIP3    H163131   1.236   4.662  12.417 -0.4171 -0.6545 -3.2572
13880TIP3    H263132   1.366   4.589  12.442 -1.0115 -0.7429 -0.0498
13881TIP3   OH263133   0.325   3.901  16.546  0.3085  0.1058 -0.5721
13881TIP3    H163134   0.292   3.822  16.588  2.7704 -1.4477 -1.3435
13881TIP3    H263135   0.250   3.935  16.496 -1.4691 -0.3333  1.6140
13882TIP3   OH263136   4.613   1.843   3.420 -0.1789 -0.4867  0.1435
13882TIP3    H163137   4.567   1.919   3.384 -0.4161  0.2409  1.9059
13882TIP3    H263138   4.595   1.846   3.514  0.3314 -2.3776  0.3347
13883TIP3   OH263139   3.188   4.206   3.130  0.2048 -0.0356 -0.1361
13883TIP3    H163140   3.147   4.194   3.216 -0.8958  2.1660 -0.2819
13883TIP3    H263141   3.184   4.301   3.114 -0.1076 -0.4126 -2.8410
13884TIP3   OH263142   4.273   0.407  16.562  0.6214  0.1836 -0.8853
13884TIP3    H163143   4.306   0.476  16.505  0.1017  0.4085 -0.9224
13884TIP3    H263144   4.210   0.451  16.619  2.1394  0.2275  0.8089
13885TIP3   OH263145   4.299   3.885   0.370 -0.2332 -0.2736 -0.0720
13885TIP3    H163146   4.365   3.848   0.310 -0.3047 -1.4888  0.5701
13885TIP3    H263147   4.221   3.831   0.356 -0.4542 -0.1434  0.6430
13886TIP3   OH263148   6.279   3.802  11.685  0.0928  0.2786  0.4297
13886TIP3    H163149   6.214   3.753  11.635 -0.9273  1.9221  0.0625
13886TIP3    H263150   6.338   3.735  11.721  0.6928 -1.0150 -2.6595
13887TIP3   OH263151   5.512   1.657  17.007 -0.0159  0.2843 -0.2667
13887TIP3    H163152   5.575   1.710  16.958  1.0469 -0.9577 -0.3229
13887TIP3    H263153   5.532   1.567  16.981  0.4558 -0.4230  2.2657
13888TIP3   OH263154   3.924   4.064  13.023  0.0002 -0.5366  0.4500
13888TIP3    H163155   3.932   4.130  13.093  0.1057 -0.4136  0.3230
13888TIP3    H263156   3.834   4.035  13.028 -0.4095  0.5266 -0.3120
13889TIP3   OH263157   5.402   2.424  16.266  0.1925  0.2242  0.1074
13889TIP3    H163158   5.489   2.464  16.266  0.5062 -0.4158  1.5120
13889TIP3    H263159   5.403   2.362  16.339 -1.1226 -0.5143 -0.4608
13890TIP3   OH263160   5.027   2.452  15.153  1.1523  0.3401  0.1799
13890TIP3    H163161   5.050   2.535  15.196  1.7121  0.8292 -1.0313
13890TIP3    H263162   5.053   2.385  15.217 -0.3071  1.0932  1.6360
13891TIP3   OH263163   1.002   0.519   4.663 -0.2502  0.5415  0.3221
13891TIP3    H163164   1.019   0.508   4.570  0.7892  1.6716  0.3466
13891TIP3    H263165   1.005   0.614   4.677  1.9628  0.3132  1.8864
13892TIP3   OH263166   6.591   3.663   3.516  0.2727 -0.2000  0.6106
13892TIP3    H163167   6.558   3.582   3.556  0.7093 -1.4951 -1.4600
13892TIP3    H263168   6.539   3.674   3.437  1.7364  0.2318 -0.3471
13893TIP3   OH263169   2.311   6.166  16.668  0.5281 -0.1079 -0.2672
13893TIP3    H163170   2.356   6.250  16.666  2.5673 -1.0809  0.9328
13893TIP3    H263171   2.239   6.177  16.729  0.4731  0.8877 -0.5065
13894TIP3   OH263172   2.622   4.490  15.821 -0.3511  0.0679 -0.5186
13894TIP3    H163173   2.626   4.583  15.800  0.8216 -0.2619 -1.8521
13894TIP3    H263174   2.642   4.445  15.739  1.5129 -1.3234  0.6104
13895TIP3   OH263175   6.301   5.647  16.029  0.1766 -0.8430  0.5489
13895TIP3    H163176   6.289   5.594  16.107 -1.8221 -0.3845  0.6245
13895TIP3    H263177   6.216   5.644  15.985  1.0859 -0.6380 -1.3229
13896TIP3   OH263178   1.423   5.350   0.784  0.3409 -0.3697  0.2876
13896TIP3    H163179   1.514   5.380   0.779 -0.7044  3.0911 -0.9457
13896TIP3    H263180   1.408   5.337   0.878  1.7886  0.0218  0.6055
13897TIP3   OH263181   1.961   2.685  11.627 -0.2588 -0.5929 -0.2905
13897TIP3    H163182   2.026   2.658  11.692 -2.1108  0.5519  2.2735
13897TIP3    H263183   1.981   2.777  11.610 -1.4543 -0.0546  0.9862
13898TIP3   OH263184   5.703   4.551   5.649 -0.0418  0.7194  0.0816
13898TIP3    H163185   5.756   4.561   5.728  0.3486  0.6449 -0.1700
13898TIP3    H263186   5.647   4.475   5.668 -0.5234  1.1904  0.6006
13899TIP3   OH263187   4.493   3.010   4.369 -0.5809 -0.1146 -0.9324
13899TIP3    H163188   4.451   3.069   4.307 -1.8296 -0.5589 -0.5260
13899TIP3    H263189   4.424   2.949   4.396  0.5097 -1.3549 -0.8384
13900TIP3   OH263190   1.789   2.283  13.362  0.1820 -0.6477 -0.1059
13900TIP3    H163191   1.860   2.330  13.406  0.2497  0.0390 -0.9108
13900TIP3    H263192   1.790   2.195  13.401 -0.5505  0.2544  2.1032
13901TIP3   OH263193   0.271   2.926   2.563  0.0745 -0.3239 -0.3575
13901TIP3    H163194   0.192   2.979   2.576  0.9167  1.3190 -1.5699
13901TIP3    H263195   0.245   2.861   2.498 -0.6965 -0.8188  0.4149
13902TIP3   OH263196   0.335   4.447   1.017 -0.7944 -0.5615  0.1813
13902TIP3    H163197   0.403   4.412   0.960 -0.6357 -1.0967  0.6792
13902TIP3    H263198   0.370   4.435   1.106 -1.4085 -0.5663  0.4289
13903TIP3   OH263199   4.529   5.869  12.560  0.0317  0.1905 -0.5614
13903TIP3    H163200   4.603   5.845  12.616  0.0545  1.8774  0.1699
13903TIP3    H263201   4.521   5.795  12.499  1.5153 -0.5944  0.1391
13904TIP3   OH263202   4.168   3.117   5.096 -0.0588  0.0534  0.1561
13904TIP3    H163203   4.219   3.177   5.151 -0.6299 -1.2509  2.2282
13904TIP3    H263204   4.082   3.114   5.137 -1.3270  0.8202 -2.2403
13905TIP3   OH263205   0.724   3.995   1.858 -0.2395  0.3228  0.0618
13905TIP3    H163206   0.767   3.986   1.773 -0.7832 -0.4481 -0.1399
13905TIP3    H263207   0.780   4.056   1.907 -0.1646  1.1319 -0.9994
13906TIP3   OH263208   3.671   3.190   0.332  0.3678 -0.2674 -0.3064
13906TIP3    H163209   3.725   3.242   0.273  0.7571  0.6323  0.7900
13906TIP3    H263210   3.695   3.220   0.420  0.2954 -2.0125  0.3672
13907TIP3   OH263211   2.177   1.841   0.521  0.5584  0.2963  0.2176
13907TIP3    H163212   2.142   1.906   0.582 -1.3177 -0.0267 -0.4566
13907TIP3    H263213   2.252   1.884   0.480  1.1616  0.9238  1.8997
13908TIP3   OH263214   6.474   6.581   6.263  0.3615  0.2315 -0.2194
13908TIP3    H163215   6.561   6.583   6.304  0.6756 -0.7308 -0.7909
13908TIP3    H263216   6.413   6.578   6.337  0.8763 -0.3946  0.2009
13909TIP3   OH263217   0.310   4.434   3.308  0.9114 -0.2200  0.7440
13909TIP3    H163218   0.288   4.488   3.384 -1.2229 -1.8168  1.3659
13909TIP3    H263219   0.310   4.495   3.234 -1.4823  0.7194  1.3960
13910TIP3   OH263220   4.122   2.622  15.306  0.6729 -0.1960  0.6590
13910TIP3    H163221   4.101   2.532  15.329  0.5224  0.0490  1.4964
13910TIP3    H263222   4.037   2.667  15.305  0.3610 -0.6251 -2.4518
13911TIP3   OH263223   0.045   4.465   3.068 -0.3800  0.0955  0.0027
13911TIP3    H163224  -0.040   4.475   3.112 -0.3635 -1.7532  0.5688
13911TIP3    H263225   0.100   4.532   3.107 -0.8132 -0.4990  1.7389
13912TIP3   OH263226   4.435   6.368  15.520  0.0376  0.1361  0.7724
13912TIP3    H163227   4.401   6.400  15.437 -1.2400  1.3627  1.7079
13912TIP3    H263228   4.490   6.440  15.552  0.8340 -0.4839  0.8113
13913TIP3   OH263229   0.310   0.229   2.539  0.0637  0.1330  0.2190
13913TIP3    H163230   0.322   0.290   2.466 -0.2707 -0.6111 -0.4834
13913TIP3    H263231   0.241   0.269   2.592 -0.0044  0.4750 -0.1172
13914TIP3   OH263232   3.653   6.251  15.782  0.0129  0.0116  0.1031
13914TIP3    H163233   3.565   6.250  15.820 -0.3369 -1.8261 -0.6569
13914TIP3    H263234   3.707   6.290  15.850 -1.3994  1.3401  0.5297
13915TIP3   OH263235   1.795   4.867   1.021  0.5321  0.5012 -0.3685
13915TIP3    H163236   1.744   4.921   0.960  1.1061  0.7462 -0.6416
13915TIP3    H263237   1.852   4.930   1.067  1.8421  0.0612 -1.3191
13916TIP3   OH263238   1.071   0.320   0.601 -0.5234 -0.4125 -0.1189
13916TIP3    H163239   1.038   0.409   0.616  0.0377 -0.2290  0.0261
13916TIP3    H263240   1.088   0.285   0.689  0.3434 -0.2489 -0.2121
13917TIP3   OH263241   1.009   2.418   4.553  0.7505 -0.2068  0.5076
13917TIP3    H163242   1.023   2.456   4.466 -1.8283 -0.7732 -0.2287
13917TIP3    H263243   1.090   2.369   4.571  0.9821 -0.8460 -1.9813
13918TIP3   OH263244   2.797   1.420  15.030 -0.3215 -0.0606  0.2325
13918TIP3    H163245   2.821   1.450  14.943 -0.6111 -1.3897 -0.3308
13918TIP3    H263246   2.835   1.332  15.037 -2.1915 -0.8933  0.5689
13919TIP3   OH263247   6.664   4.156  10.733 -0.4266 -0.2293 -0.1960
13919TIP3    H163248   6.696   4.122  10.649 -0.6127 -0.7663 -0.0508
13919TIP3    H263249   6.613   4.233  10.710 -0.7282 -0.5480 -0.6081
13920TIP3   OH263250   0.491   5.242  12.404 -0.1322 -0.2267 -0.5559
13920TIP3    H163251   0.546   5.292  12.465 -0.6755 -0.6658  0.3122
13920TIP3    H263252   0.554   5.196  12.348  0.3771  1.2330 -1.2353
13921TIP3   OH263253   0.866   6.132   3.871  0.0223  0.0986  0.2592
13921TIP3    H163254   0.872   6.060   3.809 -0.6550  0.2034  0.0634
13921TIP3    H263255   0.935   6.114   3.936  0.8065  0.0517 -0.5687
13922TIP3   OH263256   6.320   2.580  14.514 -0.3405  0.5997 -0.2175
13922TIP3    H163257   6.355   2.585  14.603 -0.6270 -1.2110  0.0199
13922TIP3    H263258   6.244   2.638  14.515  0.4486  1.6789  0.2911
13923TIP3   OH263259   3.257   0.749  16.335  0.1170 -0.1766  0.1107
13923TIP3    H163260   3.247   0.663  16.295  0.5319 -0.7559  1.2069
13923TIP3    H263261   3.184   0.755  16.398  0.5139 -0.0485  0.5669
13924TIP3   OH263262   2.868   1.488   1.646  0.3836 -0.1680 -0.8654
13924TIP3    H163263   2.848   1.537   1.566  1.5895 -0.0940 -1.1318
13924TIP3    H263264   2.847   1.397   1.623 -0.1247 -0.0346 -0.9590
13925TIP3   OH263265   1.234   4.426  13.872 -0.3734 -0.4607  0.6758
13925TIP3    H163266   1.210   4.485  13.800  0.3801  1.2082  1.7245
13925TIP3    H263267   1.223   4.479  13.951  0.1045 -1.8251  1.6949
13926TIP3   OH263268   4.386   1.313  12.718 -0.2764  0.4248  0.3015
13926TIP3    H163269   4.456   1.250  12.736  1.4927  1.5782 -2.0128
13926TIP3    H263270   4.355   1.289  12.631 -2.5604  0.2067  1.1149
13927TIP3   OH263271   5.094   2.573   1.817  0.1423  0.2597  0.4813
13927TIP3    H163272   5.126   2.660   1.793 -0.4388  0.5295  0.6680
13927TIP3    H263273   5.051   2.541   1.738  0.2731  0.1820  0.4419
13928TIP3   OH263274   4.613   1.629   0.588 -0.3841  0.1137  0.0848
13928TIP3    H163275   4.535   1.654   0.538  0.4383 -0.0610 -1.3477
13928TIP3    H263276   4.648   1.552   0.542  0.7797  0.3464  0.5285
13929TIP3   OH263277   4.693   3.363  13.769 -0.2372 -0.1972  0.0075
13929TIP3    H163278   4.707   3.313  13.850 -1.1349 -1.1540 -0.4025
13929TIP3    H263279   4.641   3.304  13.714  1.9954 -0.3659 -2.0695
13930TIP3   OH263280   2.473   3.855  11.290  0.0430  0.5306  0.1732
13930TIP3    H163281   2.392   3.901  11.268  0.9767  2.3619  0.3320
13930TIP3    H263282   2.448   3.793  11.358 -0.9667  2.2351  1.4432
13931TIP3   OH263283   1.812   2.288  14.792  0.5667  0.2421 -0.1562
13931TIP3    H163284   1.746   2.340  14.747  0.6419  0.0596 -0.4759
13931TIP3    H263285   1.894   2.310  14.749  0.4937 -0.7464 -0.8477
13932TIP3   OH263286   2.726   5.820  12.833 -0.2356  0.8979 -0.3546
13932TIP3    H163287   2.700   5.862  12.752  1.0898  0.6275 -0.9413
13932TIP3    H263288   2.660   5.752  12.847 -1.1718  1.7510 -0.5268
13933TIP3   OH263289   0.600   2.304   5.622 -0.0283  0.3033 -0.4688
13933TIP3    H163290   0.664   2.248   5.579 -1.5897 -1.6763 -0.3657
13933TIP3    H263291   0.571   2.253   5.698  0.1291  2.2379  0.9659
13934TIP3   OH263292   0.093   6.091   0.617 -1.0003 -0.0557  0.3676
13934TIP3    H163293   0.023   6.026   0.629 -0.8350 -0.0836  1.3151
13934TIP3    H263294   0.166   6.056   0.669 -0.9704  0.9628  1.0422
13935TIP3   OH263295   2.412   1.562   3.489 -0.5262 -0.3389 -0.2803
13935TIP3    H163296   2.460   1.524   3.561  0.3862 -1.3501 -1.3889
13935TIP3    H263297   2.368   1.488   3.447 -0.9634  0.2119 -0.8176
13936TIP3   OH263298   1.836   2.178  11.677 -0.2595  0.3709  0.4580
13936TIP3    H163299   1.885   2.129  11.611 -0.3113  0.8612  0.0462
13936TIP3    H263300   1.898   2.192  11.749 -0.5606 -1.2367  1.0676
13937TIP3   OH263301   0.374   0.127   1.381  0.0535  0.5571 -0.1364
13937TIP3    H163302   0.424   0.096   1.305  0.1006  1.7169 -0.5939
13937TIP3    H263303   0.423   0.094   1.456  1.8942  2.1596 -0.5557
13938TIP3   OH263304   0.918   3.570   1.939 -0.1880  0.6403  0.3124
13938TIP3    H163305   0.919   3.499   1.875 -1.7188 -0.8480  1.7953
13938TIP3    H263306   1.009   3.597   1.947  0.2968 -0.4610 -1.0425
13939TIP3   OH263307   0.081   1.126  14.054  0.1059  0.0283 -0.3106
13939TIP3    H163308   0.069   1.044  14.005  2.5225  0.2016 -1.3543
13939TIP3    H263309   0.001   1.175  14.038 -2.1586 -2.6560  1.6402
13940TIP3   OH263310   2.657   2.410   4.472 -0.0046  0.2502 -0.2414
13940TIP3    H163311   2.741   2.455   4.477  0.2285 -0.2856  1.0240
13940TIP3    H263312   2.625   2.428   4.383  2.3305 -1.0942 -1.4531
13941TIP3   OH263313   4.854   0.813  11.602 -0.6579 -0.5020  0.2652
13941TIP3    H163314   4.899   0.733  11.573 -1.1679 -0.2313 -1.3518
13941TIP3    H263315   4.871   0.816  11.696 -0.3885 -2.3665  0.3282
13942TIP3   OH263316   4.049   5.198   3.086  0.0665 -0.1637 -0.5083
13942TIP3    H163317   3.974   5.171   3.034 -0.5830  1.7803 -0.6534
13942TIP3    H263318   4.055   5.292   3.073  1.5099 -0.0189  0.8518
13943TIP3   OH263319   2.600   0.331  11.136  0.2157 -0.2011 -0.1108
13943TIP3    H163320   2.559   0.305  11.054 -0.4978 -1.4150  0.5893
13943TIP3    H263321   2.674   0.271  11.145  0.4626  0.1167  0.0009
13944TIP3   OH263322   2.685   5.795  15.470 -0.5062 -0.6980 -0.2761
13944TIP3    H163323   2.759   5.854  15.452 -0.5660 -0.5166  0.0790
13944TIP3    H263324   2.616   5.825  15.411 -0.0393 -1.3778 -1.2093
13945TIP3   OH263325   0.454   0.736   4.969  0.3454 -0.4117 -0.0676
13945TIP3    H163326   0.510   0.784   5.030 -2.2524  0.2395  2.0050
13945TIP3    H263327   0.444   0.795   4.893  0.4736  0.5616  0.6487
13946TIP3   OH263328   3.817   4.393  12.797 -0.0231 -0.2018  0.0448
13946TIP3    H163329   3.828   4.472  12.851  1.6901 -1.3850  1.5150
13946TIP3    H263330   3.735   4.354  12.828 -0.5967  0.6602 -0.3194
13947TIP3   OH263331   0.881   0.650  11.208  0.0579  0.1654  0.0009
13947TIP3    H163332   0.936   0.724  11.232  1.7959 -0.8658 -0.5964
13947TIP3    H263333   0.879   0.595  11.286 -1.5767  0.9795  0.5868
13948TIP3   OH263334   0.455   4.799   5.788  0.0010  0.1480 -0.4373
13948TIP3    H163335   0.487   4.756   5.708 -1.8398 -2.5328  0.1184
13948TIP3    H263336   0.520   4.775   5.854  0.5460  0.7888 -0.7295
13949TIP3   OH263337   6.718   6.478   6.354  0.2859  1.0397 -0.2437
13949TIP3    H163338   6.750   6.516   6.272 -0.6145 -1.9565 -2.1431
13949TIP3    H263339   6.746   6.386   6.351 -1.5756  0.3098  1.8073
13950TIP3   OH263340   4.500   5.316   5.673 -0.3672  0.2222 -0.0071
13950TIP3    H163341   4.412   5.284   5.655 -2.4035  3.8101  2.3928
13950TIP3    H263342   4.529   5.358   5.591 -2.6296  2.3560  0.1816
13951TIP3   OH263343   4.183   4.195   2.635 -0.2314 -0.3840 -0.1338
13951TIP3    H163344   4.126   4.124   2.668  2.0052 -1.5724  1.4163
13951TIP3    H263345   4.132   4.274   2.650 -2.2798 -1.5188 -0.6653
13952TIP3   OH263346   1.308   4.155  12.733 -0.1567  0.1438 -0.1663
13952TIP3    H163347   1.339   4.105  12.658 -1.3017  0.6323 -1.0069
13952TIP3    H263348   1.387   4.190  12.773  0.6091 -1.6039 -0.0527
13953TIP3   OH263349   6.071   6.240  17.125  0.1851 -0.4039 -0.0004
13953TIP3    H163350   6.059   6.176  17.195 -2.8660  1.1283  1.0405
13953TIP3    H263351   6.127   6.307  17.163  1.2609 -1.1499 -0.2198
13954TIP3   OH263352   4.096   5.010   2.138 -0.4447 -0.4019  0.3485
13954TIP3    H163353   4.087   5.009   2.233 -0.1182  0.9090  0.4055
13954TIP3    H263354   4.115   5.101   2.116  1.1552 -0.9731 -0.8183
13955TIP3   OH263355   3.012   4.390   3.726 -0.0354 -0.2733 -0.3078
13955TIP3    H163356   3.036   4.429   3.643 -0.4582  0.9657  0.1258
13955TIP3    H263357   3.095   4.370   3.769  0.1839 -0.3450 -0.7655
13956TIP3   OH263358   0.560   1.985   0.459  0.2461  0.0147 -0.3394
13956TIP3    H163359   0.544   2.080   0.453  0.2814 -0.0336 -1.4345
13956TIP3    H263360   0.521   1.949   0.379  2.7382 -0.5096 -1.4236
13957TIP3   OH263361   3.760   5.432  13.815 -0.4480  0.7512 -0.3289
13957TIP3    H163362   3.766   5.356  13.758  1.3777  1.2628 -0.8708
13957TIP3    H263363   3.818   5.497  13.776  0.8117  1.1679  2.0285
13958TIP3   OH263364   4.430   0.422  14.066 -0.0969 -0.0875  0.0342
13958TIP3    H163365   4.373   0.432  14.143 -2.4855 -3.4496 -1.0378
13958TIP3    H263366   4.499   0.363  14.095 -0.7266 -0.9653 -0.1888
13959TIP3   OH263367   6.097   1.756   5.461 -0.0899 -0.6141 -0.0653
13959TIP3    H163368   6.080   1.809   5.538 -1.2025 -1.0881  0.0254
13959TIP3    H263369   6.047   1.797   5.391  0.7349 -0.3188 -0.5038
13960TIP3   OH263370   2.872   0.275   0.937  0.6331  0.4142  0.0005
13960TIP3    H163371   2.852   0.332   1.011  1.7068  1.8709 -0.7750
13960TIP3    H263372   2.884   0.334   0.863  0.0527 -0.9636 -1.2591
13961TIP3   OH263373   4.885   6.251   0.258 -0.7770 -0.3047 -0.0389
13961TIP3    H163374   4.928   6.236   0.174  0.8283 -1.6580  0.9554
13961TIP3    H263375   4.883   6.164   0.300  2.7345  0.9146  3.2217
13962TIP3   OH263376   6.713   6.103   1.873 -0.6877  0.7901 -0.5536
13962TIP3    H163377   6.755   6.141   1.950 -1.9331  0.0976  0.5107
13962TIP3    H263378   6.742   6.158   1.800  1.4999  0.7400  0.1943
13963TIP3   OH263379   4.142   3.588  14.653 -0.5123  0.0352  0.8169
13963TIP3    H163380   4.201   3.550  14.588 -2.9796  0.2122 -1.7199
13963TIP3    H263381   4.185   3.670  14.679  1.8560 -1.3565  1.6215
13964TIP3   OH263382   3.281   5.127   5.238 -0.4581 -0.0888  0.2081
13964TIP3    H163383   3.229   5.196   5.197  2.2210  2.0230  0.0359
13964TIP3    H263384   3.288   5.154   5.330  0.6583 -0.0671  0.1310
13965TIP3   OH263385   2.029   4.719  14.092  0.1656  0.0725  0.0778
13965TIP3    H163386   1.962   4.772  14.049 -0.1186  1.1381  1.7167
13965TIP3    H263387   2.056   4.772  14.168 -1.0475 -2.6259  2.5973
13966TIP3   OH263388   5.093   1.106  13.320 -0.1644 -0.5483  0.1745
13966TIP3    H163389   5.060   1.193  13.299 -1.4975 -1.3403 -1.2577
13966TIP3    H263390   5.184   1.120  13.345 -0.5568  1.3288  0.7229
13967TIP3   OH263391   6.324   1.382  14.302  0.0830  0.1148  0.0018
13967TIP3    H163392   6.235   1.351  14.318 -0.3219  0.3136 -1.6649
13967TIP3    H263393   6.368   1.307  14.262 -0.3644  0.9779 -2.3058
13968TIP3   OH263394   1.592   0.808  15.015 -0.1990  0.1158  0.6437
13968TIP3    H163395   1.551   0.840  14.935  0.9521 -0.2681 -0.1247
13968TIP3    H263396   1.519   0.777  15.068 -0.9459 -0.2365 -0.5416
13969TIP3   OH263397   3.001   5.906  14.514  0.2466 -0.2933  0.6107
13969TIP3    H163398   2.908   5.920  14.497  0.2706  0.0321  0.7225
13969TIP3    H263399   3.037   5.876  14.431 -0.1234 -1.2955  0.8026
13970TIP3   OH263400   4.102   4.218   1.838  0.7712  0.1771  0.3242
13970TIP3    H163401   4.058   4.139   1.870  0.4868 -0.2134 -0.9385
13970TIP3    H263402   4.033   4.268   1.794  0.8708  1.3312  1.4191
13971TIP3   OH263403   0.895   0.722   3.512  0.0215 -0.2911  0.0875
13971TIP3    H163404   0.830   0.685   3.452  0.1622  1.4133 -1.2108
13971TIP3    H263405   0.902   0.813   3.485 -1.4519  1.2389  4.0716
13972TIP3   OH263406   2.728   5.392  16.598  0.2441  0.4057  0.1343
13972TIP3    H163407   2.709   5.316  16.654 -2.3903  2.4966  2.3518
13972TIP3    H263408   2.800   5.437  16.642 -0.6478  1.1109  0.8927
13973TIP3   OH263409   2.266   0.023  15.440 -0.0853  0.0196  0.6459
13973TIP3    H163410   2.295  -0.006  15.527 -0.1251 -1.0580  0.3202
13973TIP3    H263411   2.295   0.114  15.434  0.9993 -0.2597  1.3210
13974TIP3   OH263412   3.899   2.816   0.777  0.0616 -0.1836  0.0863
13974TIP3    H163413   3.944   2.782   0.699 -1.0205 -3.3031  0.6856
13974TIP3    H263414   3.862   2.739   0.819  0.8343  1.2891  3.9131
13975TIP3   OH263415   2.566   6.515   5.420 -0.3751  0.1442 -0.3864
13975TIP3    H163416   2.614   6.549   5.345  0.6580 -0.6256 -0.1010
13975TIP3    H263417   2.554   6.591   5.477  2.0641  0.0887  0.3334
13976TIP3   OH263418   4.297   5.280   3.917 -0.0661  0.0039  0.3989
13976TIP3    H163419   4.393   5.278   3.922 -0.1192 -2.0981  1.5059
13976TIP3    H263420   4.270   5.322   3.999 -0.1012 -1.1903  1.0230
13977TIP3   OH263421   2.350   0.245   0.313 -0.7803  0.5860  0.8307
13977TIP3    H163422   2.348   0.319   0.374 -2.2603  0.6839  0.6911
13977TIP3    H263423   2.367   0.169   0.369 -2.8293  0.5728  1.5157
13978TIP3   OH263424   4.141   3.128  10.791 -0.2791 -0.1714 -0.4202
13978TIP3    H163425   4.210   3.073  10.753  0.2689 -0.0001  0.3020
13978TIP3    H263426   4.175   3.152  10.877 -1.2594 -0.1116 -0.0376
13979TIP3   OH263427   0.058   0.555   3.596 -0.2607  0.1955 -0.1469
13979TIP3    H163428   0.023   0.634   3.638 -2.0609 -1.3370  1.4374
13979TIP3    H263429   0.141   0.539   3.640 -0.9873 -0.0416  1.1775
13980TIP3   OH263430   0.923   4.224  11.181  0.4520  0.5619  0.7726
13980TIP3    H163431   0.891   4.314  11.188  2.6722  2.0043 -3.6578
13980TIP3    H263432   0.854   4.177  11.135  0.1293  0.5455  1.2692
13981TIP3   OH263433   1.081   6.303   3.719 -0.2896  0.6108  0.0554
13981TIP3    H163434   1.091   6.249   3.798  1.7257 -0.3333 -0.7820
13981TIP3    H263435   1.048   6.242   3.653  0.1609  0.8452 -0.3940
13982TIP3   OH263436   5.711   0.637  12.551 -0.0161 -1.1015  0.1677
13982TIP3    H163437   5.624   0.672  12.534 -0.0780 -1.1863  0.3047
13982TIP3    H263438   5.736   0.593  12.470  0.4283  0.0066 -0.3152
13983TIP3   OH263439   1.859   5.230  15.191  0.1045  0.1565  0.3549
13983TIP3    H163440   1.882   5.322  15.202  2.4223 -0.2833 -0.3663
13983TIP3    H263441   1.928   5.194  15.135 -2.9912 -1.0938 -3.0341
13984TIP3   OH263442   5.800   1.178  10.894 -0.8775  0.6147 -0.2691
13984TIP3    H163443   5.815   1.128  10.814  0.1158 -0.5080  0.5860
13984TIP3    H263444   5.855   1.256  10.886  1.5914 -0.9360  0.5598
13985TIP3   OH263445   1.192   0.558   4.086  0.7234  0.1404 -0.0309
13985TIP3    H163446   1.275   0.590   4.122  0.8934  0.7546 -0.9530
13985TIP3    H263447   1.216   0.487   4.027  0.6409  0.6536 -0.6883
13986TIP3   OH263448   5.286   6.768   4.144  0.4669  0.1512 -0.0315
13986TIP3    H163449   5.300   6.769   4.049  1.6647  0.3360  0.1229
13986TIP3    H263450   5.194   6.748   4.155  0.2281  0.5110 -1.2471
13987TIP3   OH263451   3.515   0.732   5.852  0.1815  0.3492 -0.3985
13987TIP3    H163452   3.449   0.744   5.784  0.2968  0.5311 -0.4802
13987TIP3    H263453   3.465   0.705   5.929 -0.0467  0.9431 -0.3280
13988TIP3   OH263454   1.133   5.879  15.361 -0.4700 -0.1765  0.5178
13988TIP3    H163455   1.147   5.974  15.364  2.3365 -0.4186 -1.3190
13988TIP3    H263456   1.082   5.865  15.282 -2.0338 -0.1790  1.4738
13989TIP3   OH263457   0.046   1.662  15.052 -0.1942 -0.0026 -0.3191
13989TIP3    H163458   0.052   1.705  15.138 -1.1446  0.1616 -0.3310
13989TIP3    H263459   0.115   1.704  15.000  0.4372 -0.1468  0.3729
13990TIP3   OH263460   3.227   3.554  13.912 -0.3239 -0.7017 -0.6738
13990TIP3    H163461   3.226   3.590  14.000 -1.2672  0.5633 -1.1651
13990TIP3    H263462   3.187   3.622  13.858  1.7785 -0.7015 -2.3745
13991TIP3   OH263463   2.933   6.396  13.263  0.0451  0.5035  0.6339
13991TIP3    H163464   2.972   6.325  13.313  0.5110  0.6580  0.4961
13991TIP3    H263465   2.838   6.382  13.272  0.0986 -0.9852 -0.5608
13992TIP3   OH263466   1.489   1.983  13.362 -0.1848  0.5385 -0.2369
13992TIP3    H163467   1.582   2.008  13.368 -0.0154  0.2198 -1.2698
13992TIP3    H263468   1.488   1.889  13.381 -0.4067  0.6914  0.5387
13993TIP3   OH263469   3.957   3.072   3.390 -0.0151 -0.0362 -0.2456
13993TIP3    H163470   4.046   3.038   3.386 -0.1152 -0.3548  0.2179
13993TIP3    H263471   3.966   3.160   3.426  0.1403  0.0539 -0.4996
13994TIP3   OH263472   1.810   6.526  13.101 -0.1476  0.0477 -0.0249
13994TIP3    H163473   1.886   6.467  13.101 -0.9977 -1.0964  0.8845
13994TIP3    H263474   1.847   6.613  13.113  1.0877 -0.3648 -0.6227
13995TIP3   OH263475   6.389   2.715   5.696  0.5179  0.1556 -0.3649
13995TIP3    H163476   6.477   2.733   5.729  0.4474  0.0614 -0.1240
13995TIP3    H263477   6.396   2.629   5.655  0.6236  0.3056 -0.6646
13996TIP3   OH263478   6.478   2.410  13.368  0.2698 -0.3102  0.1347
13996TIP3    H163479   6.404   2.472  13.368 -0.8390 -1.5971 -0.0347
13996TIP3    H263480   6.547   2.456  13.417 -1.1363  0.3688  1.5607
13997TIP3   OH263481   4.702   3.492   3.699  0.3481 -0.6341 -0.6486
13997TIP3    H163482   4.646   3.553   3.746  3.5601  0.9337  1.5508
13997TIP3    H263483   4.697   3.410   3.748 -1.4790 -1.2105 -1.7035
13998TIP3   OH263484   0.266   5.451   4.969 -0.0455 -0.4352  0.3130
13998TIP3    H163485   0.216   5.439   5.050 -2.3921  0.6298 -0.8935
13998TIP3    H263486   0.308   5.366   4.954 -2.1674 -1.6774  0.9980
13999TIP3   OH263487   3.705   0.442  16.213  0.3295 -0.0641 -0.5019
13999TIP3    H163488   3.664   0.446  16.299 -0.7840 -2.5059 -0.8296
13999TIP3    H263489   3.788   0.396  16.227 -0.1644 -1.0763 -0.7902
14000TIP3   OH263490   4.880   3.567  12.384 -0.1484 -0.4698 -0.1662
14000TIP3    H163491   4.965   3.611  12.388 -0.3088 -0.2279  1.1921
14000TIP3    H263492   4.816   3.637  12.392 -0.4485 -0.7639  0.0359
14001TIP3   OH263493   4.225   4.667   1.458  0.3598  0.0032 -0.0181
14001TIP3    H163494   4.246   4.579   1.427 -1.0087 -0.1703 -0.5463
14001TIP3    H263495   4.130   4.675   1.444  0.4801  1.6113 -0.1210
14002TIP3   OH263496   1.656   2.226   0.341 -0.2957 -0.0323  0.3157
14002TIP3    H163497   1.704   2.147   0.316  0.9814  0.8613 -0.1416
14002TIP3    H263498   1.598   2.243   0.267  3.2060  2.3958 -2.1907
14003TIP3   OH263499   1.128   3.873  12.171  0.3446  0.3674 -0.3823
14003TIP3    H163500   1.056   3.846  12.113 -0.5392 -1.1353  1.3250
14003TIP3    H263501   1.207   3.840  12.129 -0.3367 -1.2415 -0.4625
14004TIP3   OH263502   4.312   3.630   3.627 -0.3840 -0.2604 -0.3963
14004TIP3    H163503   4.388   3.633   3.685 -0.3510 -0.6868 -0.4147
14004TIP3    H263504   4.349   3.634   3.538 -0.3810 -0.5584 -0.4067
14005TIP3   OH263505   1.299   1.719  13.271  1.0512 -0.1603 -0.9303
14005TIP3    H163506   1.275   1.746  13.360 -0.0435 -1.3552 -0.8219
14005TIP3    H263507   1.236   1.765  13.215  0.5396 -0.8182 -0.9130
14006TIP3   OH263508   4.485   1.815   2.475 -0.0688 -0.2009  0.4337
14006TIP3    H163509   4.565   1.766   2.494  0.0909  0.0512  0.4079
14006TIP3    H263510   4.507   1.906   2.495 -0.1682 -0.0485 -0.1301
14007TIP3   OH263511   2.975   6.649   3.219  0.8631  0.2036 -0.6889
14007TIP3    H163512   3.010   6.592   3.287  2.4766  2.3215  0.3748
14007TIP3    H263513   2.880   6.634   3.221  0.7442  0.7790  2.6296
14008TIP3   OH263514   3.390   2.104  13.480 -0.1116 -0.0610 -0.3748
14008TIP3    H163515   3.371   2.157  13.403  1.1421  0.6766 -0.2018
14008TIP3    H263516   3.412   2.017  13.446 -0.3903  0.0246 -0.7759
14009TIP3   OH263517   3.737   3.499  16.501 -0.5345  0.3073  0.1578
14009TIP3    H163518   3.687   3.506  16.420 -1.6529 -0.0459  0.7934
14009TIP3    H263519   3.678   3.533  16.568  0.0710 -0.1465  0.9370
14010TIP3   OH263520   1.280   2.249   2.363 -0.1432 -0.2021 -0.0052
14010TIP3    H163521   1.336   2.171   2.362  0.2142  0.0503 -0.3142
14010TIP3    H263522   1.295   2.290   2.277  0.5036  0.7761  0.5587
14011TIP3   OH263523   5.637   3.324  14.997 -0.1427  0.3514  0.2886
14011TIP3    H163524   5.727   3.345  14.972 -0.7986  1.5797 -1.2748
14011TIP3    H263525   5.645   3.259  15.066  1.9294 -2.0850 -2.0259
14012TIP3   OH263526   4.874   1.812   4.412 -0.0014 -0.4026 -0.3098
14012TIP3    H163527   4.963   1.790   4.384  0.6284  1.4633  0.1126
14012TIP3    H263528   4.819   1.791   4.336  0.7030 -1.9275 -0.4471
14013TIP3   OH263529   4.351   2.731   3.030 -0.0131 -0.1062  0.0056
14013TIP3    H163530   4.441   2.758   3.044 -0.2940  0.8577 -0.0309
14013TIP3    H263531   4.319   2.786   2.959 -1.0684  0.5624  0.9740
14014TIP3   OH263532   3.764   5.161  11.736 -0.1154  0.8708  0.4025
14014TIP3    H163533   3.730   5.173  11.647  0.7570  0.1484 -0.0572
14014TIP3    H263534   3.721   5.228  11.788 -2.0173  0.1994 -0.1866
14015TIP3   OH263535   3.011   6.093  11.225 -0.2571 -0.3926 -0.0762
14015TIP3    H163536   2.978   6.149  11.154 -1.0115  2.4983  2.3452
14015TIP3    H263537   3.089   6.140  11.257 -0.0740 -1.4962  1.1545
14016TIP3   OH263538   2.145   0.182   5.661 -0.4583 -0.1442  0.2710
14016TIP3    H163539   2.152   0.113   5.596  0.7195  0.5165 -0.3420
14016TIP3    H263540   2.119   0.259   5.611  1.5447  0.6406  0.3402
14017TIP3   OH263541   4.375   2.664  12.873 -0.5417  0.5678  0.0790
14017TIP3    H163542   4.313   2.723  12.916 -0.8957  0.1634  0.1228
14017TIP3    H263543   4.455   2.671  12.925 -0.9094  0.2154  0.6998
14018TIP3   OH263544   0.648   1.380   3.091 -0.0530 -0.0687 -0.1526
14018TIP3    H163545   0.618   1.306   3.143  0.0119 -1.6985 -2.2958
14018TIP3    H263546   0.569   1.429   3.069  0.1099  1.9332  3.1590
14019TIP3   OH263547   4.469   5.284   5.088 -0.7683 -0.2016 -0.0938
14019TIP3    H163548   4.438   5.271   5.177 -1.7798 -0.4051 -0.4605
14019TIP3    H263549   4.537   5.218   5.076 -1.4666 -0.9835  0.1356
14020TIP3   OH263550   1.777   5.690   4.096  0.0466 -0.1877 -0.1911
14020TIP3    H163551   1.773   5.659   4.006 -1.5024  0.0763 -0.2369
14020TIP3    H263552   1.823   5.620   4.143 -1.8198 -1.8073 -0.6282
14021TIP3   OH263553   5.332   2.521  14.151  0.1251 -0.4220  0.1039
14021TIP3    H163554   5.277   2.505  14.227  0.0134  1.4637  0.4701
14021TIP3    H263555   5.379   2.439  14.137  0.1782 -0.7915  2.2279
14022TIP3   OH263556   0.711   5.674  13.087 -0.8925 -0.6753 -0.3111
14022TIP3    H163557   0.797   5.717  13.080 -0.4224 -1.4530  0.5306
14022TIP3    H263558   0.700   5.630  13.003 -0.5554 -0.4241 -0.4941
14023TIP3   OH263559   6.625   1.054  11.200 -0.0190 -0.0434 -0.0520
14023TIP3    H163560   6.536   1.074  11.227 -0.2760 -0.0083 -0.8740
14023TIP3    H263561   6.646   1.122  11.135 -0.1132 -1.1249 -1.2657
14024TIP3   OH263562   4.916   4.728  14.753  0.5579  0.0891 -0.7705
14024TIP3    H163563   4.916   4.746  14.847 -0.3044 -0.3455 -0.6814
14024TIP3    H263564   4.827   4.749  14.725 -0.2773 -3.0630 -0.8181
14025TIP3   OH263565   0.551   3.866  15.296  0.5985 -0.2646 -0.7032
14025TIP3    H163566   0.488   3.844  15.228 -0.2439  0.9321 -0.3376
14025TIP3    H263567   0.589   3.949  15.268  0.5169  0.0505  0.1038
14026TIP3   OH263568   3.818   5.567   2.376  0.6819  0.1032  0.2558
14026TIP3    H163569   3.791   5.522   2.456  0.0178 -0.1715 -0.1154
14026TIP3    H263570   3.914   5.560   2.376  0.6370 -0.5715  0.6279
14027TIP3   OH263571   4.596   0.537  17.254  0.3227  0.1952  0.5134
14027TIP3    H163572   4.576   0.444  17.254 -1.0952  0.4793 -0.1528
14027TIP3    H263573   4.683   0.543  17.215  0.1941 -0.7963  0.0565
14028TIP3   OH263574   0.161   5.399   2.641 -0.3559 -0.2905 -0.2491
14028TIP3    H163575   0.137   5.488   2.667  1.8301  0.2946 -0.0585
14028TIP3    H263576   0.077   5.356   2.622 -1.5782  1.3018  1.2230
14029TIP3   OH263577   3.106   4.804   2.817 -0.7453  0.1788  0.0094
14029TIP3    H163578   3.140   4.716   2.833 -0.0644  0.6735  1.4852
14029TIP3    H263579   3.013   4.797   2.838 -0.8590 -0.3638 -0.6426
14030TIP3   OH263580   4.499   6.398  16.730 -0.6887  0.0425 -0.0602
14030TIP3    H163581   4.526   6.308  16.746  1.6004  0.5973 -0.5293
14030TIP3    H263582   4.570   6.451  16.765 -1.3184  1.6312 -1.0863
14031TIP3   OH263583   6.485   3.644   4.002  0.3912 -0.3611 -0.3322
14031TIP3    H163584   6.472   3.679   3.914 -1.0549  1.5457  0.5661
14031TIP3    H263585   6.471   3.719   4.060 -1.5718 -2.1490  1.6878
14032TIP3   OH263586   6.088   1.805  16.949 -0.5915 -0.8303 -0.0556
14032TIP3    H163587   6.085   1.735  16.884  0.1760 -1.8499  0.9636
14032TIP3    H263588   6.119   1.762  17.029  0.5764  0.8011  0.4180
14033TIP3   OH263589   5.942   4.747  16.669  0.3263  0.2707 -0.4716
14033TIP3    H163590   6.033   4.772  16.685  0.8344 -1.1669 -1.0324
14033TIP3    H263591   5.895   4.831  16.669  1.5992  1.0201  0.0351
14034TIP3   OH263592   6.144   4.628  16.346 -0.0423 -0.5966 -0.3312
14034TIP3    H163593   6.164   4.651  16.437 -0.9213 -2.3641  0.3661
14034TIP3    H263594   6.208   4.561  16.324 -0.2380 -0.6311 -0.7926
14035TIP3   OH263595   6.159   5.745  14.028  0.1327 -0.1640  0.1103
14035TIP3    H163596   6.214   5.703  13.962 -0.0666  1.8616 -1.4443
14035TIP3    H263597   6.221   5.798  14.079 -0.0234  0.0226  0.1037
14036TIP3   OH263598   3.991   6.303   2.481 -0.1905  0.3883  0.2763
14036TIP3    H163599   4.035   6.368   2.426 -0.8937 -0.4880 -1.4162
14036TIP3    H263600   3.927   6.353   2.532  0.4932  1.2320  0.3266
14037TIP3   OH263601   3.014   4.011   4.883 -0.5082 -0.4390  0.2615
14037TIP3    H163602   2.990   3.918   4.883 -0.0194 -0.5768  0.7775
14037TIP3    H263603   3.035   4.030   4.791  0.8044 -1.2416  0.3546
14038TIP3   OH263604   6.662   1.638  14.322 -0.7300 -0.1378  0.1175
14038TIP3    H163605   6.705   1.709  14.274  0.4207 -1.0041 -0.1711
14038TIP3    H263606   6.570   1.646  14.299 -0.7179  1.5967  0.5221
14039TIP3   OH263607   0.502   1.840  12.716 -0.1604  0.1869  0.5388
14039TIP3    H163608   0.437   1.770  12.715 -1.2437  1.1583  1.2449
14039TIP3    H263609   0.474   1.898  12.787  0.1111  1.9035 -0.7119
14040TIP3   OH263610   0.105   6.173  13.804 -0.2580  0.0385 -0.2918
14040TIP3    H163611   0.136   6.160  13.714  0.0869 -1.4599  0.0213
14040TIP3    H263612   0.088   6.267  13.810  1.1285  0.3993 -1.4756
14041TIP3   OH263613   4.035   6.088  15.965  0.3641  0.1938 -0.0610
14041TIP3    H163614   3.947   6.059  15.942  0.3911  0.3443 -0.3467
14041TIP3    H263615   4.063   6.025  16.032  0.3599 -0.3607 -0.5674
14042TIP3   OH263616   3.764   2.373  15.217  0.2336  0.5863 -0.2256
14042TIP3    H163617   3.705   2.350  15.289  0.9335  0.9927  0.4887
14042TIP3    H263618   3.745   2.464  15.198 -0.2227  0.3727 -0.8319
14043TIP3   OH263619   0.120   4.837   4.447  0.2873  0.0646 -0.1976
14043TIP3    H163620   0.214   4.857   4.449  0.5137 -0.9920  0.2996
14043TIP3    H263621   0.094   4.834   4.539 -0.8742  3.0231 -0.3066
14044TIP3   OH263622   3.274   2.542   4.841  1.1215 -0.3431  0.1753
14044TIP3    H163623   3.242   2.610   4.781  0.1195 -1.6749 -0.8775
14044TIP3    H263624   3.349   2.503   4.796  0.5395 -1.1556 -0.1356
14045TIP3   OH263625   3.614   0.293   1.342 -0.4624  0.4988  0.1307
14045TIP3    H163626   3.599   0.345   1.420 -0.6613  0.0597  0.3871
14045TIP3    H263627   3.699   0.250   1.358 -0.0527  1.1294 -0.2969
14046TIP3   OH263628   5.603   0.503  14.959  0.7461  0.6611 -0.3441
14046TIP3    H163629   5.641   0.483  14.874  1.1469  4.0088 -1.0659
14046TIP3    H263630   5.678   0.509  15.018  0.8068  1.6369 -0.5117
14047TIP3   OH263631   2.937   3.087  16.901  0.0373  0.2883 -0.2036
14047TIP3    H163632   2.947   3.069  16.807 -2.2811 -0.5090 -0.3559
14047TIP3    H263633   2.877   3.161  16.904  0.1339  0.3352  0.6762
14048TIP3   OH263634   2.108   1.082   4.038  0.8959  0.0502 -0.7462
14048TIP3    H163635   2.033   1.036   4.074  0.1022  1.2042 -0.8633
14048TIP3    H263636   2.133   1.145   4.106  0.4074  1.1279 -1.5301
14049TIP3   OH263637   0.705   1.176   1.348 -0.0253 -0.3182 -0.3052
14049TIP3    H163638   0.669   1.238   1.284  0.4554 -1.9870 -2.2979
14049TIP3    H263639   0.691   1.090   1.309  0.5617 -1.4099  1.7480
14050TIP3   OH263640   2.891   3.487  13.616  0.0427 -0.0868  0.2444
14050TIP3    H163641   2.822   3.535  13.569 -0.2561 -0.7941 -0.0515
14050TIP3    H263642   2.852   3.401  13.634  0.3693 -0.0322  1.2633
14051TIP3   OH263643   3.361   3.458  13.697  0.0581 -0.3170  0.2001
14051TIP3    H163644   3.403   3.372  13.705 -1.0538 -1.0471 -1.4132
14051TIP3    H263645   3.318   3.471  13.781 -0.3233 -1.6602  0.2445
14052TIP3   OH263646   1.589   1.803   4.171  0.6158 -0.4632 -0.4745
14052TIP3    H163647   1.572   1.731   4.110 -0.4080 -1.2509  0.6755
14052TIP3    H263648   1.664   1.849   4.134  2.5641 -3.2445 -0.3215
14053TIP3   OH263649   5.528   6.196  12.903  0.0266  0.2079 -0.4762
14053TIP3    H163650   5.442   6.201  12.860  0.5508 -2.4261 -2.0747
14053TIP3    H263651   5.544   6.102  12.915  1.1668  0.7058  3.1677
14054TIP3   OH263652   5.745   4.694   0.017 -0.3862  0.2137 -0.7140
14054TIP3    H163653   5.776   4.620  -0.035  0.5731  1.4725 -1.9963
14054TIP3    H263654   5.752   4.769  -0.041  0.5440  1.6692  1.1770
14055TIP3   OH263655   4.600   2.238  13.576 -0.6001 -0.1569 -0.2790
14055TIP3    H163656   4.557   2.292  13.509  1.7034  1.8175 -0.3046
14055TIP3    H263657   4.681   2.209  13.535  0.4736  0.4107  1.3510
14056TIP3   OH263658   1.531   3.420   1.773  0.4516  0.9139  0.0781
14056TIP3    H163659   1.455   3.469   1.743 -0.4374  0.4787  1.5409
14056TIP3    H263660   1.520   3.333   1.735  0.3421  0.9199  0.0965
14057TIP3   OH263661   6.317   0.511   5.253 -0.0027  0.2683 -0.2866
14057TIP3    H163662   6.321   0.525   5.347 -0.7169  0.6991 -0.3108
14057TIP3    H263663   6.319   0.600   5.216  1.7418  0.0732 -0.7604
14058TIP3   OH263664   5.417   6.226  13.142 -0.4962  0.3062  0.6115
14058TIP3    H163665   5.341   6.261  13.094 -0.3398  0.1981  0.2823
14058TIP3    H263666   5.488   6.227  13.078 -0.1318  0.7242  1.0217
14059TIP3   OH263667   2.898   1.617  12.754  0.0731 -0.1094 -0.0260
14059TIP3    H163668   2.902   1.625  12.659 -0.3654 -1.3607 -0.1730
14059TIP3    H263669   2.807   1.592  12.772  0.3235 -0.5838  0.6498
14060TIP3   OH263670   4.327   2.220   1.664  0.4012 -0.4426 -0.0328
14060TIP3    H163671   4.306   2.238   1.572 -0.7093  0.1177  0.3116
14060TIP3    H263672   4.242   2.226   1.709  0.4878 -3.1773  0.6608
14061TIP3   OH263673   6.345   5.925   0.737 -0.1806 -0.7580 -0.4302
14061TIP3    H163674   6.295   5.973   0.671  0.6758 -1.2523 -1.4564
14061TIP3    H263675   6.391   5.857   0.688  1.0923 -0.6532  0.5724
14062TIP3   OH263676   3.622   3.260   0.973  0.9358 -0.1775  0.1306
14062TIP3    H163677   3.626   3.356   0.970  0.3791 -0.1671 -1.3172
14062TIP3    H263678   3.637   3.233   0.882  0.0309 -1.4155  0.3253
14063TIP3   OH263679   0.204   2.891  11.938  0.0414  0.2550  0.3038
14063TIP3    H163680   0.150   2.950  11.886 -1.2924 -0.5614  0.7053
14063TIP3    H263681   0.166   2.804  11.923  2.2592 -0.6114 -0.6857
14064TIP3   OH263682   4.233   6.230   0.045  0.4134 -0.7415 -0.4985
14064TIP3    H163683   4.189   6.293   0.103  0.5785 -1.6220  0.6220
14064TIP3    H263684   4.318   6.215   0.086  0.2640 -1.9041 -0.5875
14065TIP3   OH263685   4.989   6.690  12.678 -0.1364  0.8567  0.2984
14065TIP3    H163686   4.935   6.701  12.600 -1.8133  1.6086  1.4947
14065TIP3    H263687   5.045   6.769  12.680 -1.3458  1.7298  0.7671
14066TIP3   OH263688   2.493   1.423  13.983  0.1755 -0.0819 -0.1445
14066TIP3    H163689   2.446   1.425  13.900 -2.0619 -0.2489  1.0212
14066TIP3    H263690   2.533   1.337  13.987 -0.4478 -0.4047 -0.6823
14067TIP3   OH263691   1.633   3.698   5.622  0.0467  1.2136 -0.1804
14067TIP3    H163692   1.661   3.665   5.536 -1.5468  2.2903 -1.1592
14067TIP3    H263693   1.714   3.730   5.662  0.8704  0.4691 -1.1711
14068TIP3   OH263694   6.690   4.285  12.130 -0.6634  0.1928  0.7777
14068TIP3    H163695   6.656   4.314  12.215 -2.7162 -1.3549  0.5600
14068TIP3    H263696   6.693   4.190  12.137 -1.5810 -0.0085 -1.1312
14069TIP3   OH263697   0.297   2.147   5.672 -0.6957 -0.3808 -0.0439
14069TIP3    H163698   0.351   2.131   5.749 -1.3597 -1.9593  0.1447
14069TIP3    H263699   0.288   2.061   5.631 -1.8172  0.1071 -0.8887
14070TIP3   OH263700   0.877   2.511  14.702  0.0909 -0.1081  0.5908
14070TIP3    H163701   0.875   2.415  14.696  2.6985 -0.2226  0.4586
14070TIP3    H263702   0.792   2.534  14.739 -0.5870 -2.4734  0.6952
14071TIP3   OH263703   1.862   1.732  15.397 -0.0127  0.6300  0.3647
14071TIP3    H163704   1.954   1.748  15.377 -0.1055  0.4449 -0.2512
14071TIP3    H263705   1.855   1.742  15.492  0.9084 -0.6857  0.5828
14072TIP3   OH263706   0.715   4.844  11.151 -0.5190  0.1967  0.4466
14072TIP3    H163707   0.666   4.768  11.118  1.2734 -0.0169 -2.0006
14072TIP3    H263708   0.663   4.920  11.123  0.4371 -0.0198 -2.1645
14073TIP3   OH263709   1.453   0.760   2.717  0.2326 -0.4985  0.1243
14073TIP3    H163710   1.383   0.811   2.677  0.9944 -0.0923 -0.7306
14073TIP3    H263711   1.458   0.791   2.807  0.6745  0.9356 -0.3736
14074TIP3   OH263712   4.225   3.349  16.168 -0.1441 -0.2961  0.5476
14074TIP3    H163713   4.266   3.296  16.099 -1.5286  0.2881 -0.7688
14074TIP3    H263714   4.255   3.439  16.150 -2.2269  0.2120 -0.6955
14075TIP3   OH263715   5.557   2.147   5.965  0.4080  0.4782 -0.0393
14075TIP3    H163716   5.524   2.139   5.875  0.2515 -1.4975  0.1664
14075TIP3    H263717   5.513   2.078   6.013 -0.2520  2.1119  1.8329
14076TIP3   OH263718   1.487   4.449   0.366  0.4976  0.7837  0.2780
14076TIP3    H163719   1.418   4.511   0.342 -0.0857  0.1198  0.2084
14076TIP3    H263720   1.503   4.400   0.286  0.6636  0.5627  0.4473
14077TIP3   OH263721   6.109   5.771   5.076  0.7421 -0.2329 -0.2840
14077TIP3    H163722   6.138   5.811   5.158 -0.1973 -0.5245  0.1981
14077TIP3    H263723   6.046   5.704   5.102 -0.0128  0.0592 -1.2714
14078TIP3   OH263724   2.534   5.779  11.047  0.5368 -0.4474 -1.3878
14078TIP3    H163725   2.495   5.703  11.092 -1.0435 -0.5695 -2.8381
14078TIP3    H263726   2.523   5.759  10.954  1.5383  0.8733 -1.8142
14079TIP3   OH263727   2.937   0.670  16.833  0.2488  0.1150 -0.1456
14079TIP3    H163728   2.863   0.610  16.845  0.0793  0.3479 -0.0139
14079TIP3    H263729   2.994   0.651  16.908 -0.0317  0.4412  0.1578
14080TIP3   OH263730   6.269   5.069   1.115 -0.5317 -0.0067  0.2045
14080TIP3    H163731   6.295   5.138   1.176  3.5068  0.3874 -1.6874
14080TIP3    H263732   6.230   5.115   1.041 -0.0629  0.0566 -0.0070
14081TIP3   OH263733   2.729   6.751  15.944 -0.1394 -0.6972  0.7153
14081TIP3    H163734   2.701   6.790  16.027 -0.5660 -0.0629  0.2804
14081TIP3    H263735   2.751   6.826  15.889 -1.1639 -1.0448 -0.2019
14082TIP3   OH263736   6.407   6.742   3.993  0.2639  0.0371  0.0789
14082TIP3    H163737   6.486   6.763   4.043  0.8519 -2.5126  0.3502
14082TIP3    H263738   6.366   6.827   3.976  0.7047  1.1229  3.7297
14083TIP3   OH263739   2.237   5.825   6.791  0.0820  0.5312 -0.1072
14083TIP3    H163740   2.283   5.857   6.714  0.8790  0.6083  0.3826
14083TIP3    H263741   2.146   5.848   6.777  0.0218 -0.4868 -1.5497
14084TIP3   OH263742   1.366   0.763   1.650 -0.4944 -0.4455  0.0893
14084TIP3    H163743   1.375   0.687   1.592 -0.2901 -0.0843 -0.3580
14084TIP3    H263744   1.357   0.725   1.737 -0.5435 -0.9900 -0.1469
14085TIP3   OH263745   0.269   6.243  13.277  0.0053  0.1580 -0.5848
14085TIP3    H163746   0.329   6.242  13.202 -0.1603 -1.3042 -0.7192
14085TIP3    H263747   0.311   6.302  13.340  1.2870 -0.3540 -0.9223
14086TIP3   OH263748   2.958   1.792   5.042 -0.9433 -0.4718 -0.0909
14086TIP3    H163749   2.924   1.855   5.105  2.0469  2.5271 -1.1968
14086TIP3    H263750   3.003   1.726   5.095 -0.4051  0.7372  0.9831
14087TIP3   OH263751   0.654   0.286  15.252 -0.1728  0.0234 -0.7515
14087TIP3    H163752   0.743   0.259  15.227 -0.3875 -0.6757 -0.7704
14087TIP3    H263753   0.608   0.296  15.169 -0.2324 -0.0275 -0.7241
14088TIP3   OH263754   0.939   3.806  17.294 -0.1994  0.4565  0.2733
14088TIP3    H163755   0.970   3.780  17.207  1.6764  0.7104  0.8151
14088TIP3    H263756   0.975   3.894  17.307  0.2800  0.0807  1.6350
14089TIP3   OH263757   5.683   1.300  16.012  0.1693 -0.3619 -0.0759
14089TIP3    H163758   5.703   1.207  16.027 -0.5391 -0.6451 -0.8229
14089TIP3    H263759   5.760   1.346  16.044 -0.4197 -1.0279  2.5373
14090TIP3   OH263760   2.658   2.770  11.254 -0.6105 -0.2442  0.2039
14090TIP3    H163761   2.623   2.802  11.338 -0.1025 -0.6079  0.5581
14090TIP3    H263762   2.709   2.693  11.277 -0.2804 -0.2142 -0.4199
14091TIP3   OH263763   0.106   2.055  14.420  0.4855 -0.3189 -0.5041
14091TIP3    H163764   0.052   2.052  14.499  1.8402 -1.2690  0.4178
14091TIP3    H263765   0.077   1.980  14.369 -1.1100  0.8688 -1.4585
14092TIP3   OH263766   1.571   3.723   4.995  0.2419  0.5492 -0.5978
14092TIP3    H163767   1.540   3.725   5.086  1.2942 -0.5683 -0.1875
14092TIP3    H263768   1.496   3.687   4.946  1.0708 -3.2902  0.5525
14093TIP3   OH263769   3.976   1.714   3.292 -0.4342  0.2676 -0.0750
14093TIP3    H163770   3.967   1.804   3.261 -0.4429  0.1965 -0.2782
14093TIP3    H263771   4.070   1.700   3.299 -0.4441  0.6290  0.9389
14094TIP3   OH263772   4.462   2.565   5.029  0.6588 -0.0635  0.0707
14094TIP3    H163773   4.546   2.536   4.994  1.6270  1.2271  1.2478
14094TIP3    H263774   4.406   2.487   5.024  1.2390 -0.4025 -2.6794
14095TIP3   OH263775   3.490   1.013   1.037  0.2824  0.1261  0.7509
14095TIP3    H163776   3.491   1.035   0.944  1.8182  1.0771  0.9659
14095TIP3    H263777   3.414   1.061   1.071 -1.5909 -1.8708 -0.3152
14096TIP3   OH263778   2.401   0.497  14.180  1.0492 -1.0691  0.0438
14096TIP3    H163779   2.394   0.410  14.139 -0.1760 -0.4215 -1.1881
14096TIP3    H263780   2.381   0.558  14.110  0.3545  0.1534  1.2735
14097TIP3   OH263781   2.193   6.038   2.812  0.0320  0.0598 -0.0558
14097TIP3    H163782   2.167   6.111   2.755 -1.5187 -1.3058 -1.2044
14097TIP3    H263783   2.187   5.961   2.755  1.0529 -1.0479  1.2836
14098TIP3   OH263784   6.079   0.032  12.875  0.2732 -0.2234 -0.2392
14098TIP3    H163785   6.034  -0.040  12.919  0.0022  0.7634  1.1521
14098TIP3    H263786   6.162  -0.006  12.847  0.4489 -0.9133  1.1191
14099TIP3   OH263787   0.186   5.637   0.313 -0.0489 -0.0186 -0.2489
14099TIP3    H163788   0.152   5.596   0.234  1.0913  0.6542 -1.1116
14099TIP3    H263789   0.191   5.730   0.292 -0.0519  0.2168  0.7390
14100TIP3   OH263790   6.108   3.040   5.977 -0.0066 -0.4685  0.0089
14100TIP3    H163791   6.101   3.009   6.068 -0.2113  0.7538  0.4371
14100TIP3    H263792   6.200   3.027   5.955 -0.0093 -1.0167  0.3086
14101TIP3   OH263793   5.853   2.389   4.267  0.0396 -0.0775  0.1305
14101TIP3    H163794   5.898   2.328   4.327 -1.1671  0.5108  1.7197
14101TIP3    H263795   5.791   2.333   4.219  0.1435 -0.3754  0.3358
14102TIP3   OH263796   1.626   6.459  12.092 -0.2397 -0.3206  0.0244
14102TIP3    H163797   1.688   6.491  12.158 -0.1519  0.4644 -0.4283
14102TIP3    H263798   1.676   6.398  12.039 -0.6044 -1.8662  1.3615
14103TIP3   OH263799   4.480   5.803  16.368 -0.7816  0.1338 -0.6125
14103TIP3    H163800   4.519   5.890  16.368 -2.7589  1.0744 -0.1179
14103TIP3    H263801   4.527   5.756  16.299  2.0884  0.7106  0.7968
14104TIP3   OH263802   6.231   0.736  11.269  0.3916 -0.8243 -0.8092
14104TIP3    H163803   6.229   0.814  11.325 -0.8392 -1.1897 -0.3188
14104TIP3    H263804   6.302   0.682  11.305 -1.4992 -1.8869  1.6149
14105TIP3   OH263805   6.506   4.157   4.383  0.1604 -0.4329 -0.0447
14105TIP3    H163806   6.489   4.134   4.292 -0.2530  0.1753 -0.1284
14105TIP3    H263807   6.469   4.085   4.434 -4.1311  1.4052 -0.1213
14106TIP3   OH263808   2.384   2.718  16.473  0.2858  0.4732 -0.0129
14106TIP3    H163809   2.336   2.692  16.552 -1.2542  3.6436  0.2832
14106TIP3    H263810   2.466   2.670  16.478 -1.1338 -2.0218  1.6862
14107TIP3   OH263811   3.574   4.592   3.639  0.1353  0.1776 -0.0847
14107TIP3    H163812   3.619   4.671   3.667 -0.2966  0.3496  0.1262
14107TIP3    H263813   3.543   4.612   3.550 -1.6811  0.9788  0.6837
14108TIP3   OH263814   5.177   6.537   3.796  0.1409 -0.6634 -0.1421
14108TIP3    H163815   5.150   6.515   3.885 -0.7714 -0.6158 -0.3967
14108TIP3    H263816   5.241   6.607   3.806 -1.7306  1.0381  0.3829
14109TIP3   OH263817   3.888   1.237  14.607  0.1188 -0.2229 -0.3894
14109TIP3    H163818   3.900   1.152  14.650 -2.2441 -0.1128  0.6431
14109TIP3    H263819   3.964   1.288  14.634  0.5159 -1.3388  0.7189
14110TIP3   OH263820   1.121   3.992   2.049 -0.4663 -0.0062 -0.1923
14110TIP3    H163821   1.142   3.952   1.965 -0.6732  0.2295 -0.3586
14110TIP3    H263822   1.039   4.039   2.033  0.9958  2.5761 -0.6910
14111TIP3   OH263823   3.087   0.292   3.445 -0.3299 -0.2296  0.5676
14111TIP3    H163824   3.039   0.362   3.400 -1.0052 -1.3594 -0.5532
14111TIP3    H263825   3.172   0.289   3.401 -1.4238 -2.1639 -1.6620
14112TIP3   OH263826   4.702   5.894  15.032 -0.2907 -0.1373  0.5186
14112TIP3    H163827   4.667   5.865  14.947  0.9819  1.8626 -0.7743
14112TIP3    H263828   4.676   5.985  15.039  1.8422  0.4815  1.0212
14113TIP3   OH263829   1.951   2.116  13.604  0.2077  0.4830 -0.3384
14113TIP3    H163830   1.923   2.028  13.628  2.7524  0.2696  2.3993
14113TIP3    H263831   2.038   2.104  13.567  0.7123  1.8551  0.3403
14114TIP3   OH263832   4.007   5.329  14.754  0.8147  0.1853 -0.4748
14114TIP3    H163833   3.922   5.370  14.736  0.5251  0.7646  1.8343
14114TIP3    H263834   4.062   5.402  14.782  2.1568 -0.1757 -2.0209
14115TIP3   OH263835   4.691   1.561   6.071  0.5185 -0.2586  0.1584
14115TIP3    H163836   4.749   1.589   6.142  1.6746  0.3180 -0.9792
14115TIP3    H263837   4.624   1.508   6.115  1.2854 -0.0599  1.6504
14116TIP3   OH263838   5.205   3.856  12.667  0.1774 -0.3715 -0.2248
14116TIP3    H163839   5.295   3.831  12.647  0.1445 -1.2885  0.6908
14116TIP3    H263840   5.151   3.800  12.613  0.1446  0.4462 -1.0635
14117TIP3   OH263841   5.319   1.324   0.741 -0.1292  0.1299  0.2771
14117TIP3    H163842   5.397   1.274   0.763 -0.1695  0.2783  0.7910
14117TIP3    H263843   5.287   1.356   0.826 -0.2381  0.8218 -0.0149
14118TIP3   OH263844   2.083   0.423  11.517 -0.0575  0.2076 -0.0179
14118TIP3    H163845   2.075   0.367  11.440  0.1300  0.9257 -0.5732
14118TIP3    H263846   2.121   0.367  11.584 -2.5071 -1.1361  0.3495
14119TIP3   OH263847   0.747   6.769  15.074  0.7049 -0.1464  0.0457
14119TIP3    H163848   0.744   6.750  15.168  0.5959  3.1723  0.8347
14119TIP3    H263849   0.805   6.844  15.066 -1.7017  1.6797 -2.0874
14120TIP3   OH263850   2.429   4.907   1.503 -0.0663  0.0022 -0.8966
14120TIP3    H163851   2.422   4.877   1.413  0.7645 -0.6600 -0.7450
14120TIP3    H263852   2.397   4.834   1.555  0.8215 -0.1754 -0.5881
14121TIP3   OH263853   4.989   1.346  13.140 -0.0783 -0.5111  0.1356
14121TIP3    H163854   4.970   1.424  13.088 -2.6127 -1.0758  0.1087
14121TIP3    H263855   5.045   1.293  13.084  1.7341  1.2148  0.1583
14122TIP3   OH263856   5.589   6.632   5.966  0.1765 -0.2834  0.5305
14122TIP3    H163857   5.646   6.592   6.031 -0.4515 -0.4231  1.0043
14122TIP3    H263858   5.526   6.563   5.943 -1.1879  0.5093  1.6727
14123TIP3   OH263859   2.208   0.633  15.938  0.1882  0.3413 -0.3737
14123TIP3    H163860   2.268   0.568  15.900  0.8501  0.9013 -0.3031
14123TIP3    H263861   2.135   0.581  15.972  0.4952 -0.3272 -0.7216
14124TIP3   OH263862   5.618   1.478   4.141  0.5497 -0.2211  0.1934
14124TIP3    H163863   5.572   1.427   4.207 -0.6978  0.0683 -0.4131
14124TIP3    H263864   5.579   1.566   4.148  0.4285 -0.1798 -0.8892
14125TIP3   OH263865   0.545   6.785   3.899 -0.2950 -0.4631 -0.1710
14125TIP3    H163866   0.464   6.751   3.937 -0.7503 -0.3232 -0.9712
14125TIP3    H263867   0.584   6.710   3.854 -0.1814 -0.4419 -0.1067
14126TIP3   OH263868   2.897   5.384   0.671 -0.3225  0.2697 -0.7512
14126TIP3    H163869   2.947   5.465   0.676  0.1689 -0.0494 -0.4289
14126TIP3    H263870   2.922   5.345   0.587  2.1572 -1.2658  0.5758
14127TIP3   OH263871   3.371   4.369   4.519 -0.1143  0.1987 -0.1688
14127TIP3    H163872   3.324   4.445   4.556 -1.9464 -1.0211  0.1558
14127TIP3    H263873   3.327   4.352   4.436 -1.4744 -1.9930  0.9034
14128TIP3   OH263874   3.672   0.848   2.650  0.0216  0.8099 -0.3489
14128TIP3    H163875   3.759   0.886   2.658  0.0023  0.8130 -0.1653
14128TIP3    H263876   3.646   0.867   2.560  0.5091  0.1836 -0.6359
14129TIP3   OH263877   3.381   2.602  17.220 -0.3414 -0.4611  0.2787
14129TIP3    H163878   3.428   2.659  17.280 -0.5050 -0.3428  0.2947
14129TIP3    H263879   3.332   2.543  17.277 -0.2734 -0.5339  0.2619
14130TIP3   OH263880   3.263   0.814   5.478  0.2513  0.1024  0.0458
14130TIP3    H163881   3.244   0.905   5.453  0.0422 -0.3690 -1.6138
14130TIP3    H263882   3.352   0.799   5.445  0.0648 -0.4709 -0.1977
14131TIP3   OH263883   1.971   6.574   1.118  0.0915  1.0514 -0.2890
14131TIP3    H163884   1.881   6.581   1.084  0.3504  2.4556 -0.7163
14131TIP3    H263885   2.026   6.600   1.045  0.9203 -0.5964 -0.2893
14132TIP3   OH263886   4.565   0.195   1.906  0.2203  0.0239 -0.3758
14132TIP3    H163887   4.582   0.109   1.944 -3.2173 -0.4209  0.4823
14132TIP3    H263888   4.505   0.178   1.834 -2.0365  1.7568  0.9640
14133TIP3   OH263889   0.480   0.882   2.823  0.1765  0.5033  0.0852
14133TIP3    H163890   0.432   0.803   2.799  1.3318  0.1999 -1.4072
14133TIP3    H263891   0.569   0.852   2.841  0.0480  1.1486  2.0901
14134TIP3   OH263892   5.208   6.295  14.774 -0.7020  0.7897  0.0722
14134TIP3    H163893   5.205   6.202  14.753  3.2558  0.5800 -0.3894
14134TIP3    H263894   5.142   6.335  14.717 -1.5102 -1.5571 -0.7438
14135TIP3   OH263895   5.730   5.436  17.227 -0.2446 -0.7625 -0.6959
14135TIP3    H163896   5.688   5.372  17.286 -1.0090 -2.2171 -2.7183
14135TIP3    H263897   5.816   5.452  17.267 -1.0041 -1.1196  1.1894
14136TIP3   OH263898   1.027   4.366  12.052 -0.3590  0.0998 -0.0574
14136TIP3    H163899   1.018   4.428  11.980  0.6854  1.0531  0.5866
14136TIP3    H263900   0.941   4.364  12.094 -0.0911  2.1303  0.6824
14137TIP3   OH263901   2.823   2.047  16.050 -0.0015  1.1260  0.2448
14137TIP3    H163902   2.907   2.041  16.096  0.2341 -1.2422 -0.3793
14137TIP3    H263903   2.805   1.958  16.022 -2.3143  1.7518 -0.4286
14138TIP3   OH263904   3.291   4.592  15.957  0.9398  0.1301 -0.1970
14138TIP3    H163905   3.298   4.500  15.982  2.6257  0.1815 -0.3585
14138TIP3    H263906   3.284   4.590  15.861  1.4411  0.1884 -0.2347
14139TIP3   OH263907   2.264   4.928  10.813  0.5888  0.1337  0.1569
14139TIP3    H163908   2.187   4.881  10.783 -0.2203  0.9071  0.9683
14139TIP3    H263909   2.338   4.872  10.787 -0.3285 -1.6126  1.1183
14140TIP3   OH263910   6.516   3.844   0.004 -0.1528  0.3188  0.5906
14140TIP3    H163911   6.538   3.918  -0.053  0.2881  1.5765  2.3246
14140TIP3    H263912   6.420   3.845   0.008 -0.2338 -0.2149 -0.6236
14141TIP3   OH263913   4.882   2.390  11.583 -0.4369  0.0196 -0.2423
14141TIP3    H163914   4.824   2.314  11.577 -0.3946  0.0055 -0.4824
14141TIP3    H263915   4.971   2.353  11.582 -0.4231 -0.0087  0.8284
14142TIP3   OH263916   3.275   5.383   3.324  0.0957  0.1272  0.3012
14142TIP3    H163917   3.362   5.344   3.327 -0.3753 -0.8750  1.4812
14142TIP3    H263918   3.230   5.335   3.254  0.4862  0.6564 -0.3192
14143TIP3   OH263919   4.652   2.500   2.376  0.3523  0.4013 -0.0304
14143TIP3    H163920   4.574   2.556   2.375  0.6005  0.7545  0.1018
14143TIP3    H263921   4.663   2.473   2.285  0.7378  1.2954 -0.2680
14144TIP3   OH263922   1.317   3.454  10.934 -1.0055  0.0615  0.4362
14144TIP3    H163923   1.355   3.367  10.921 -0.5695  0.0644  1.6110
14144TIP3    H263924   1.381   3.515  10.897 -0.8888 -0.0542  0.4498
14145TIP3   OH263925   2.427   3.130   6.345  0.1306 -0.0989  1.2612
14145TIP3    H163926   2.339   3.093   6.345  0.3678 -0.6963  0.3211
14145TIP3    H263927   2.460   3.113   6.257  1.4899 -0.6320  1.8558
14146TIP3   OH263928   2.484   2.508   1.915  0.3338  0.6561  0.1599
14146TIP3    H163929   2.453   2.575   1.976  1.3316 -0.0360  1.4779
14146TIP3    H263930   2.502   2.432   1.970 -1.0017 -0.8089 -1.3264
14147TIP3   OH263931   0.427   2.554  16.800  1.1527 -0.8024  0.0320
14147TIP3    H163932   0.362   2.585  16.737  1.1922  0.1718  0.4498
14147TIP3    H263933   0.422   2.616  16.872  2.6630 -0.5928 -0.0030
14148TIP3   OH263934   6.729   5.312  14.259 -0.1890  0.0792  0.0475
14148TIP3    H163935   6.635   5.322  14.273 -0.2416 -1.0616  0.6540
14148TIP3    H263936   6.757   5.394  14.220 -0.9468  1.5244  2.3488
14149TIP3   OH263937   2.054   3.295  17.230  0.4315 -0.4824 -0.1254
14149TIP3    H163938   2.045   3.200  17.236 -0.0196 -0.4424 -0.0803
14149TIP3    H263939   2.125   3.309  17.168 -0.1168 -0.8462 -0.8501
14150TIP3   OH263940   3.677   0.302   0.141  0.2430 -0.5803 -0.1535
14150TIP3    H163941   3.767   0.334   0.142  0.3132 -0.7471 -0.7799
14150TIP3    H263942   3.675   0.238   0.069 -0.8401  0.8241 -1.4547
14151TIP3   OH263943   2.339   4.948  13.915  0.5675  0.1819 -0.2450
14151TIP3    H163944   2.390   5.027  13.937  2.3859 -0.3826 -2.1194
14151TIP3    H263945   2.296   4.969  13.832  1.5368 -0.9295 -1.0744
14152TIP3   OH263946   0.317   5.755   6.614 -0.4867 -0.2361 -0.4101
14152TIP3    H163947   0.328   5.672   6.567 -0.4392 -0.3121 -0.2654
14152TIP3    H263948   0.224   5.758   6.635 -0.1542 -1.2854  1.4644
14153TIP3   OH263949   4.295   2.598  11.113  0.1680 -0.4022  0.1906
14153TIP3    H163950   4.324   2.683  11.078  1.7666 -0.1313  2.0079
14153TIP3    H263951   4.339   2.533  11.058 -0.1277 -0.0636 -0.4633
14154TIP3   OH263952   3.070   2.398   3.330 -0.1662  0.2130  0.5205
14154TIP3    H163953   3.031   2.472   3.376 -3.1269  0.4584 -2.0688
14154TIP3    H263954   3.054   2.416   3.237  2.1676 -2.0204 -0.4415
14155TIP3   OH263955   1.296   0.837  17.149 -0.1813  0.4532  0.7180
14155TIP3    H163956   1.313   0.761  17.205  0.9617  0.1881  0.0384
14155TIP3    H263957   1.307   0.804  17.060 -1.8899  0.8908  0.2998
14156TIP3   OH263958   3.435   1.397  16.642  0.2428 -1.1113  0.2552
14156TIP3    H163959   3.489   1.456  16.589 -1.4232  0.7941  0.5966
14156TIP3    H263960   3.346   1.410  16.609 -0.2540 -3.1540  0.6408
14157TIP3   OH263961   2.743   0.630   4.034  0.3250  0.2522  0.2509
14157TIP3    H163962   2.656   0.639   3.996  0.8435  1.4127 -0.7418
14157TIP3    H263963   2.787   0.565   3.979 -0.0840 -0.7514  1.0949
14158TIP3   OH263964   2.143   6.217  10.338 -0.0130 -0.3926 -0.1337
14158TIP3    H163965   2.231   6.196  10.369  0.4655  1.8209  0.2245
14158TIP3    H263966   2.085   6.167  10.395  0.9483  0.7121  1.9478
14159TIP3   OH263967   6.219   2.581   6.528 -0.4497 -0.6218 -0.1382
14159TIP3    H163968   6.182   2.521   6.593  0.6147 -0.1060  0.9800
14159TIP3    H263969   6.169   2.662   6.540 -0.5853 -0.6813 -0.3038
14160TIP3   OH263970   1.886   0.755  15.952 -0.1634 -0.2491  0.4495
14160TIP3    H163971   1.861   0.663  15.955 -0.5234 -0.1303  2.3844
14160TIP3    H263972   1.813   0.798  15.907 -0.4377 -0.7848  0.3752
14161TIP3   OH263973   1.050   5.478   1.375  0.0125 -0.3399 -0.0024
14161TIP3    H163974   0.981   5.521   1.324 -2.3315 -2.1548  1.4056
14161TIP3    H263975   1.129   5.529   1.357 -1.8402  2.3899 -1.0692
14162TIP3   OH263976   4.107   0.375   0.674 -0.1004  0.0321  0.0749
14162TIP3    H163977   4.177   0.440   0.662  0.3562  0.0015  2.2018
14162TIP3    H263978   4.030   0.427   0.698 -0.9809  0.0958 -2.6035
14163TIP3   OH263979   1.117   0.030   4.938  0.6598 -0.5089 -0.5117
14163TIP3    H163980   1.050   0.096   4.959 -0.1179 -1.4108 -0.0683
14163TIP3    H263981   1.198   0.080   4.928  0.0013  0.5669 -0.6599
14164TIP3   OH263982   4.859   1.932   3.708  0.2300 -0.3878 -0.2043
14164TIP3    H163983   4.845   1.917   3.801  1.0414  0.5076  0.0857
14164TIP3    H263984   4.954   1.940   3.699  0.1186  0.2672 -0.9855
14165TIP3   OH263985   4.806   4.153  13.694  0.3549 -0.1908 -0.3654
14165TIP3    H163986   4.727   4.158  13.640 -0.3191  0.6862  0.6529
14165TIP3    H263987   4.773   4.136  13.782  1.1924  1.4129  0.3016
14166TIP3   OH263988   4.510   2.494  15.141  0.2694 -0.0623  0.2357
14166TIP3    H163989   4.567   2.532  15.208  0.2120  1.1880 -0.4046
14166TIP3    H263990   4.571   2.448  15.083  0.6753  1.3753 -0.5180
14167TIP3   OH263991   3.580   2.186   4.308 -0.0443 -0.1818 -0.7691
14167TIP3    H163992   3.611   2.162   4.221 -0.1878  1.1904 -1.2296
14167TIP3    H263993   3.562   2.280   4.302  0.0082 -0.0409  0.7611
14168TIP3   OH263994   2.322   2.611   3.520  0.5890 -0.2221 -0.0577
14168TIP3    H163995   2.264   2.648   3.453  1.5686 -1.4981 -1.7004
14168TIP3    H263996   2.319   2.517   3.504  2.9491 -0.3479 -0.0973
14169TIP3   OH263997   4.620   2.514  15.606 -0.1335  0.0636  0.1759
14169TIP3    H163998   4.564   2.535  15.531  0.4734  1.1786  0.0135
14169TIP3    H263999   4.568   2.453  15.658 -1.4391  0.9254 -0.0699
14170TIP3   OH264000   3.160   6.305  14.464 -0.3232 -0.4858 -0.4475
14170TIP3    H164001   3.093   6.268  14.521 -1.6228  0.6524 -1.1664
14170TIP3    H264002   3.177   6.237  14.400 -2.5916 -0.0007 -1.6816
14171TIP3   OH264003   1.569   2.825  13.712 -0.2805  0.0016 -0.5142
14171TIP3    H164004   1.617   2.781  13.642 -2.2715 -1.2116 -1.2000
14171TIP3    H264005   1.598   2.780  13.792  0.8360  0.3379 -0.7065
14172TIP3   OH264006   5.043   4.070  12.032  0.1188  0.3850  0.0092
14172TIP3    H164007   5.079   4.080  12.120  4.3131 -0.1576 -1.4117
14172TIP3    H264008   4.987   3.993  12.037  1.5949 -0.6408  1.9119
14173TIP3   OH264009   3.241   1.394  15.990  0.6743 -0.2201 -0.4783
14173TIP3    H164010   3.283   1.479  16.005  0.1923  0.0422 -0.5910
14173TIP3    H264011   3.263   1.372  15.899  0.0957  0.1923 -0.7257
14174TIP3   OH264012   0.993   6.349   1.765  0.0089  0.0151  0.1891
14174TIP3    H164013   1.070   6.363   1.820 -0.3547  0.5420  0.5796
14174TIP3    H264014   1.021   6.285   1.700  0.8281  0.3184  0.2280
14175TIP3   OH264015   1.100   6.790  17.009  0.3994  0.3040 -0.3668
14175TIP3    H164016   1.181   6.741  17.023  1.5612  2.4523  1.1345
14175TIP3    H264017   1.056   6.790  17.094 -0.1508  0.8771 -0.6422
14176TIP3   OH264018   3.550   1.934   1.951 -0.3314  0.3108 -0.2665
14176TIP3    H164019   3.467   1.917   1.905  0.4693  0.4183 -1.8082
14176TIP3    H264020   3.615   1.883   1.903  0.6608  0.9901  0.3265
14177TIP3   OH264021   6.707   5.190   5.454  0.1828 -0.2702 -0.1564
14177TIP3    H164022   6.774   5.165   5.518  0.9892  0.9840 -0.4737
14177TIP3    H264023   6.671   5.272   5.488  0.3896  0.2387 -1.1164
14178TIP3   OH264024   5.286   5.153   1.390 -0.0296  0.2356  0.1107
14178TIP3    H164025   5.377   5.130   1.371  0.7458  2.2647  0.9960
14178TIP3    H264026   5.288   5.182   1.481 -2.0924 -1.9416  0.9494
14179TIP3   OH264027   0.587   5.408  12.063  0.5784  0.9891 -0.1852
14179TIP3    H164028   0.630   5.483  12.023  2.4225 -0.1580 -0.4813
14179TIP3    H264029   0.613   5.411  12.155  1.3984  0.2380 -0.3843
14180TIP3   OH264030   0.688   4.726  12.157 -0.0395  0.4343  0.0933
14180TIP3    H164031   0.617   4.785  12.130 -0.0972  0.3365  0.0298
14180TIP3    H264032   0.749   4.727  12.083  0.9645  1.9806  0.8964
14181TIP3   OH264033   0.907   0.279  12.534 -0.1611 -0.6379 -0.3486
14181TIP3    H164034   0.983   0.226  12.510  1.2085  1.4756 -1.0168
14181TIP3    H264035   0.889   0.256  12.625  1.4737 -0.9846 -0.0868
14182TIP3   OH264036   6.724   3.852  12.648 -0.0090 -0.2625 -0.2408
14182TIP3    H164037   6.653   3.891  12.596 -1.0166  0.5660  1.6449
14182TIP3    H264038   6.723   3.760  12.624 -0.4305  0.0901 -1.6684
14183TIP3   OH264039   5.241   0.835  15.396  0.2909 -0.5556 -0.3850
14183TIP3    H164040   5.178   0.825  15.325  0.3004  1.1284 -0.6822
14183TIP3    H264041   5.312   0.888  15.357  0.5799 -0.1142  0.7016
14184TIP3   OH264042   6.068   5.290  12.849 -0.5523 -0.4375 -0.2181
14184TIP3    H164043   5.978   5.303  12.821 -0.9049  0.4715  1.2049
14184TIP3    H264044   6.064   5.219  12.913 -0.5497  0.5893  0.9792
14185TIP3   OH264045   2.689   5.726   1.205 -0.1600  0.2470 -0.0793
14185TIP3    H164046   2.662   5.804   1.156  0.6204  1.1024  0.7960
14185TIP3    H264047   2.762   5.757   1.260 -0.9030 -0.6812  1.5131
14186TIP3   OH264048   3.525   4.133   2.451  0.3721  0.2684 -0.3811
14186TIP3    H164049   3.573   4.215   2.456 -0.3616  0.8557 -2.2544
14186TIP3    H264050   3.578   4.077   2.395  1.0411 -0.7063  1.1631
14187TIP3   OH264051   3.189   3.882   3.419  0.3169 -0.2278 -0.6051
14187TIP3    H164052   3.127   3.818   3.454  1.5229 -0.7149  0.7220
14187TIP3    H264053   3.160   3.896   3.329 -2.7580  0.8773  0.4364
14188TIP3   OH264054   2.870   2.720  15.140  0.5693 -0.4922  0.2604
14188TIP3    H164055   2.809   2.793  15.145  2.7341  1.3414  1.5753
14188TIP3    H264056   2.814   2.642  15.140 -1.7378  1.0475  2.0314
14189TIP3   OH264057   2.138   4.386  13.493 -0.3991  0.0558 -0.0818
14189TIP3    H164058   2.167   4.446  13.562 -0.5728 -0.0644  0.0959
14189TIP3    H264059   2.219   4.357  13.451 -0.2201 -0.6465  0.7184
14190TIP3   OH264060   0.813   3.708   5.517 -0.0776  0.6101  0.0634
14190TIP3    H164061   0.803   3.656   5.437 -0.3076  1.6305 -0.5874
14190TIP3    H264062   0.814   3.799   5.487 -1.1653  1.0596  1.3129
14191TIP3   OH264063   0.234   0.906   6.034 -0.4532 -0.3278  0.0277
14191TIP3    H164064   0.221   0.973   6.100  1.3621  2.1397 -1.9300
14191TIP3    H264065   0.182   0.935   5.959  2.4770  0.5833 -1.8496
14192TIP3   OH264066   3.599   4.141   4.628  0.1599 -0.0131  0.1062
14192TIP3    H164067   3.642   4.081   4.689  1.6371 -0.1984 -1.0602
14192TIP3    H264068   3.641   4.226   4.643 -1.6658  0.6872  1.4922
14193TIP3   OH264069   4.086   1.838   5.769 -0.2071 -0.5149 -0.6414
14193TIP3    H164070   4.125   1.860   5.854 -0.3326 -0.0701 -0.6975
14193TIP3    H264071   4.089   1.919   5.719 -0.2255 -0.7507 -1.0284
14194TIP3   OH264072   2.012   0.006   0.732  0.2457  0.0043  0.3930
14194TIP3    H164073   2.101  -0.017   0.757  0.3312  1.9809  2.2046
14194TIP3    H264074   2.020   0.037   0.641  0.8668 -2.3990 -0.4300
14195TIP3   OH264075   3.797   3.288  15.486 -0.1090  0.0025  0.2262
14195TIP3    H164076   3.756   3.358  15.434 -1.5181 -0.8011  0.2162
14195TIP3    H264077   3.729   3.221  15.493  1.2344 -1.4014  0.1881
14196TIP3   OH264078   4.783   6.505   1.045 -0.6900 -0.6169 -0.3869
14196TIP3    H164079   4.713   6.565   1.069 -1.2940 -1.0150 -1.1252
14196TIP3    H264080   4.773   6.432   1.105 -0.5173 -0.3912 -0.0820
14197TIP3   OH264081   6.143   6.339  15.443  0.4093  0.1385  0.0297
14197TIP3    H164082   6.170   6.428  15.423  0.1586 -0.0143 -1.0418
14197TIP3    H264083   6.103   6.344  15.530 -4.2135  2.0370 -1.9419
14198TIP3   OH264084   2.323   1.041   2.710  0.5935  0.2167 -0.0894
14198TIP3    H164085   2.349   1.057   2.800  1.0343  2.4311 -0.5484
14198TIP3    H264086   2.339   0.947   2.696  1.7912  0.1091  1.7115
14199TIP3   OH264087   2.179   4.495   4.213 -0.3335  0.3848  0.3221
14199TIP3    H164088   2.195   4.434   4.142  0.2887  0.3815  0.4582
14199TIP3    H264089   2.192   4.582   4.174 -1.9250  0.4832 -0.0546
14200TIP3   OH264090   0.718   3.176  15.410  0.1122 -0.2587  0.2414
14200TIP3    H164091   0.773   3.242  15.366  0.8139 -0.7781  0.3265
14200TIP3    H264092   0.780   3.113  15.446 -0.5656 -1.4249 -0.5543
14201TIP3   OH264093   5.348   1.032  16.318  0.5209  0.2904 -0.0788
14201TIP3    H164094   5.256   1.032  16.344  0.6874 -2.6136  0.8668
14201TIP3    H264095   5.346   1.032  16.222 -0.4498  0.5530 -0.0624
14202TIP3   OH264096   2.883   2.455  13.831 -0.0985  0.4639  0.2452
14202TIP3    H164097   2.824   2.529  13.827 -0.9998 -0.1811  1.0924
14202TIP3    H264098   2.840   2.387  13.779  1.0442  0.7249 -1.0985
14203TIP3   OH264099   4.616   5.708   4.461  0.2797 -0.5635 -0.0968
14203TIP3    H164100   4.522   5.707   4.480  0.4806 -0.2711  1.0138
14203TIP3    H264101   4.652   5.638   4.516  1.1965  1.8006  2.5881
14204TIP3   OH264102   4.752   0.066   0.866  0.2754 -0.1628  0.1768
14204TIP3    H164103   4.752   0.161   0.852  0.4611 -0.0051  1.1592
14204TIP3    H264104   4.842   0.045   0.891  0.0838 -0.4940  0.6002
14205TIP3   OH264105   1.010   2.111  16.134 -0.0577 -0.4127 -0.3285
14205TIP3    H164106   1.077   2.169  16.169  0.0873 -0.0672 -1.1487
14205TIP3    H264107   0.962   2.079  16.211  0.2118  0.3587  0.1644
14206TIP3   OH264108   6.638   0.350   1.649  0.8099  0.7817 -0.3392
14206TIP3    H164109   6.651   0.300   1.569 -0.7480  0.3608 -0.3569
14206TIP3    H264110   6.726   0.357   1.687  1.6410  1.3448 -2.2568
14207TIP3   OH264111   0.746   0.309  16.407  0.1053  0.0584  0.4466
14207TIP3    H164112   0.753   0.337  16.316 -0.5976  1.6327  0.8321
14207TIP3    H264113   0.823   0.256  16.422  0.4600  0.1311 -0.9429
14208TIP3   OH264114   0.081   1.479  12.024  0.2605  0.3113 -0.9947
14208TIP3    H164115   0.032   1.497  12.104  1.5201 -0.4740 -0.0235
14208TIP3    H264116   0.172   1.473  12.052  0.6590 -0.5947 -2.3812
14209TIP3   OH264117   5.565   3.674   4.897  0.5703 -0.2273 -0.1165
14209TIP3    H164118   5.534   3.584   4.909  1.1865 -0.3138  0.9648
14209TIP3    H264119   5.661   3.668   4.905  0.5314  0.7185  1.4564
14210TIP3   OH264120   1.907   6.356  13.855  0.0295 -0.7199 -0.3239
14210TIP3    H164121   1.981   6.362  13.916 -0.1062 -0.2951 -0.1912
14210TIP3    H264122   1.894   6.446  13.825 -0.2818 -0.8321 -0.5293
14211TIP3   OH264123   0.829   1.248  10.657  0.0497 -0.2429 -0.0005
14211TIP3    H164124   0.739   1.217  10.671 -0.8485  2.2590  0.3463
14211TIP3    H264125   0.827   1.290  10.572  0.5159  1.0169  0.5902
14212TIP3   OH264126   3.150   1.030   5.100 -0.1544 -0.0340 -0.7744
14212TIP3    H164127   3.057   1.016   5.087 -0.0475 -0.3111 -1.2745
14212TIP3    H264128   3.187   1.030   5.012  0.6157 -2.1800 -0.5229
14213TIP3   OH264129   1.953   5.693  13.454  0.3881  0.4998  0.2324
14213TIP3    H164130   1.896   5.724  13.524  0.9865 -0.1031  0.9920
14213TIP3    H264131   1.991   5.612  13.487 -0.2595 -0.4620 -1.2593
14214TIP3   OH264132   1.551   3.407   4.200  0.7149  0.1696  0.2423
14214TIP3    H164133   1.588   3.392   4.287  0.9273 -0.2090  0.0824
14214TIP3    H264134   1.457   3.392   4.212  0.5278  1.6043  0.7585
14215TIP3   OH264135   2.090   1.818  11.849 -0.1767 -0.6272  0.7269
14215TIP3    H164136   2.042   1.859  11.777  0.2009  0.6777  1.1933
14215TIP3    H264137   2.033   1.830  11.925  0.4656  0.1336  1.1037
14216TIP3   OH264138   1.273   2.321   4.574 -0.4377  0.9363 -0.1770
14216TIP3    H164139   1.338   2.253   4.591 -0.4586  0.8856 -0.3009
14216TIP3    H264140   1.324   2.399   4.552 -0.4234  0.7854 -0.6957
14217TIP3   OH264141   5.673   3.947   2.236 -0.0659 -0.2427 -0.1346
14217TIP3    H164142   5.590   3.971   2.195 -0.2234 -0.4905  0.0412
14217TIP3    H264143   5.667   3.981   2.325 -0.5183 -1.4187  0.2938
14218TIP3   OH264144   3.915   3.186  17.221 -0.0713 -0.7492 -0.3859
14218TIP3    H164145   3.834   3.155  17.182 -0.5516  0.7530 -0.6327
14218TIP3    H264146   3.983   3.130  17.184 -0.8028 -0.9534 -1.4414
14219TIP3   OH264147   2.823   5.461   1.453  0.5749 -0.1752  0.0377
14219TIP3    H164148   2.875   5.397   1.406  1.2091 -0.3440  0.9399
14219TIP3    H264149   2.850   5.452   1.544 -0.5287  0.2246  0.4297
14220TIP3   OH264150   0.358   5.189  14.147 -0.3699  0.4132 -0.0747
14220TIP3    H164151   0.319   5.118  14.198 -0.2911  0.5678  0.2028
14220TIP3    H264152   0.283   5.244  14.122 -0.1949  1.6219  1.8583
14221TIP3   OH264153   3.378   3.979   0.546 -0.3019 -0.1096 -0.2195
14221TIP3    H164154   3.463   3.982   0.502  0.3128 -0.9986  0.8576
14221TIP3    H264155   3.367   4.068   0.581 -1.1525  0.8426 -2.7115
14222TIP3   OH264156   5.741   5.314  16.130  0.4016  0.2243 -0.4195
14222TIP3    H164157   5.698   5.387  16.174  0.1570  0.1396 -0.5195
14222TIP3    H264158   5.697   5.236  16.163 -0.2982  0.2013 -1.3800
14223TIP3   OH264159   0.814   2.821  12.182 -0.0707  0.1192  0.6817
14223TIP3    H164160   0.900   2.830  12.142 -0.6752 -0.0704 -0.7116
14223TIP3    H264161   0.785   2.911  12.198  0.3170  0.1855  1.0183
14224TIP3   OH264162   1.777   2.127  15.730 -0.3519 -0.0737  0.3348
14224TIP3    H164163   1.780   2.130  15.634 -2.1256  0.1539  0.2482
14224TIP3    H264164   1.866   2.104  15.756  0.4172  0.8400 -1.3238
14225TIP3   OH264165   2.071   3.547   1.509  0.1053  0.2272 -0.3804
14225TIP3    H164166   2.067   3.576   1.418 -0.5123 -1.0427 -0.7867
14225TIP3    H264167   2.128   3.611   1.553 -0.1774  1.2660 -1.4863
14226TIP3   OH264168   6.324   1.001   0.358 -0.7210 -0.2354  0.1662
14226TIP3    H164169   6.407   1.041   0.383 -0.2906 -0.5305 -0.7571
14226TIP3    H264170   6.260   1.038   0.419  0.4332 -1.7070  2.3802
14227TIP3   OH264171   1.514   0.693   3.941  0.0118 -0.0892  0.1946
14227TIP3    H164172   1.488   0.679   4.032 -1.9400  0.6444 -0.2019
14227TIP3    H264173   1.609   0.685   3.942 -0.0037 -0.5826  2.2069
14228TIP3   OH264174   3.138   2.353  15.621 -0.5775  0.2319 -0.5345
14228TIP3    H164175   3.074   2.314  15.562  0.4691 -0.6920 -1.1197
14228TIP3    H264176   3.089   2.415  15.674 -2.2015 -1.3968 -0.0522
14229TIP3   OH264177   2.911   5.768   1.407  0.3963 -0.1109  0.0827
14229TIP3    H164178   2.873   5.717   1.478  1.0749 -2.4562 -1.1201
14229TIP3    H264179   2.976   5.824   1.449  3.3618 -3.9336  1.1195
14230TIP3   OH264180   3.709   3.223  11.088 -0.5466  0.1025  0.8231
14230TIP3    H164181   3.702   3.299  11.031  1.1252  0.6679  1.3053
14230TIP3    H264182   3.797   3.189  11.072 -0.9257 -1.1830  1.2929
14231TIP3   OH264183   1.283   5.869   1.248 -0.0198 -0.3410  0.0809
14231TIP3    H164184   1.268   5.879   1.342  1.4858 -0.0338  0.3106
14231TIP3    H264185   1.375   5.844   1.241 -0.1212 -0.3967 -1.3195
14232TIP3   OH264186   6.461   0.227  15.337 -0.2543  0.0311  0.0514
14232TIP3    H164187   6.474   0.231  15.432 -0.9407  1.1553  0.1118
14232TIP3    H264188   6.534   0.277  15.301 -1.2672  1.6234  0.1237
14233TIP3   OH264189   0.067   3.765   0.045  0.5279 -0.5141  0.2741
14233TIP3    H164190  -0.003   3.708   0.012  0.4040 -0.7190  0.8732
14233TIP3    H264191   0.029   3.852   0.046  0.7321 -0.4068 -0.6953
14234TIP3   OH264192   6.763   4.272  14.703 -0.0554 -0.7955 -0.2669
14234TIP3    H164193   6.803   4.197  14.746  0.9693 -1.1906 -1.8446
14234TIP3    H264194   6.815   4.287  14.624 -1.0057  0.7785 -0.6680
14235TIP3   OH264195   3.972   4.619  15.252 -0.1521 -0.6031 -0.0418
14235TIP3    H164196   3.968   4.525  15.236 -0.4518 -0.8043  1.0767
14235TIP3    H264197   3.919   4.632  15.331  1.8200  0.1371  1.2544
14236TIP3   OH264198   6.240   1.047   1.479 -0.2993  0.0097 -0.2261
14236TIP3    H164199   6.258   0.978   1.415 -0.5114  0.9593 -1.3485
14236TIP3    H264200   6.160   1.089   1.447 -1.0308 -0.1898  1.2854
14237TIP3   OH264201   6.033   3.767   4.710  0.5960 -0.1361 -0.7813
14237TIP3    H164202   5.975   3.787   4.636  0.7459  0.5217 -0.7288
14237TIP3    H264203   6.120   3.757   4.670  0.9784  1.7476 -0.5606
14238TIP3   OH264204   1.202   1.810  17.215 -0.1309  0.7248 -0.1100
14238TIP3    H164205   1.281   1.758  17.221  0.6659  1.9785  0.8868
14238TIP3    H264206   1.185   1.819  17.122  0.0006 -0.8311 -0.3098
14239TIP3   OH264207   1.282   4.431  11.453 -0.0158  0.2361  0.5062
14239TIP3    H164208   1.259   4.375  11.527  1.0559 -0.1988  0.5295
14239TIP3    H264209   1.276   4.374  11.376 -1.3110  0.7331  0.2042
14240TIP3   OH264210   5.661   4.731   4.791 -0.1581  0.7616  0.7375
14240TIP3    H164211   5.624   4.679   4.862 -0.7626  1.4248  0.9195
14240TIP3    H264212   5.639   4.682   4.712 -2.0738  1.4738  0.7809
14241TIP3   OH264213   5.832   6.684   4.272 -0.1331 -0.2812 -0.4076
14241TIP3    H164214   5.807   6.747   4.340 -1.4323 -0.5407 -0.6222
14241TIP3    H264215   5.914   6.719   4.237  1.0319 -0.5541  1.8138
14242TIP3   OH264216   2.223   5.546  16.596  0.3636 -0.4525 -1.1097
14242TIP3    H164217   2.227   5.612  16.527  1.6497  1.2824  0.5233
14242TIP3    H264218   2.132   5.547  16.625  0.6055  1.6040 -0.2550
14243TIP3   OH264219   0.057   5.682  12.309  0.3353  0.1046 -0.2382
14243TIP3    H164220   0.013   5.689  12.224  0.1059  1.1153 -0.0510
14243TIP3    H264221   0.120   5.612  12.298  0.8315  0.7250 -1.4833
14244TIP3   OH264222   2.110   6.253   0.540 -0.1636 -0.1413  0.4090
14244TIP3    H164223   2.190   6.299   0.513 -0.4020  0.7181  1.1116
14244TIP3    H264224   2.097   6.279   0.631 -1.4516  0.0394  0.1944
14245TIP3   OH264225   1.582   2.035  12.703 -0.1121  0.1682  0.1966
14245TIP3    H164226   1.523   2.106  12.730  0.4698 -0.2414  2.7114
14245TIP3    H264227   1.569   2.030  12.608 -2.2869  1.7168  0.3142
14246TIP3   OH264228   6.638   2.761   1.424  0.1808 -0.4349 -0.1513
14246TIP3    H164229   6.585   2.682   1.413 -1.8007  0.3079  2.8433
14246TIP3    H264230   6.587   2.829   1.380  1.3324 -0.5429 -1.7480
14247TIP3   OH264231   2.772   3.504   1.734  0.2265 -0.1042  0.3033
14247TIP3    H164232   2.829   3.516   1.810  1.5823 -0.1270 -0.6767
14247TIP3    H264233   2.787   3.412   1.709  1.7896  0.5810 -1.5020
14248TIP3   OH264234   5.279   6.537   1.189 -0.1446 -0.5275 -0.1449
14248TIP3    H164235   5.329   6.619   1.182 -1.5913  0.3687 -0.3223
14248TIP3    H264236   5.199   6.554   1.139 -2.2181 -0.7024  2.9044
14249TIP3   OH264237   4.368   3.744  16.825  0.4000 -0.7220 -0.4171
14249TIP3    H164238   4.363   3.831  16.865 -0.4493 -1.7280  1.8445
14249TIP3    H264239   4.302   3.745  16.756  1.6302  0.9444 -1.6821
14250TIP3   OH264240   1.857   0.369   2.479 -0.4028 -0.1779 -0.0264
14250TIP3    H164241   1.908   0.367   2.560  0.2175 -0.4563 -0.4158
14250TIP3    H264242   1.815   0.283   2.476 -0.0010 -0.3733 -0.2557
14251TIP3   OH264243   5.172   2.253  15.279 -0.2684 -0.3738  0.0705
14251TIP3    H164244   5.213   2.240  15.365  1.1632 -0.8915 -0.6634
14251TIP3    H264245   5.245   2.273  15.221 -1.1834 -0.3869 -1.1035
14252TIP3   OH264246   6.516   6.254   5.983  0.1858  0.4710  0.7924
14252TIP3    H164247   6.534   6.214   6.068  0.9392  0.0595  0.4442
14252TIP3    H264248   6.591   6.312   5.967  0.0036  0.6128  0.4423
14253TIP3   OH264249   5.505   0.344  12.996 -0.1650  0.2275  0.1473
14253TIP3    H164250   5.481   0.379  12.911  1.1125 -0.1087 -0.3763
14253TIP3    H264251   5.537   0.419  13.045  0.0310  0.2587 -0.0259
14254TIP3   OH264252   5.712   4.913   4.993  0.2658 -0.2052  0.1101
14254TIP3    H164253   5.707   4.877   4.904  0.9064 -1.0272  0.3946
14254TIP3    H264254   5.628   4.892   5.032  0.4773 -1.0458  0.1322
14255TIP3   OH264255   6.450   6.336   2.304  0.0506 -0.2643  0.3301
14255TIP3    H164256   6.393   6.401   2.344 -0.1525  1.4733 -2.4823
14255TIP3    H264257   6.535   6.381   2.297  0.1811 -0.6545 -0.7225
14256TIP3   OH264258   3.942   5.506   3.694 -1.1260  0.2413  0.0361
14256TIP3    H164259   3.906   5.436   3.640 -1.5395  0.3351  0.1883
14256TIP3    H264260   3.903   5.586   3.658 -0.3814  0.4380 -0.3701
14257TIP3   OH264261   6.267   2.618   0.879  0.4369 -0.3981  0.2300
14257TIP3    H164262   6.333   2.687   0.889 -1.2342  2.1811 -3.6464
14257TIP3    H264263   6.281   2.585   0.790 -2.2785 -1.0566 -0.0381
14258TIP3   OH264264   5.709   4.982   4.169 -0.0113 -0.2238  0.1646
14258TIP3    H164265   5.619   5.001   4.141  0.5132  1.4237 -0.5012
14258TIP3    H264266   5.763   5.012   4.096  1.2013  0.8692  1.4718
14259TIP3   OH264267   1.518   1.623  14.695  0.9624 -0.0919 -0.4938
14259TIP3    H164268   1.460   1.551  14.718  0.6880  0.3204  0.1513
14259TIP3    H264269   1.580   1.629  14.768  0.3019  1.0155  0.0033
14260TIP3   OH264270   1.543   1.779   0.552  0.1374  0.4081 -0.3006
14260TIP3    H164271   1.455   1.816   0.545  0.3228  0.5616 -3.5904
14260TIP3    H264272   1.534   1.690   0.517  1.3039  0.5057 -0.8853
14261TIP3   OH264273   1.782   1.740  16.301  0.0011 -0.2882  0.4027
14261TIP3    H164274   1.858   1.681  16.302 -1.8303 -2.8358  0.9155
14261TIP3    H264275   1.818   1.825  16.325  2.8980 -1.0402 -0.7866
14262TIP3   OH264276   3.040   3.699   0.448  0.5064  0.4024 -0.3941
14262TIP3    H164277   3.041   3.658   0.534  0.0633 -0.1738 -0.6630
14262TIP3    H264278   2.967   3.761   0.452 -0.3609 -0.5689 -0.7839
14263TIP3   OH264279   3.231   2.147   2.780  0.3909  0.1228  0.3317
14263TIP3    H164280   3.235   2.184   2.868 -0.1198 -1.0857  0.8956
14263TIP3    H264281   3.153   2.091   2.782  0.1607  0.3849 -1.0150
14264TIP3   OH264282   3.320   1.209  14.535  0.0281  0.0839 -0.3243
14264TIP3    H164283   3.384   1.275  14.510  1.6672 -1.8202 -1.4349
14264TIP3    H264284   3.356   1.168  14.614  0.4965 -1.3119 -1.2168
14265TIP3   OH264285   1.603   3.039  11.143  0.3589 -0.6102 -0.9439
14265TIP3    H164286   1.547   2.987  11.201  0.7294  0.0199  0.0120
14265TIP3    H264287   1.684   2.989  11.135 -0.0282 -1.1373 -1.6770
14266TIP3   OH264288   0.611   0.700  14.316 -0.4089 -0.5999 -0.0776
14266TIP3    H164289   0.668   0.748  14.256 -1.1418 -1.4779 -1.5388
14266TIP3    H264290   0.523   0.708  14.277 -0.8293 -1.5615  0.6331
14267TIP3   OH264291   1.683   3.914  15.028 -0.6582  0.3513  0.2926
14267TIP3    H164292   1.615   3.878  14.971  0.8859 -1.4825 -0.5358
14267TIP3    H264293   1.636   3.946  15.105 -2.4230 -1.1531 -0.0821
14268TIP3   OH264294   6.281   4.360   2.362 -0.3036  0.4139 -0.1898
14268TIP3    H164295   6.335   4.391   2.434 -0.2987  1.9453 -0.8180
14268TIP3    H264296   6.222   4.296   2.402  1.2175 -0.4611  0.7046
14269TIP3   OH264297   0.678   3.341  12.797  0.3416 -0.3564 -0.3398
14269TIP3    H164298   0.622   3.300  12.731  1.3367 -2.6084  0.1181
14269TIP3    H264299   0.725   3.410  12.748 -0.9000 -0.1627 -1.3111
14270TIP3   OH264300   1.579   0.228  16.099 -0.4416  0.7022  0.4383
14270TIP3    H164301   1.599   0.160  16.163 -0.2610  2.2274  2.0816
14270TIP3    H264302   1.484   0.224  16.087 -0.4037  0.0404  0.3569
14271TIP3   OH264303   1.569   6.292   0.350  0.0992 -0.1090  0.0737
14271TIP3    H164304   1.517   6.214   0.371 -0.8721  0.0313 -1.5811
14271TIP3    H264305   1.657   6.259   0.332 -0.0227 -0.6785  0.5203
14272TIP3   OH264306   4.027   2.910   4.145 -0.1866  0.0772  0.1976
14272TIP3    H164307   3.935   2.908   4.117  0.0112  0.7935 -0.5844
14272TIP3    H264308   4.064   2.829   4.110 -0.0818  0.6928 -1.2121
14273TIP3   OH264309   2.049   0.450  16.093 -0.0664  0.8074  0.0307
14273TIP3    H164310   2.073   0.359  16.075  1.4417  1.2189 -0.2280
14273TIP3    H264311   1.992   0.445  16.169  0.2541 -0.3368  0.2232
14274TIP3   OH264312   5.932   2.604  16.859  0.3388 -0.2268  0.2491
14274TIP3    H164313   5.981   2.525  16.877  0.7106  0.2003  1.1761
14274TIP3    H264314   5.992   2.660  16.810  1.0081  0.5224  1.8695
14275TIP3   OH264315   5.457   0.615   0.868  0.4006  0.0082  0.4139
14275TIP3    H164316   5.504   0.542   0.909 -0.5753  0.0760  1.7411
14275TIP3    H264317   5.416   0.576   0.791  0.1403 -0.7823  0.9347
14276TIP3   OH264318   6.501   3.506   5.126 -0.3243  0.5073 -0.0425
14276TIP3    H164319   6.487   3.589   5.079 -1.3743  0.6217  0.4311
14276TIP3    H264320   6.508   3.532   5.218  2.0592  0.3172 -0.1134
14277TIP3   OH264321   0.200   4.008   0.316 -0.0990  0.3966 -1.2365
14277TIP3    H164322   0.139   3.935   0.303  0.6607 -0.1990 -1.5410
14277TIP3    H264323   0.286   3.970   0.298  0.1343  1.9395 -3.8556
14278TIP3   OH264324   1.827   4.990  16.496 -0.1496 -0.3261 -0.1876
14278TIP3    H164325   1.832   4.937  16.417 -1.2097  0.3429 -0.7227
14278TIP3    H264326   1.881   5.066  16.478 -0.6868  0.0053 -0.4213
14279TIP3   OH264327   3.951   0.061   0.288  0.4944  0.1665 -0.3904
14279TIP3    H164328   4.038   0.042   0.322 -0.0743 -1.9253  0.0131
14279TIP3    H264329   3.895   0.069   0.365 -0.0597 -0.6455 -0.6898
14280TIP3   OH264330   2.883   5.979  16.512  0.3639 -0.0138  0.5941
14280TIP3    H164331   2.950   5.995  16.579 -0.0849  0.2483  0.9866
14280TIP3    H264332   2.817   6.046  16.529  0.0674 -0.1858  0.1200
14281TIP3   OH264333   5.739   1.192  11.927 -0.5750  0.0788  0.1465
14281TIP3    H164334   5.727   1.236  11.843  0.1447  1.7351  0.8642
14281TIP3    H264335   5.654   1.153  11.946 -1.3527  1.4489 -0.3791
14282TIP3   OH264336   5.507   5.291  14.132  0.0216  0.2923  0.0550
14282TIP3    H164337   5.436   5.244  14.177 -0.4723  0.4407 -0.5433
14282TIP3    H264338   5.500   5.263  14.041  0.8582  0.1735  0.0208
14283TIP3   OH264339   2.231   2.242  14.784 -0.1909  0.2965 -0.6698
14283TIP3    H164340   2.183   2.316  14.747  0.3238  0.4524 -1.0436
14283TIP3    H264341   2.166   2.172  14.791 -1.0527  1.2066  1.0761
14284TIP3   OH264342   3.363   0.036   3.056 -0.5156 -0.4816  0.2964
14284TIP3    H164343   3.281  -0.012   3.074 -2.2632  1.7468 -1.1510
14284TIP3    H264344   3.364   0.045   2.961  1.8648 -1.0678  0.2201
14285TIP3   OH264345   4.895   5.028  15.479  0.0866  0.1514  0.5679
14285TIP3    H164346   4.957   5.101  15.487  2.4603 -1.7255  0.7282
14285TIP3    H264347   4.927   4.963  15.542 -2.5429 -0.6799  1.1792
14286TIP3   OH264348   5.603   2.539  12.161 -0.1475 -0.6939  0.1692
14286TIP3    H164349   5.558   2.568  12.081 -0.2348  0.7133  0.7023
14286TIP3    H264350   5.652   2.461  12.134  0.5389  0.2627 -1.4690
14287TIP3   OH264351   2.728   0.214  14.316 -0.2687 -0.0571 -0.0832
14287TIP3    H164352   2.728   0.168  14.401  0.2860 -0.2638 -0.1899
14287TIP3    H264353   2.742   0.144  14.252  0.6257  0.2584 -0.2453
14288TIP3   OH264354   6.708   6.455  12.797  0.1738 -0.6467 -0.1724
14288TIP3    H164355   6.754   6.374  12.820  1.7643  0.2259 -0.1372
14288TIP3    H264356   6.735   6.472  12.707 -0.9729 -0.6668 -0.5426
14289TIP3   OH264357   1.336   2.224  16.462 -0.0613  0.3960  0.2023
14289TIP3    H164358   1.266   2.256  16.519  0.3346 -0.2436  1.0706
14289TIP3    H264359   1.361   2.140  16.500 -0.3252 -0.4494 -1.3721
14290TIP3   OH264360   3.596   0.692  12.254  0.4731 -0.2188  0.3272
14290TIP3    H164361   3.616   0.693  12.347  0.9940 -0.7950  0.2365
14290TIP3    H264362   3.516   0.641  12.246 -1.0109  1.9482  0.6843
14291TIP3   OH264363   2.240   1.336  15.439  0.1048 -0.4772 -0.2722
14291TIP3    H164364   2.204   1.253  15.472  0.7882 -1.1839 -1.2625
14291TIP3    H264365   2.162   1.387  15.415 -0.3655 -0.4176  1.2236
14292TIP3   OH264366   3.455   1.889   4.690 -0.7827  0.4679  0.1014
14292TIP3    H164367   3.443   1.960   4.627 -0.3081  0.8484  0.4339
14292TIP3    H264368   3.401   1.914   4.765 -0.1878  0.7439  0.4358
14293TIP3   OH264369   0.537   0.913  15.256  0.2719  0.3204 -0.2458
14293TIP3    H164370   0.480   0.841  15.282 -0.5949  0.6494 -1.1617
14293TIP3    H264371   0.485   0.992  15.270  0.4678  0.6241 -1.1182
14294TIP3   OH264372   2.554   4.969  13.182 -0.0624  0.6221 -0.4080
14294TIP3    H164373   2.528   5.044  13.236  0.4824  0.3823  0.1956
14294TIP3    H264374   2.574   4.900  13.245 -2.1735 -0.5987 -0.9622
14295TIP3   OH264375   0.132   3.400  15.909 -0.7371 -0.4391 -0.5045
14295TIP3    H164376   0.186   3.417  15.832 -2.9803  1.1767 -1.8909
14295TIP3    H264377   0.138   3.481  15.961  0.4353 -1.3619  0.8468
14296TIP3   OH264378   1.754   6.812  17.086  0.0864  0.4273  0.2224
14296TIP3    H164379   1.752   6.742  17.021 -0.2753  2.7350 -2.4175
14296TIP3    H264380   1.844   6.844  17.083 -0.0293  0.7940  0.5929
14297TIP3   OH264381   0.068   1.716   2.958 -0.7298  0.1041  0.7883
14297TIP3    H164382   0.147   1.684   3.002  0.0291 -0.0414 -0.6344
14297TIP3    H264383   0.010   1.742   3.029  1.0138  1.2374  1.8608
14298TIP3   OH264384   6.371   0.343   1.733  0.1890 -0.3048  0.3313
14298TIP3    H164385   6.455   0.386   1.715 -0.1786 -0.2559 -1.4016
14298TIP3    H264386   6.385   0.252   1.707 -0.7096  0.0189 -1.4426
14299TIP3   OH264387   1.171   3.899  12.701 -0.0383  0.5796  0.5117
14299TIP3    H164388   1.257   3.941  12.700 -0.2648  1.0857 -1.6033
14299TIP3    H264389   1.153   3.878  12.610 -0.6095 -2.8464  1.2477
14300TIP3   OH264390   0.357   0.552   5.928  0.0508 -0.1209  0.1120
14300TIP3    H164391   0.383   0.464   5.902 -1.8827 -0.8079  0.3652
14300TIP3    H264392   0.291   0.578   5.864 -0.8581  0.3083  1.1813
14301TIP3   OH264393   6.228   2.234   0.988  0.7273  0.1871  0.5645
14301TIP3    H164394   6.316   2.199   1.006  2.1957  1.9859 -2.3603
14301TIP3    H264395   6.226   2.318   1.034  1.3529  1.0135 -0.8335
14302TIP3   OH264396   5.272   5.692  14.440 -0.8012 -0.6807 -0.3164
14302TIP3    H164397   5.206   5.624  14.453 -0.1019 -1.3550 -0.2716
14302TIP3    H264398   5.348   5.646  14.406 -0.0515 -0.0494  0.4512
14303TIP3   OH264399   6.136   3.030   5.505  0.6113 -0.4156 -0.1035
14303TIP3    H164400   6.070   3.053   5.440  0.3121 -1.4250 -0.1709
14303TIP3    H264401   6.150   3.111   5.554 -1.2183 -0.3631  0.3952
14304TIP3   OH264402   1.954   4.727   5.764  0.1022 -0.0080  0.0596
14304TIP3    H164403   1.955   4.688   5.852 -0.2313 -0.4548 -0.1326
14304TIP3    H264404   2.005   4.808   5.773 -2.3664  1.5212  1.3897
14305TIP3   OH264405   3.722   1.243  16.396 -0.0344  0.2239  0.1251
14305TIP3    H164406   3.774   1.276  16.322 -2.4152  0.4237 -1.5797
14305TIP3    H264407   3.706   1.151  16.375  0.4576 -0.1154  1.1664
14306TIP3   OH264408   1.967   5.916  14.956  0.6318  0.4528  0.0748
14306TIP3    H164409   1.957   5.918  14.861  1.4285  3.7763 -0.0602
14306TIP3    H264410   1.885   5.879  14.988  0.0456 -0.0196 -1.8513
14307TIP3   OH264411   0.108   0.862   5.428 -0.1313 -0.2528 -0.0851
14307TIP3    H164412   0.095   0.950   5.462 -0.2114  0.2008 -1.2404
14307TIP3    H264413   0.034   0.812   5.462 -0.0761  0.1061  0.5938
14308TIP3   OH264414   3.908   1.230   1.731 -0.5771  0.0867  0.2463
14308TIP3    H164415   3.909   1.242   1.826 -1.0281  1.1657  0.1254
14308TIP3    H264416   3.859   1.305   1.698  0.9139  0.5778 -0.9592
14309TIP3   OH264417   5.466   6.579  15.635 -0.0214  0.1581 -0.0446
14309TIP3    H164418   5.510   6.637  15.572 -1.2690  0.7631 -0.3820
14309TIP3    H264419   5.441   6.503  15.583 -3.3818  1.7528 -1.0235
14310TIP3   OH264420   3.648   1.104  14.197 -0.4808 -0.0461 -0.2526
14310TIP3    H164421   3.633   1.033  14.260  0.2953  0.4316  0.4913
14310TIP3    H264422   3.690   1.173  14.248  0.4367  0.2466 -1.3642
14311TIP3   OH264423   4.915   4.191  15.332 -0.9868 -0.8241 -0.8156
14311TIP3    H164424   4.954   4.104  15.338 -0.6840 -0.7770 -1.9669
14311TIP3    H264425   4.853   4.195  15.405 -1.5621 -2.2834 -1.2069
14312TIP3   OH264426   4.264   1.293  11.548 -0.7426  0.2709 -0.5115
14312TIP3    H164427   4.338   1.274  11.489 -0.2834  0.2899  0.0431
14312TIP3    H264428   4.296   1.266  11.634 -0.6871  1.9821  0.0400
14313TIP3   OH264429   3.501   4.016  14.529  0.0198 -0.1409 -0.2816
14313TIP3    H164430   3.591   3.985  14.518  0.8562  1.5066  1.4343
14313TIP3    H264431   3.464   3.959  14.596  0.0629 -0.2907 -0.3850
14314TIP3   OH264432   2.863   1.126   3.441  0.4537  0.2277 -0.4933
14314TIP3    H164433   2.850   1.212   3.402 -0.9426  1.0438  1.6238
14314TIP3    H264434   2.792   1.072   3.405  0.8699  0.1511 -1.2238
14315TIP3   OH264435   5.648   6.296   1.866 -0.2494  0.2027  0.1583
14315TIP3    H164436   5.710   6.229   1.836  0.4535 -0.0895  2.1028
14315TIP3    H264437   5.644   6.359   1.794 -0.3808 -1.5572 -1.4225
14316TIP3   OH264438   3.248   1.120  16.432 -1.0088 -0.1749 -0.1115
14316TIP3    H164439   3.258   1.062  16.357 -1.3515  0.7752 -0.9189
14316TIP3    H264440   3.181   1.183  16.405 -0.7725  0.4941  0.8000
14317TIP3   OH264441   5.035   4.489  13.474 -0.3068  0.2046 -0.3225
14317TIP3    H164442   5.118   4.509  13.516 -0.2440  0.6561 -0.6539
14317TIP3    H264443   5.039   4.395  13.455 -1.2823 -0.5756  2.7546
14318TIP3   OH264444   2.574   0.013  16.164 -0.0118  0.1144  0.1784
14318TIP3    H164445   2.598   0.102  16.135 -0.7023  0.4152  0.5090
14318TIP3    H264446   2.634  -0.006  16.236  0.3726  0.1692 -0.1234
14319TIP3   OH264447   4.402   5.906   0.662  0.2147 -0.7056 -0.7965
14319TIP3    H164448   4.335   5.914   0.729  0.8672  1.4638 -0.3032
14319TIP3    H264449   4.481   5.879   0.710  0.5449  0.3068 -0.7403
14320TIP3   OH264450   1.413   5.970  15.315 -0.8228  0.2543 -0.3461
14320TIP3    H164451   1.372   5.980  15.229 -3.2910  0.7476  0.8274
14320TIP3    H264452   1.441   6.058  15.339  1.1643 -0.0823 -1.1608
14321TIP3   OH264453   6.227   4.738   5.112 -0.3724  0.0059  0.5358
14321TIP3    H164454   6.270   4.821   5.130 -0.2991 -0.4031  2.4605
14321TIP3    H264455   6.298   4.677   5.091 -0.2380 -0.0343  1.0938
14322TIP3   OH264456   0.407   3.857   5.429 -0.3825 -0.2036 -0.2616
14322TIP3    H164457   0.430   3.816   5.513  0.2132  1.7669  0.6113
14322TIP3    H264458   0.312   3.867   5.433 -0.6377 -2.0367 -0.7996
14323TIP3   OH264459   4.998   2.860   5.310  0.5345  0.3926 -0.1268
14323TIP3    H164460   4.919   2.816   5.281  1.1761 -1.1616  0.3512
14323TIP3    H264461   5.065   2.792   5.309  1.8382  1.6307 -0.3938
14324TIP3   OH264462   5.040   0.438   0.682  0.0214 -0.1094  0.6710
14324TIP3    H164463   5.037   0.426   0.777  0.5788  0.4499  0.7656
14324TIP3    H264464   4.949   0.449   0.656 -0.0692  0.6367  1.2724
14325TIP3   OH264465   5.911   3.190   4.688  0.1533 -0.7078 -0.0810
14325TIP3    H164466   5.869   3.161   4.769  1.8407  1.9561  1.9437
14325TIP3    H264467   6.001   3.157   4.695  1.2234  2.1197  0.8037
14326TIP3   OH264468   2.964   0.824   1.229  0.7441  0.4348  0.4863
14326TIP3    H164469   2.874   0.832   1.196  0.9208 -0.3214 -0.2389
14326TIP3    H264470   3.011   0.781   1.157  1.9907  1.9747  0.3492
14327TIP3   OH264471   5.072   3.484  14.624 -0.5022  0.7013 -0.2024
14327TIP3    H164472   5.096   3.451  14.710 -0.6242 -0.8165 -0.7238
14327TIP3    H264473   5.155   3.494  14.578 -0.5844 -2.4446 -1.2577
14328TIP3   OH264474   2.731   3.022   3.835  0.1042  0.0126  0.2862
14328TIP3    H164475   2.725   2.950   3.773 -0.1797  1.1515 -1.0703
14328TIP3    H264476   2.786   2.989   3.906 -1.0278 -1.9276  0.3202
14329TIP3   OH264477   1.999   3.443  12.457 -0.0883 -0.3316 -0.5337
14329TIP3    H164478   2.061   3.389  12.507 -0.2422  0.5423  0.6443
14329TIP3    H264479   1.927   3.383  12.436  0.7293 -1.1243 -1.1507
14330TIP3   OH264480   3.874   0.040  11.850 -0.1385  0.1557  0.5477
14330TIP3    H164481   3.852   0.081  11.934  2.1969  1.0646  0.7849
14330TIP3    H264482   3.820  -0.039  11.848 -3.5418  2.2666  0.8622
14331TIP3   OH264483   2.634   3.984   1.482  0.0980 -0.0716  0.3142
14331TIP3    H164484   2.696   3.956   1.415 -0.1305  0.8923 -0.3197
14331TIP3    H264485   2.687   3.995   1.561  0.6043  0.0105 -0.0310
14332TIP3   OH264486   5.636   1.821  13.864 -0.0169 -0.2024  0.0337
14332TIP3    H164487   5.557   1.827  13.810 -0.3700 -0.5481  0.5057
14332TIP3    H264488   5.705   1.799  13.803 -0.4153 -0.5961 -0.2813
14333TIP3   OH264489   6.792   3.444   2.164  0.3695 -0.2869 -0.3283
14333TIP3    H164490   6.717   3.471   2.111  1.1686  0.1651 -1.2574
14333TIP3    H264491   6.754   3.386   2.231 -1.0491  1.1697  0.2172
14334TIP3   OH264492   1.511   0.602  16.323  0.0189  0.4066 -0.2381
14334TIP3    H164493   1.452   0.652  16.267 -0.2810  0.2748 -0.0435
14334TIP3    H264494   1.562   0.548  16.263  1.1813  1.8011 -0.5489
14335TIP3   OH264495   3.950   6.645   1.581 -0.0106  0.1295  0.1956
14335TIP3    H164496   3.983   6.609   1.498  0.4723  2.9637 -0.9682
14335TIP3    H264497   3.858   6.665   1.564  0.2045  1.1465  0.1220
14336TIP3   OH264498   2.429   5.631   3.628 -0.2936 -0.3618  0.0853
14336TIP3    H164499   2.393   5.664   3.546  1.6427  0.9851 -0.2752
14336TIP3    H264500   2.406   5.697   3.693  0.1470 -0.3013  0.1793
14337TIP3   OH264501   1.633   0.144  12.596 -0.1432  0.0276  0.6008
14337TIP3    H164502   1.705   0.199  12.627 -0.9123  1.2650  0.2582
14337TIP3    H264503   1.615   0.084  12.668  1.7315 -0.8338  0.3991
14338TIP3   OH264504   5.858   1.855   3.251  0.2405 -0.5017  0.2332
14338TIP3    H164505   5.872   1.879   3.159  0.5445 -1.8541 -0.0947
14338TIP3    H264506   5.944   1.825   3.281  0.0686 -0.3592  0.8809
14339TIP3   OH264507   4.325   3.713   1.938  0.2731  0.6057 -0.3112
14339TIP3    H164508   4.368   3.789   1.976  0.7512  0.1708  0.0253
14339TIP3    H264509   4.233   3.738   1.933  0.0791  0.4484  1.7318
14340TIP3   OH264510   3.667   1.552  16.417  0.0461  0.4388  0.0255
14340TIP3    H164511   3.585   1.549  16.368 -1.6207 -0.8128  2.6587
14340TIP3    H264512   3.709   1.468  16.399  0.6311  0.9435 -1.0559
14341TIP3   OH264513   6.086   3.488  16.517 -0.4259  0.2396 -0.5842
14341TIP3    H164514   6.102   3.517  16.428 -0.5888  0.3344 -0.5831
14341TIP3    H264515   5.995   3.514  16.535 -0.8328 -0.9383 -0.8421
14342TIP3   OH264516   2.577   1.326   1.366 -0.0042 -0.5679 -0.1574
14342TIP3    H164517   2.566   1.281   1.282  1.4285 -1.2685  0.0117
14342TIP3    H264518   2.582   1.419   1.343  2.1740 -0.8520 -1.0824
14343TIP3   OH264519   0.796   2.905  15.670  0.4766  0.2446  0.5181
14343TIP3    H164520   0.812   2.818  15.706  0.1333 -0.1710 -0.3069
14343TIP3    H264521   0.761   2.955  15.744 -0.2117 -0.5853  0.7708
14344TIP3   OH264522   4.750   5.366  13.447 -0.4045  0.1033  0.0744
14344TIP3    H164523   4.682   5.348  13.382  1.6277 -1.3333 -1.8130
14344TIP3    H264524   4.832   5.348  13.401  1.2089  0.2488  2.7023
14345TIP3   OH264525   5.847   3.759  15.134  0.6324 -0.4543  0.0522
14345TIP3    H164526   5.862   3.681  15.188 -0.8891 -0.1846  0.9545
14345TIP3    H264527   5.832   3.829  15.198  1.1712  0.4072 -0.7478
14346TIP3   OH264528   3.697   2.609   0.471  0.1400  0.2768  0.3252
14346TIP3    H164529   3.650   2.674   0.523  1.1276 -0.6526  2.5017
14346TIP3    H264530   3.780   2.651   0.447  0.1043  0.3629  0.3566
14347TIP3   OH264531   0.700   1.404   5.488 -0.2822  0.1862  0.1489
14347TIP3    H164532   0.686   1.492   5.523  1.3425  0.5613 -0.0833
14347TIP3    H264533   0.753   1.417   5.409 -0.4077 -0.9746 -0.1518
14348TIP3   OH264534   0.826   6.782   0.708  0.6980 -0.1408 -0.2348
14348TIP3    H164535   0.814   6.717   0.777  1.5141  0.4175  0.4518
14348TIP3    H264536   0.739   6.794   0.670  0.4169 -1.1162  0.0928
14349TIP3   OH264537   1.412   1.892  11.405 -0.4744  0.7950 -0.4963
14349TIP3    H164538   1.507   1.883  11.392 -0.2207  1.5160  0.6448
14349TIP3    H264539   1.400   1.880  11.499 -1.1944  3.0732 -0.2448
14350TIP3   OH264540   3.052   6.287   4.804 -0.6559 -0.2446 -0.3437
14350TIP3    H164541   3.038   6.203   4.761 -1.5216 -1.4681  2.1456
14350TIP3    H264542   3.101   6.266   4.883 -1.1463  1.5456  0.4869
14351TIP3   OH264543   0.307   2.381   2.430 -0.0488  0.3116 -0.2994
14351TIP3    H164544   0.331   2.471   2.452 -1.0615  0.8528 -1.2463
14351TIP3    H264545   0.383   2.347   2.383  0.5986  0.4451  0.6355
14352TIP3   OH264546   2.499   3.324  10.872  0.1615 -0.2002 -0.1804
14352TIP3    H164547   2.594   3.335  10.881  0.3419 -0.5744 -1.4386
14352TIP3    H264548   2.487   3.232  10.849 -0.6495 -0.5384  1.4052
14353TIP3   OH264549   3.463   1.051   0.755 -0.8417 -0.0640 -0.0052
14353TIP3    H164550   3.522   1.119   0.720 -0.7044 -1.2079 -2.1424
14353TIP3    H264551   3.482   0.974   0.702 -1.6245 -1.5583  1.7882
14354TIP3   OH264552   1.921   6.040   0.090  0.3769  0.0936 -0.1268
14354TIP3    H164553   1.867   5.989   0.030 -0.6525  3.0026 -1.8636
14354TIP3    H264554   1.960   6.108   0.036  1.9163  0.9991  1.9821
14355TIP3   OH264555   4.345   2.415  12.314  0.0148 -0.5517  0.1309
14355TIP3    H164556   4.379   2.413  12.225 -2.4537  2.1456 -1.0421
14355TIP3    H264557   4.397   2.481  12.358  1.0237 -1.6579  0.6445
14356TIP3   OH264558   0.253   4.230   1.757  0.4082  0.4384  0.4806
14356TIP3    H164559   0.237   4.136   1.762 -1.3177  0.6956  0.3674
14356TIP3    H264560   0.218   4.265   1.838  0.9995  0.9956  0.5038
14357TIP3   OH264561   1.625   3.889  13.198 -0.0275  0.7252  1.0412
14357TIP3    H164562   1.609   3.981  13.174 -0.6680  0.0414 -1.5516
14357TIP3    H264563   1.719   3.884  13.211  0.3108  1.4120 -0.7918
14358TIP3   OH264564   0.534   0.819  12.149  0.0955 -0.1539 -0.3338
14358TIP3    H164565   0.454   0.853  12.188  0.4565 -1.0997  1.3127
14358TIP3    H264566   0.586   0.896  12.129 -0.6280  0.3987 -0.1308
14359TIP3   OH264567   6.637   1.372  16.854 -0.4330  0.3450 -0.2471
14359TIP3    H164568   6.623   1.330  16.939 -0.1082  0.6918 -0.0161
14359TIP3    H264569   6.720   1.419  16.865 -0.2297  0.1314 -0.8590
14360TIP3   OH264570   3.064   0.430  13.894  0.0963  0.2556 -0.0374
14360TIP3    H164571   3.112   0.395  13.819  1.5957  1.2319  0.4286
14360TIP3    H264572   3.100   0.384  13.970 -0.5666  0.1368  0.2171
14361TIP3   OH264573   5.638   3.002   6.351  0.4501  0.5939 -0.4710
14361TIP3    H164574   5.643   2.949   6.430  0.4170  0.0105 -0.8563
14361TIP3    H264575   5.705   2.966   6.293  0.4064  0.9544 -0.7527
14362TIP3   OH264576   2.863   6.595   2.168 -0.5347 -0.8835 -0.2503
14362TIP3    H164577   2.774   6.628   2.168 -0.5219 -0.5708  2.6846
14362TIP3    H264578   2.860   6.517   2.223  1.1019 -0.4546  0.5160
14363TIP3   OH264579   5.672   5.446  12.938 -0.9073  0.0639 -0.2182
14363TIP3    H164580   5.688   5.389  13.013 -3.8920 -0.9123 -0.1617
14363TIP3    H264581   5.703   5.397  12.862 -1.0964 -0.5159  0.0744
14364TIP3   OH264582   0.391   2.425  13.397  0.2960 -0.2541 -0.1580
14364TIP3    H164583   0.329   2.454  13.464 -0.4187  0.5018 -1.1204
14364TIP3    H264584   0.474   2.466  13.422  0.3261 -0.9076  0.8882
14365TIP3   OH264585   2.161   6.565  12.780 -0.0423  0.2056  0.1138
14365TIP3    H164586   2.254   6.559  12.760  0.0838 -1.1221  1.0358
14365TIP3    H264587   2.152   6.526  12.866 -1.2281  1.7906  0.7550
14366TIP3   OH264588   5.198   5.802   1.530 -0.3540 -0.0646  0.6692
14366TIP3    H164589   5.121   5.857   1.544 -0.3249  0.4612 -1.0581
14366TIP3    H264590   5.272   5.860   1.546 -0.2631 -0.6895  2.7870
14367TIP3   OH264591   0.719   0.441   4.542 -0.4852  0.0287 -0.1848
14367TIP3    H164592   0.671   0.434   4.459  1.6807  0.2574 -1.5196
14367TIP3    H264593   0.765   0.358   4.551 -0.9112 -0.0971  0.9494
14368TIP3   OH264594   2.429   1.438  16.113  0.0484 -0.8711 -0.1508
14368TIP3    H164595   2.490   1.472  16.179 -1.9960  2.4656  0.2552
14368TIP3    H264596   2.467   1.466  16.029 -0.2623  0.1885  0.0373
14369TIP3   OH264597   3.089   3.384  17.087  0.5597  0.0864 -0.3694
14369TIP3    H164598   3.033   3.405  17.161  0.8922 -0.1034 -0.0584
14369TIP3    H264599   3.141   3.309  17.117 -0.0142 -0.6464 -1.1533
14370TIP3   OH264600   4.548   4.741   4.267  0.1271 -0.2579 -0.0168
14370TIP3    H164601   4.509   4.675   4.210  0.2538 -0.3551  0.0076
14370TIP3    H264602   4.616   4.693   4.315  1.5553  0.3051 -1.3909
14371TIP3   OH264603   0.794   4.939  12.781  0.0421  0.5440  0.3743
14371TIP3    H164604   0.763   4.950  12.871  0.2183  1.6883  0.3174
14371TIP3    H264605   0.852   5.014  12.767  0.5583  0.0015 -0.4704
14372TIP3   OH264606   4.868   4.236  14.120  0.3070  0.1080 -0.6578
14372TIP3    H164607   4.824   4.156  14.093 -0.7095  0.3415  0.2453
14372TIP3    H264608   4.809   4.307  14.094  0.2739  0.4446  0.2970
14373TIP3   OH264609   3.197   3.563   4.792  0.2375 -0.6711  0.7424
14373TIP3    H164610   3.249   3.487   4.766 -1.0186 -1.0365 -0.8607
14373TIP3    H264611   3.219   3.631   4.728 -0.9790 -0.7348  0.2301
14374TIP3   OH264612   1.115   2.995  14.372 -0.5156  0.2158  0.2846
14374TIP3    H164613   1.199   2.977  14.330 -0.5381 -0.8486  0.6781
14374TIP3    H264614   1.098   3.087  14.352 -0.2212 -0.0783 -1.4915
14375TIP3   OH264615   2.967   4.290   2.602  0.6140  0.8518  0.1457
14375TIP3    H164616   2.985   4.300   2.508 -2.1235  0.5787 -0.4839
14375TIP3    H264617   2.928   4.374   2.627  0.9796  0.7812  0.9890
14376TIP3   OH264618   6.811   2.544   4.092  0.0740  0.4784 -0.2940
14376TIP3    H164619   6.777   2.533   4.181 -0.2199 -0.4034 -0.5061
14376TIP3    H264620   6.743   2.594   4.047 -0.3042 -0.0567 -0.3273
14377TIP3   OH264621   3.139   4.357  15.203 -0.4128  0.3270  0.0656
14377TIP3    H164622   3.122   4.449  15.225  0.2774  0.3482  0.5432
14377TIP3    H264623   3.053   4.322  15.179 -0.9250  0.7399  1.2299
14378TIP3   OH264624   1.043   4.955  11.360 -0.5710 -0.5333  0.7092
14378TIP3    H164625   0.974   5.020  11.375  0.9273  1.4346 -0.4401
14378TIP3    H264626   1.103   4.966  11.434  0.3720  0.3973 -0.1547
14379TIP3   OH264627   4.639   0.202   1.179 -0.2747 -0.1467  0.0732
14379TIP3    H164628   4.722   0.242   1.153  0.3672 -1.1424  0.5284
14379TIP3    H264629   4.579   0.221   1.107  0.8964 -1.1419 -1.2030
14380TIP3   OH264630   1.209   0.431  16.771  0.0032  0.0173  0.2396
14380TIP3    H164631   1.293   0.431  16.726  0.1954 -2.0944  0.5194
14380TIP3    H264632   1.222   0.373  16.847 -1.2446  0.9343  1.2045
14381TIP3   OH264633   6.057   2.462  11.137  0.1356  0.7411  0.3316
14381TIP3    H164634   5.968   2.460  11.100 -0.0690 -1.5751  0.8138
14381TIP3    H264635   6.113   2.480  11.061 -0.4596 -1.6504 -0.7665
14382TIP3   OH264636   4.062   3.562  10.910 -0.2366  0.0354 -0.3793
14382TIP3    H164637   4.052   3.509  10.831 -1.7423  0.2931 -0.3854
14382TIP3    H264638   4.156   3.559  10.929  0.0524 -0.5789 -1.7885
14383TIP3   OH264639   0.517   3.299  15.123 -0.0640 -0.4226 -0.1106
14383TIP3    H164640   0.586   3.364  15.137  0.4817 -1.1221  0.4615
14383TIP3    H264641   0.517   3.285  15.028 -1.6425  1.9752 -0.5678
14384TIP3   OH264642   6.636   6.060   3.584 -0.1231  0.4167  0.4237
14384TIP3    H164643   6.704   6.052   3.517 -0.0872 -0.1484  0.5266
14384TIP3    H264644   6.614   6.153   3.584 -0.3057  0.3835 -0.5490
14385TIP3   OH264645   1.589   4.988   2.971  0.7914  0.1668 -0.8430
14385TIP3    H164646   1.582   4.907   2.921  0.5952 -1.3871  1.5195
14385TIP3    H264647   1.500   5.024   2.972  0.5982 -0.3121 -0.7835
14386TIP3   OH264648   3.007   2.201   6.253 -0.2705 -0.3439  0.1995
14386TIP3    H164649   2.985   2.238   6.339  1.5365 -0.8069  0.9041
14386TIP3    H264650   3.017   2.107   6.270 -2.2887 -0.8404 -1.0472
14387TIP3   OH264651   5.923   2.343  14.713 -0.3014 -0.1397 -0.5084
14387TIP3    H164652   5.954   2.432  14.732 -0.2090  0.1272 -1.8501
14387TIP3    H264653   5.858   2.355  14.644 -0.4241 -1.1017 -0.5656
14388TIP3   OH264654   6.563   4.151  15.307 -0.3022 -0.8567  0.5468
14388TIP3    H164655   6.560   4.064  15.267 -1.7166  0.3803 -2.3531
14388TIP3    H264656   6.656   4.171  15.314  0.0747 -2.8779  2.0778
14389TIP3   OH264657   2.208   0.539   2.619  0.8956 -0.1029 -0.1367
14389TIP3    H164658   2.125   0.587   2.615 -0.1744 -1.6538  1.3497
14389TIP3    H264659   2.205   0.480   2.543  0.5998 -0.1578 -0.0877
14390TIP3   OH264660   2.878   2.822  14.532  0.2617 -0.0011 -0.1196
14390TIP3    H164661   2.829   2.839  14.452 -2.2328 -1.1354  1.0359
14390TIP3    H264662   2.958   2.874  14.523 -1.5875  2.8869 -1.7262
14391TIP3   OH264663   6.785   3.569   5.482  0.4593 -0.3204  0.6086
14391TIP3    H164664   6.872   3.544   5.449  0.5282 -1.0617  1.3213
14391TIP3    H264665   6.797   3.577   5.576  0.0493  0.8675  0.5738
14392TIP3   OH264666   5.243   0.832   4.601  0.5459  0.3670  0.5548
14392TIP3    H164667   5.166   0.777   4.597  1.3604 -0.7379 -0.9531
14392TIP3    H264668   5.311   0.782   4.556  1.8609  1.7535  0.9003
14393TIP3   OH264669   4.823   5.750   0.158  0.0041 -0.2093 -0.0270
14393TIP3    H164670   4.790   5.716   0.074 -0.7398  0.0117  0.1681
14393TIP3    H264671   4.833   5.673   0.213 -1.1230 -0.1894  0.2245
14394TIP3   OH264672   5.915   3.433  14.987  0.1075  0.2018  0.2474
14394TIP3    H164673   5.995   3.405  15.031  0.3912 -0.5764 -0.7467
14394TIP3    H264674   5.889   3.512  15.035  2.5686  1.6742 -0.6356
14395TIP3   OH264675   4.381   4.634   3.291  0.5318  0.0997 -0.0279
14395TIP3    H164676   4.430   4.716   3.282  2.6696 -1.1422 -0.1817
14395TIP3    H264677   4.364   4.606   3.201 -1.3155  0.9326  0.0006
14396TIP3   OH264678   1.328   5.746  15.487 -0.3466 -0.5048 -0.2850
14396TIP3    H164679   1.382   5.783  15.418 -0.9648 -2.7583 -2.0972
14396TIP3    H264680   1.245   5.793  15.480 -0.0836 -0.0573 -0.4287
14397TIP3   OH264681   3.560   4.771  14.428  0.2281  0.3763 -0.0311
14397TIP3    H164682   3.655   4.759  14.430  0.2070  0.2091 -0.0673
14397TIP3    H264683   3.524   4.683  14.423  0.0437  0.3825  1.0376
14398TIP3   OH264684   3.843   4.443  16.291  0.6332 -0.3317 -0.0660
14398TIP3    H164685   3.793   4.520  16.264  3.0257  1.0680 -0.7935
14398TIP3    H264686   3.835   4.382  16.218  2.4840  1.1920 -1.6814
14399TIP3   OH264687   2.718   1.206  15.271 -0.2213  0.7186  0.2701
14399TIP3    H164688   2.636   1.233  15.230 -0.1556 -0.9285 -1.0483
14399TIP3    H264689   2.777   1.190  15.198  1.6515  2.7972  1.2109
14400TIP3   OH264690   0.816   1.361  12.255  0.1139  0.0726 -0.0512
14400TIP3    H164691   0.903   1.379  12.220 -0.2574  0.1701 -0.9780
14400TIP3    H264692   0.795   1.438  12.308  0.3118  0.3753 -0.4038
14401TIP3   OH264693   1.170   4.153  13.974  0.2022 -0.4233  0.3657
14401TIP3    H164694   1.260   4.139  14.003  0.0571 -0.7077  0.6928
14401TIP3    H264695   1.170   4.241  13.937  1.0643 -1.1177 -1.4412
14402TIP3   OH264696   3.849   1.224   0.131 -0.1676  0.3236  0.3359
14402TIP3    H164697   3.935   1.194   0.103 -0.6202  0.7937 -1.6794
14402TIP3    H264698   3.789   1.155   0.104 -0.5690  0.5553  0.6183
14403TIP3   OH264699   5.776   4.329  15.359  0.2817  0.0687 -0.1088
14403TIP3    H164700   5.748   4.374  15.279 -0.7255 -0.6165 -0.1471
14403TIP3    H264701   5.872   4.326  15.352  0.2121  0.0899 -1.2432
14404TIP3   OH264702   6.526   4.301  11.048 -0.3460  0.7694 -0.1439
14404TIP3    H164703   6.535   4.212  11.015  0.4065  2.0841 -4.1742
14404TIP3    H264704   6.435   4.325  11.028  0.0767  1.5457 -1.2714
14405TIP3   OH264705   2.129   5.963  17.240  0.5689  0.1625 -0.3671
14405TIP3    H164706   2.092   6.037  17.193  0.4294  0.4700  0.2131
14405TIP3    H264707   2.093   5.971  17.329  1.3735 -0.0056 -0.0168
14406TIP3   OH264708   0.860   1.429   3.764 -0.0917  0.0487  0.1893
14406TIP3    H164709   0.849   1.437   3.669 -0.7462 -0.4823  0.2142
14406TIP3    H264710   0.905   1.346   3.776 -1.1476 -0.5103  0.4012
14407TIP3   OH264711   5.231   0.219  11.438 -0.5639  0.0753 -0.3186
14407TIP3    H164712   5.228   0.186  11.528 -0.4004 -1.6367 -0.9179
14407TIP3    H264713   5.153   0.183  11.397 -0.6212  0.8275 -0.8986
14408TIP3   OH264714   4.946   0.779   0.880  0.0689 -0.6779  0.5142
14408TIP3    H164715   4.918   0.687   0.884 -2.3304  0.0548  2.3674
14408TIP3    H264716   4.965   0.803   0.970 -1.4942  1.2105  0.4165
14409TIP3   OH264717   5.352   3.880  11.719  0.2101  0.4799  0.0439
14409TIP3    H164718   5.340   3.973  11.703 -0.1185  0.0591 -2.5388
14409TIP3    H264719   5.435   3.858  11.677  0.6374 -0.2937  1.2252
14410TIP3   OH264720   5.887   5.834  15.936 -0.1602 -0.0995 -0.5193
14410TIP3    H164721   5.855   5.911  15.982 -2.7683  0.5430 -3.1340
14410TIP3    H264722   5.947   5.869  15.870  1.2856 -0.7175  0.4155
14411TIP3   OH264723   3.305   3.581   1.038 -0.5042  0.3477  0.2880
14411TIP3    H164724   3.222   3.548   1.071 -0.5590 -1.2166 -1.2841
14411TIP3    H264725   3.283   3.665   0.998 -0.9833  0.7701  1.4090
14412TIP3   OH264726   3.073   0.280   1.586  0.0852 -0.2632 -0.2214
14412TIP3    H164727   3.040   0.291   1.497 -1.8039  1.1950  0.6015
14412TIP3    H264728   3.043   0.193   1.612  3.2048 -2.0402 -1.9392
14413TIP3   OH264729   3.314   5.135  12.151 -0.1518  0.5245 -0.2411
14413TIP3    H164730   3.306   5.065  12.086 -0.3504 -1.0101  1.3820
14413TIP3    H264731   3.396   5.180  12.127 -0.2903  0.1004 -1.6178
14414TIP3   OH264732   0.583   3.115  13.263 -0.1558 -0.3954 -0.0425
14414TIP3    H164733   0.488   3.105  13.278 -0.0308 -0.6074  0.6619
14414TIP3    H264734   0.612   3.172  13.334  0.0453  0.6906 -0.9765
14415TIP3   OH264735   0.190   2.765   2.089 -0.3579 -0.9747 -0.6124
14415TIP3    H164736   0.272   2.808   2.064 -1.0723  0.3555 -0.7848
14415TIP3    H264737   0.174   2.701   2.019  0.8365 -1.6990 -0.2424
14416TIP3   OH264738   3.190   4.883  14.032  0.2026 -0.0970  0.0236
14416TIP3    H164739   3.214   4.976  14.032  1.1182 -0.3173  0.5538
14416TIP3    H264740   3.253   4.843  14.092 -0.7690 -0.9111  0.5210
14417TIP3   OH264741   4.689   3.273   3.860 -0.1050 -0.4579  0.3227
14417TIP3    H164742   4.751   3.246   3.928  1.1560 -0.3891 -0.7477
14417TIP3    H264743   4.610   3.223   3.879  0.9879 -2.2437  0.4789
14418TIP3   OH264744   4.725   0.790  16.649  0.1174  0.0072 -0.1297
14418TIP3    H164745   4.818   0.800  16.671 -0.2987  3.4472  0.7439
14418TIP3    H264746   4.690   0.736  16.719  1.3224 -0.7453 -0.0771
14419TIP3   OH264747   0.513   2.220  16.721  0.5040 -0.0488 -0.4148
14419TIP3    H164748   0.524   2.259  16.808  0.0540 -0.8660  0.0189
14419TIP3    H264749   0.431   2.172  16.727  1.2686 -1.4433 -0.7833
14420TIP3   OH264750   3.349   0.769   6.301  0.0896 -0.0763  0.4124
14420TIP3    H164751   3.283   0.827   6.338 -0.6607 -0.8193  0.2787
14420TIP3    H264752   3.305   0.728   6.226  0.5381 -0.9221  0.5988
14421TIP3   OH264753   4.342   6.731   2.119 -0.5332  0.0303 -0.2271
14421TIP3    H164754   4.406   6.738   2.048  0.5895  2.3038  0.9041
14421TIP3    H264755   4.305   6.643   2.109  1.5160 -0.7282 -1.9558
14422TIP3   OH264756   1.114   5.284   5.443  0.0462  0.6352  0.5084
14422TIP3    H164757   1.055   5.227   5.393 -0.2063  0.8894  0.5095
14422TIP3    H264758   1.102   5.258   5.534  0.4409  0.2308  0.4483
14423TIP3   OH264759   4.131   5.335  10.491  0.8220  0.2317 -0.0338
14423TIP3    H164760   4.210   5.300  10.450  0.5089 -0.7148  0.1456
14423TIP3    H264761   4.128   5.294  10.577 -0.2481 -0.3165 -0.3190
14424TIP3   OH264762   5.780   2.605  11.507  0.2843  0.6934  0.2581
14424TIP3    H164763   5.859   2.562  11.475 -0.0579  0.8966 -0.9098
14424TIP3    H264764   5.767   2.679  11.448 -1.3027  0.1127 -0.1874
14425TIP3   OH264765   3.026   5.238  13.347 -0.0905 -0.4458 -0.2189
14425TIP3    H164766   3.098   5.203  13.295  1.9327  0.3392  1.8632
14425TIP3    H264767   2.949   5.229  13.291  1.6481 -1.0696 -2.6684
14426TIP3   OH264768   0.400   2.180   0.635 -0.3524  0.7313  0.1475
14426TIP3    H164769   0.395   2.166   0.540  0.1067 -0.7799  0.3123
14426TIP3    H264770   0.318   2.224   0.657 -0.8311  0.3777 -0.8412
14427TIP3   OH264771   2.619   2.118  16.218 -0.3705 -0.3129  0.2262
14427TIP3    H164772   2.683   2.100  16.148 -1.1615  0.2406 -0.6720
14427TIP3    H264773   2.672   2.139  16.294  0.5350  0.5432 -0.6139
14428TIP3   OH264774   0.052   6.201  10.599 -0.1343 -0.1300  0.7307
14428TIP3    H164775  -0.033   6.183  10.641 -0.5817 -1.7115 -0.7344
14428TIP3    H264776   0.030   6.216  10.507  1.1338 -0.0110  0.4368
14429TIP3   OH264777   5.595   2.217   4.134 -0.4389 -0.0247  0.1347
14429TIP3    H164778   5.560   2.224   4.223 -1.0360 -0.7792 -0.0210
14429TIP3    H264779   5.522   2.242   4.078 -0.1842  0.0798 -0.1509
14430TIP3   OH264780   4.537   0.230   6.404  0.3989 -0.5740 -0.8715
14430TIP3    H164781   4.496   0.177   6.335 -1.9566  0.0561 -0.0539
14430TIP3    H264782   4.582   0.300   6.356  0.5476 -1.3137 -1.8376
14431TIP3   OH264783   5.333   2.574  16.833  0.2368 -0.0273 -0.4040
14431TIP3    H164784   5.401   2.615  16.886 -0.5904  1.7746 -0.6826
14431TIP3    H264785   5.305   2.498  16.884  0.2909  0.9771  1.1692
14432TIP3   OH264786   3.374   6.045   4.764  0.3098 -0.0900  0.3183
14432TIP3    H164787   3.374   6.107   4.837 -0.6677 -0.2542  0.4738
14432TIP3    H264788   3.376   6.100   4.686  1.7478  0.0822  0.4526
14433TIP3   OH264789   1.137   5.748   1.886  0.4066 -0.3165 -0.4075
14433TIP3    H164790   1.181   5.697   1.818  1.7112  1.3780 -0.9126
14433TIP3    H264791   1.143   5.694   1.965  1.7483 -0.9424 -0.9178
14434TIP3   OH264792   4.006   3.873   3.962 -0.2296  0.4534 -0.0639
14434TIP3    H164793   3.918   3.907   3.947 -0.3627  0.3303  0.4213
14434TIP3    H264794   4.064   3.941   3.926 -0.5140 -1.0332 -3.7919
14435TIP3   OH264795   1.469   3.054  13.662  0.1113  0.1975  0.2753
14435TIP3    H164796   1.500   3.055  13.572 -0.5112  0.2601  0.0576
14435TIP3    H264797   1.474   2.962  13.688 -1.9109 -0.2269 -0.6196
14436TIP3   OH264798   0.567   3.487   5.341 -0.3266  0.4937  0.6505
14436TIP3    H164799   0.630   3.556   5.322  0.7454 -0.6279 -0.0327
14436TIP3    H264800   0.574   3.474   5.436  2.8588 -1.7160  0.2656
14437TIP3   OH264801   4.378   2.274   2.677  0.0145 -0.0802 -0.1931
14437TIP3    H164802   4.402   2.263   2.769  0.0331  1.4805  0.0263
14437TIP3    H264803   4.283   2.268   2.676  0.0110 -0.0549 -0.0503
14438TIP3   OH264804   5.335   1.601  14.782 -0.2025  0.2795 -0.2800
14438TIP3    H164805   5.414   1.547  14.790  0.0362  0.0533 -3.0813
14438TIP3    H264806   5.369   1.689  14.768 -0.5805  0.9838  2.6416
14439TIP3   OH264807   1.388   6.663  10.253  0.1531 -0.1932  0.3424
14439TIP3    H164808   1.401   6.756  10.230  0.1262 -0.3355 -0.2708
14439TIP3    H264809   1.310   6.663  10.308  0.2992  0.1816  0.5532
14440TIP3   OH264810   1.184   4.948   0.237 -0.0641  0.2512 -0.1419
14440TIP3    H164811   1.236   5.021   0.270 -1.1254  2.2665 -2.6179
14440TIP3    H264812   1.245   4.898   0.183  0.3349  0.0881  0.4543
14441TIP3   OH264813   3.186   5.736  13.262  0.4986 -0.4020  0.5587
14441TIP3    H164814   3.179   5.765  13.353 -2.4486  1.2361 -0.0547
14441TIP3    H264815   3.143   5.650  13.262 -0.4926  0.0873  0.5386
14442TIP3   OH264816   5.133   2.998  14.739 -0.2313  0.2227  0.3776
14442TIP3    H164817   5.113   2.954  14.657  1.0728 -1.1111  0.7515
14442TIP3    H264818   5.213   3.046  14.722  0.8032 -1.1397  1.2081
14443TIP3   OH264819   4.131   5.871   5.919 -0.3948  0.0551  0.3624
14443TIP3    H164820   4.213   5.850   5.875 -0.2100 -0.4882  0.9446
14443TIP3    H264821   4.138   5.965   5.940 -0.0335  0.0676  0.1830
14444TIP3   OH264822   4.582   2.252  12.495  0.3308  0.2630 -0.4717
14444TIP3    H164823   4.555   2.327  12.547  0.9060  1.2664 -1.5652
14444TIP3    H264824   4.537   2.178  12.534 -1.0444  1.3282  0.0272
14445TIP3   OH264825   2.093   6.455   3.885  0.2410  0.0372 -0.7111
14445TIP3    H164826   2.071   6.532   3.832  1.1983 -0.4925 -1.9525
14445TIP3    H264827   2.162   6.411   3.834  0.0606 -1.3667  0.2188
14446TIP3   OH264828   6.500   1.251   5.153 -0.1500 -0.0579  0.3346
14446TIP3    H164829   6.450   1.313   5.206  1.7665  0.8705  1.1598
14446TIP3    H264830   6.577   1.231   5.205  2.0990  1.2520 -2.2192
14447TIP3   OH264831   6.158   5.197  17.277 -0.0391 -0.0153 -0.0037
14447TIP3    H164832   6.128   5.172  17.190 -0.2713  0.0504  0.0572
14447TIP3    H264833   6.090   5.165  17.336  0.9512 -1.6182  0.3221
14448TIP3   OH264834   0.638   2.981   1.397  0.3894 -0.0459  0.1288
14448TIP3    H164835   0.606   2.913   1.456 -0.6211 -0.8678 -1.2929
14448TIP3    H264836   0.733   2.982   1.412  0.4870 -1.9879  0.0136
14449TIP3   OH264837   3.677   3.380   3.632 -0.7877 -0.5316 -0.0159
14449TIP3    H164838   3.636   3.309   3.681 -0.3200 -0.8092 -0.0149
14449TIP3    H264839   3.768   3.351   3.620 -0.5749  0.0938  0.0377
14450TIP3   OH264840   0.970   3.168   4.240  0.5909  0.7123  0.4214
14450TIP3    H164841   1.028   3.093   4.226  0.4538  0.5105  0.9258
14450TIP3    H264842   0.923   3.148   4.320 -1.0253  0.3250 -0.5762
14451TIP3   OH264843   3.393   5.311  15.261 -0.1763  0.4697  0.1408
14451TIP3    H164844   3.406   5.218  15.281 -1.7075  0.6051  2.0503
14451TIP3    H264845   3.381   5.314  15.166  1.8423 -0.9918 -0.2364
14452TIP3   OH264846   5.590   2.831  12.560 -0.0174  0.5119  0.5667
14452TIP3    H164847   5.549   2.819  12.475  0.3283  0.5641  0.3922
14452TIP3    H264848   5.663   2.769  12.561  0.0371  0.5772  0.7873
14453TIP3   OH264849   2.252   5.415  15.018 -0.1758 -0.4029 -0.6391
14453TIP3    H164850   2.231   5.448  15.105  0.3531 -0.5863 -0.4401
14453TIP3    H264851   2.167   5.409  14.973 -0.2275  2.0810 -0.9962
14454TIP3   OH264852   4.662   2.045   4.355 -0.3562  0.4848 -0.0914
14454TIP3    H164853   4.575   2.014   4.331 -0.6690  1.2336  0.0727
14454TIP3    H264854   4.717   1.966   4.353 -0.6630  0.2680 -1.8985
14455TIP3   OH264855   6.070   0.681  12.262  0.1600 -0.3858 -0.1522
14455TIP3    H164856   6.126   0.669  12.186  1.2938  2.2333  0.1855
14455TIP3    H264857   6.089   0.606  12.318  1.1499 -1.0458 -1.3266
14456TIP3   OH264858   5.538   4.942  12.585 -0.4746 -0.4996 -0.1070
14456TIP3    H164859   5.538   4.919  12.492 -0.1048 -2.5994  0.3582
14456TIP3    H264860   5.623   4.984  12.599 -0.6163  0.0159 -0.7464
14457TIP3   OH264861   6.699   2.138   0.138 -0.2266 -0.1300 -0.1599
14457TIP3    H164862   6.659   2.051   0.129  0.2222 -0.4207  0.5347
14457TIP3    H264863   6.631   2.192   0.179 -0.7184  0.0172 -1.1466
14458TIP3   OH264864   3.999   6.096  15.356 -0.1894 -0.5047 -0.3500
14458TIP3    H164865   3.950   6.018  15.380 -0.1969 -0.0552  1.2156
14458TIP3    H264866   3.939   6.146  15.300 -1.1371 -0.4462  0.6916
14459TIP3   OH264867   1.108   4.454   5.500  0.1855 -0.1413 -0.1469
14459TIP3    H164868   1.061   4.376   5.468  0.3154 -0.2456 -0.0820
14459TIP3    H264869   1.038   4.518   5.516 -0.0385 -0.6151  0.8690
14460TIP3   OH264870   4.576   6.411   3.802 -0.6367 -0.2926  0.6674
14460TIP3    H164871   4.644   6.376   3.859  0.7538 -0.2597 -0.9033
14460TIP3    H264872   4.563   6.501   3.832  1.0932  0.1899  0.0824
14461TIP3   OH264873   0.262   0.592   5.144  0.0466  0.3926  0.1213
14461TIP3    H164874   0.186   0.553   5.102  0.4500 -1.8699  1.3294
14461TIP3    H264875   0.321   0.614   5.072 -0.3719 -0.9260 -0.6556
14462TIP3   OH264876   5.521   3.483   5.943  0.2242  0.4983  0.5937
14462TIP3    H164877   5.581   3.474   6.017  1.3184  2.2394 -0.0263
14462TIP3    H264878   5.471   3.562   5.962 -0.2879  0.3222  0.0030
14463TIP3   OH264879   4.016   0.055  16.036 -0.2883 -0.1971 -0.1007
14463TIP3    H164880   3.984   0.139  16.004  2.6927  1.6686  1.3698
14463TIP3    H264881   4.109   0.054  16.012 -0.4074 -3.5581 -0.8891
14464TIP3   OH264882   5.977   2.875  13.951  0.0068  0.2653 -0.4381
14464TIP3    H164883   6.060   2.873  14.000 -0.2118  0.7990 -0.0355
14464TIP3    H264884   5.940   2.961  13.970 -0.2735  0.3371 -1.2401
14465TIP3   OH264885   2.958   4.076  13.212  0.0750  0.1553 -0.3948
14465TIP3    H164886   3.039   4.027  13.193  0.7107  1.6780 -1.9315
14465TIP3    H264887   2.888   4.022  13.174  0.3000 -1.2510  1.0724
14466TIP3   OH264888   1.312   3.896   2.919 -0.1647  0.2958 -0.2286
14466TIP3    H164889   1.286   3.832   2.985  1.1415  0.6496  0.6647
14466TIP3    H264890   1.373   3.849   2.863 -0.2872  0.3660 -0.4220
14467TIP3   OH264891   5.478   1.180   3.094 -0.0751 -0.1426  0.0914
14467TIP3    H164892   5.423   1.227   3.157  0.7395 -1.0075  1.4766
14467TIP3    H264893   5.416   1.126   3.044 -0.4803 -1.4703  1.9420
14468TIP3   OH264894   2.339   4.251  12.762  1.2385 -0.1078 -0.0999
14468TIP3    H164895   2.259   4.242  12.815  0.9854 -1.7340 -0.6889
14468TIP3    H264896   2.338   4.342  12.733  1.0104  0.6389  2.0680
14469TIP3   OH264897   1.855   3.306   0.541  0.4977 -0.2176 -0.4660
14469TIP3    H164898   1.765   3.321   0.512 -0.0322 -0.0558  1.1702
14469TIP3    H264899   1.905   3.376   0.500 -0.4657  0.8471  0.1020
14470TIP3   OH264900   2.873   0.436   3.029 -0.4409 -0.4037 -0.0901
14470TIP3    H164901   2.854   0.436   2.935 -0.4368 -1.9940 -0.1218
14470TIP3    H264902   2.938   0.505   3.041  0.5801 -1.0796 -1.4944
14471TIP3   OH264903   6.614   2.034  11.656  0.3595 -0.1103  0.4985
14471TIP3    H164904   6.704   2.033  11.686  0.5672 -0.2428 -0.1116
14471TIP3    H264905   6.615   1.984  11.574 -0.4134 -0.8173  0.9059
14472TIP3   OH264906   3.574   0.994  16.270  0.0815 -0.1351  0.6880
14472TIP3    H164907   3.583   0.908  16.312 -0.5203 -0.8982 -0.6787
14472TIP3    H264908   3.549   0.974  16.180  2.8294  1.3740 -0.5509
14473TIP3   OH264909   3.086   2.755   0.806 -0.3324 -0.2290 -0.3623
14473TIP3    H164910   3.028   2.735   0.732  1.0557 -0.7537 -1.3632
14473TIP3    H264911   3.134   2.673   0.822 -0.2354  0.0339  0.7866
14474TIP3   OH264912   2.258   5.056  13.679 -0.3635  0.1790  0.0374
14474TIP3    H164913   2.177   5.046  13.630 -0.6553  1.2175  0.2781
14474TIP3    H264914   2.293   5.141  13.651 -0.3554  0.6332  1.3442
14475TIP3   OH264915   2.110   6.121  16.844 -0.6698 -0.1523 -0.2911
14475TIP3    H164916   2.159   6.104  16.925 -0.8561 -2.8258 -0.6323
14475TIP3    H264917   2.047   6.049  16.840 -0.6886 -0.0743 -2.7760
14476TIP3   OH264918   2.614   0.548   5.024 -0.0155  0.1183  0.0065
14476TIP3    H164919   2.608   0.478   4.959  0.4005  0.2965 -0.2316
14476TIP3    H264920   2.688   0.522   5.080 -1.7334 -1.1674  1.8061
14477TIP3   OH264921   4.026   0.891  13.374  0.5294  0.0154 -0.4712
14477TIP3    H164922   4.089   0.943  13.324  0.1173  0.6605 -0.3270
14477TIP3    H264923   3.981   0.954  13.430 -0.0449 -0.4806 -0.3607
14478TIP3   OH264924   0.563   6.415   0.912  0.1281 -0.2352 -0.4677
14478TIP3    H164925   0.519   6.381   0.990  0.0544  2.3373  0.7103
14478TIP3    H264926   0.493   6.426   0.848 -0.1331 -0.5051 -0.2332
14479TIP3   OH264927   5.462   0.803  13.399  0.4112 -0.5236 -0.3022
14479TIP3    H164928   5.366   0.810  13.402  0.1908 -2.7867 -0.4656
14479TIP3    H264929   5.488   0.867  13.332 -0.6409  2.3042  1.7872
14480TIP3   OH264930   1.083   0.871  14.224 -0.0645 -0.3218  0.1001
14480TIP3    H164931   1.018   0.922  14.272  1.6043  0.9221  1.1139
14480TIP3    H264932   1.135   0.936  14.176  0.1382 -1.3289 -1.1148
14481TIP3   OH264933   3.758   6.037  13.586  0.2506  0.1307 -0.5167
14481TIP3    H164934   3.813   6.061  13.511 -0.6275  1.0968 -0.8781
14481TIP3    H264935   3.782   6.099  13.654  0.6776 -0.4161 -0.1663
14482TIP3   OH264936   0.683   5.530  12.848  0.1195 -0.2191  0.4550
14482TIP3    H164937   0.730   5.570  12.775 -0.6308  0.7788  0.4951
14482TIP3    H264938   0.748   5.476  12.892  0.8462  0.0018 -0.3263
14483TIP3   OH264939   5.636   3.475   1.696  0.0349  0.4637  0.4743
14483TIP3    H164940   5.630   3.472   1.792  2.0910  0.9574  0.6520
14483TIP3    H264941   5.729   3.464   1.677 -0.4412 -0.5786 -1.5365
14484TIP3   OH264942   0.109   2.465  11.822 -0.3302  0.1032  0.1769
14484TIP3    H164943   0.067   2.550  11.836 -0.8291 -0.1748  0.4036
14484TIP3    H264944   0.083   2.438  11.735 -0.2834  0.1175  0.1585
14485TIP3   OH264945   5.749   6.077  13.648  0.4032 -0.1223 -0.0972
14485TIP3    H164946   5.835   6.088  13.689 -0.3127  5.1612  0.7503
14485TIP3    H264947   5.692   6.046  13.718  0.8497  0.5295  0.5658
14486TIP3   OH264948   2.885   2.552   4.392 -0.1928  0.1635  0.1615
14486TIP3    H164949   2.820   2.594   4.335 -0.3135 -1.0425 -0.6420
14486TIP3    H264950   2.932   2.492   4.334  1.0803  0.4055  0.9195
14487TIP3   OH264951   0.348   0.278   5.935 -0.6439 -0.1257 -0.3362
14487TIP3    H164952   0.387   0.270   6.022 -0.7863  0.8425 -0.1749
14487TIP3    H264953   0.332   0.187   5.908 -1.4932 -0.4185  1.0477
14488TIP3   OH264954   6.611   1.725  14.839 -0.0697  0.2860  0.1038
14488TIP3    H164955   6.644   1.733  14.928  0.5629  0.8444 -0.1731
14488TIP3    H264956   6.670   1.662  14.797 -0.7194 -0.4276  0.2378
14489TIP3   OH264957   6.046   6.425  12.265  0.2029  0.5367 -0.1958
14489TIP3    H164958   6.116   6.362  12.249  0.3848  0.5540  0.4849
14489TIP3    H264959   5.985   6.379  12.324 -1.5323 -0.2954 -2.4935
14490TIP3   OH264960   1.864   2.306   5.017  0.4248 -0.6289  0.3000
14490TIP3    H164961   1.783   2.268   4.983 -0.4308 -0.0687  1.6200
14490TIP3    H264962   1.844   2.399   5.028  1.6661 -0.2424 -0.5118
14491TIP3   OH264963   0.079   4.835   3.910 -0.3943 -0.9383  0.4268
14491TIP3    H164964   0.114   4.897   3.974 -0.3512  2.5891 -2.6409
14491TIP3    H264965  -0.016   4.850   3.912 -0.7765 -3.1690  1.7788
14492TIP3   OH264966   2.963   6.663   3.997 -0.5764  0.2894  0.0270
14492TIP3    H164967   2.943   6.677   4.090 -1.7648  0.5521 -0.2523
14492TIP3    H264968   3.050   6.700   3.986 -0.1055 -0.3869  1.1872
14493TIP3   OH264969   6.126   1.470  12.911  0.2965 -0.0179 -0.1772
14493TIP3    H164970   6.185   1.417  12.857  0.0057 -2.5505  1.8075
14493TIP3    H264971   6.043   1.424  12.907 -0.2572  0.8546  0.8264
14494TIP3   OH264972   3.027   5.216   1.403 -0.4415 -0.8347 -0.2387
14494TIP3    H164973   3.078   5.279   1.353 -1.6366  0.5063  0.1696
14494TIP3    H264974   3.084   5.192   1.476 -1.0470  2.2076  1.3786
14495TIP3   OH264975   2.515   5.897  14.082  0.3420  0.1342 -0.0415
14495TIP3    H164976   2.558   5.877  14.165 -2.2534 -2.5245  0.8555
14495TIP3    H264977   2.584   5.888  14.016  2.1860  1.0409  1.6552
14496TIP3   OH264978   3.801   0.842   2.018  0.0982 -0.0204 -0.9317
14496TIP3    H164979   3.897   0.844   2.022  0.0965 -1.4135  1.2315
14496TIP3    H264980   3.781   0.767   1.961  0.4021 -2.5306  2.0248
14497TIP3   OH264981   0.644   1.089  12.535  0.1628  0.2266  0.0668
14497TIP3    H164982   0.630   1.150  12.462  1.9487  0.8893  0.2267
14497TIP3    H264983   0.649   1.003  12.493  2.3808  0.7170 -0.8393
14498TIP3   OH264984   4.713   1.450   4.305  0.6186  0.0704  0.0345
14498TIP3    H164985   4.759   1.453   4.389  1.6555  0.9228 -0.5480
14498TIP3    H264986   4.681   1.360   4.299  2.8296 -0.7781  0.1348
14499TIP3   OH264987   5.908   5.542   3.747 -0.3755  0.0881 -0.0322
14499TIP3    H164988   5.819   5.536   3.781 -0.8531 -2.6001 -1.4208
14499TIP3    H264989   5.904   5.608   3.678 -0.3645  2.5444  2.1814
14500TIP3   OH264990   5.290   4.093   1.260  0.3737  0.5778  0.7351
14500TIP3    H164991   5.202   4.106   1.296 -0.2188  2.9525 -1.2383
14500TIP3    H264992   5.343   4.161   1.301  0.1794  1.9369 -1.0861
14501TIP3   OH264993   3.464   5.683  15.083 -0.1802  0.0311  0.6521
14501TIP3    H164994   3.500   5.611  15.135  1.4980 -0.1301 -0.6565
14501TIP3    H264995   3.376   5.654  15.061  0.7032 -2.0338 -0.4892
14502TIP3   OH264996   5.286   6.726  16.492  0.2187 -0.7911  0.1095
14502TIP3    H164997   5.304   6.796  16.429 -0.8863  0.2080  0.8625
14502TIP3    H264998   5.365   6.671  16.489  1.3531  0.7629 -0.1204
14503TIP3   OH264999   5.610   5.137   0.526 -0.6350  0.9761 -0.2445
14503TIP3    H165000   5.535   5.114   0.580 -0.5978 -0.1485 -0.6582
14503TIP3    H265001   5.614   5.233   0.532  0.0236  0.8601  2.5920
14504TIP3   OH265002   2.457   4.931   3.544  0.0232  0.2914 -0.1551
14504TIP3    H165003   2.542   4.975   3.552  0.6068 -0.5989 -1.2235
14504TIP3    H265004   2.443   4.893   3.631  1.0158 -0.0457 -0.1222
14505TIP3   OH265005   4.866   4.619  14.129  0.4887  0.4354  0.5861
14505TIP3    H165006   4.852   4.582  14.042  0.0135  0.7939  0.5059
14505TIP3    H265007   4.960   4.607  14.146  1.1328  2.5428 -1.0117
14506TIP3   OH265008   5.025   6.493   0.322 -0.1238 -0.3860 -0.0571
14506TIP3    H165009   5.119   6.476   0.322 -0.0633 -0.4216  2.3866
14506TIP3    H265010   4.985   6.409   0.299  0.4154 -0.4744 -0.6901
14507TIP3   OH265011   2.641   1.378  13.408  0.6169 -0.0879 -0.4429
14507TIP3    H165012   2.728   1.390  13.446 -0.1600 -3.9457  3.3674
14507TIP3    H265013   2.656   1.326  13.330  1.7572  1.0088 -1.0064
14508TIP3   OH265014   5.627   2.885  11.801  0.1062 -0.3894 -0.0960
14508TIP3    H165015   5.644   2.827  11.875 -1.0707 -2.3743 -1.2820
14508TIP3    H265016   5.703   2.875  11.744 -0.6455 -1.7976 -0.8888
14509TIP3   OH265017   5.914   3.925  13.274  0.8207  0.3280 -0.0411
14509TIP3    H165018   5.854   3.888  13.338  0.9049  1.0933  0.4925
14509TIP3    H265019   5.933   4.013  13.306  0.7827  0.7717 -1.1738
14510TIP3   OH265020   4.178   2.797  15.007  0.5882 -0.0618 -0.2098
14510TIP3    H165021   4.235   2.733  15.049  0.8459  0.3724  0.1127
14510TIP3    H265022   4.223   2.820  14.925  0.3289 -0.5358 -0.4923
14511TIP3   OH265023   5.815   3.070  12.632 -0.3944 -0.7710  0.0095
14511TIP3    H165024   5.787   3.112  12.551  3.2337 -0.1000 -1.0968
14511TIP3    H265025   5.753   3.100  12.698 -0.3614  3.1970 -1.5058
14512TIP3   OH265026   1.794   2.882  15.764  0.1101  0.3852 -0.4937
14512TIP3    H165027   1.705   2.862  15.793  0.2477  0.2965 -0.1319
14512TIP3    H265028   1.837   2.919  15.840  0.3932  0.4074 -0.6623
14513TIP3   OH265029   2.413   1.229   4.897 -0.0457 -0.2857  0.3260
14513TIP3    H165030   2.436   1.276   4.977 -3.0722  0.4150  0.8942
14513TIP3    H265031   2.332   1.183   4.918 -1.9093  1.2693 -2.7790
14514TIP3   OH265032   4.941   2.939  12.188 -0.4111  0.1138  0.1283
14514TIP3    H165033   4.990   2.861  12.164  2.0181  1.5885 -0.0830
14514TIP3    H265034   4.863   2.938  12.132  0.8210 -0.8921 -1.6486
14515TIP3   OH265035   0.096   2.793   0.608  0.4479 -0.4168 -0.3454
14515TIP3    H165036   0.007   2.824   0.625  0.6039 -0.2485  0.2020
14515TIP3    H265037   0.097   2.770   0.515 -0.5085 -1.5444 -0.0899
14516TIP3   OH265038   3.310   6.612   2.038  0.4412  0.0842 -0.2918
14516TIP3    H165039   3.242   6.547   2.054  0.7899 -0.0396  0.7964
14516TIP3    H265040   3.354   6.622   2.123  1.6748  0.2800 -0.9295
14517TIP3   OH265041   2.097   4.549   5.246  0.1080  0.2315  0.4298
14517TIP3    H165042   2.185   4.522   5.272  0.8328  0.0510 -1.9621
14517TIP3    H265043   2.112   4.616   5.179 -1.6328  2.0712  1.7658
14518TIP3   OH265044   0.778   2.455  12.452 -0.3671 -0.0498 -0.2476
14518TIP3    H165045   0.829   2.378  12.424 -0.6632 -0.1034 -0.6539
14518TIP3    H265046   0.725   2.478  12.375 -0.2497  0.5900 -0.1427
14519TIP3   OH265047   3.521   6.211   3.799 -0.8867 -0.5852  0.6899
14519TIP3    H165048   3.498   6.303   3.785 -2.5197 -0.7060  2.2138
14519TIP3    H265049   3.573   6.187   3.722 -2.5864  0.9003 -1.0192
14520TIP3   OH265050   1.143   3.040  11.782 -0.3585 -0.1541 -0.3325
14520TIP3    H165051   1.091   3.119  11.767  1.0510  0.8820  0.0925
14520TIP3    H265052   1.135   2.991  11.700 -2.0050 -0.0486 -0.2714
14521TIP3   OH265053   0.552   2.064   0.841 -0.3222 -0.1103  0.1509
14521TIP3    H165054   0.633   2.030   0.804 -0.0341  0.3043  0.3967
14521TIP3    H265055   0.512   2.113   0.769 -0.6946 -0.8841 -0.1757
14522TIP3   OH265056   4.838   5.312   5.793 -0.3055  0.5706 -0.3306
14522TIP3    H165057   4.893   5.320   5.715  0.9064 -0.5680  0.3695
14522TIP3    H265058   4.829   5.218   5.807 -3.7312  0.6429 -1.2636
14523TIP3   OH265059   6.351   0.714   4.263 -0.3342 -0.2579  0.0955
14523TIP3    H165060   6.262   0.689   4.290 -0.5100  0.9108  0.6583
14523TIP3    H265061   6.363   0.669   4.180 -1.4419 -0.4798  0.0283
14524TIP3   OH265062   6.058   1.990   0.864 -0.0037  0.2858 -0.6141
14524TIP3    H165063   5.968   1.995   0.896 -0.5898 -0.0739 -2.1334
14524TIP3    H265064   6.107   2.050   0.920 -0.6334 -1.4695  2.0050
14525TIP3   OH265065   5.398   5.551   2.759 -0.4617  0.3407 -0.4235
14525TIP3    H165066   5.369   5.640   2.739 -0.2633  0.7104  0.8569
14525TIP3    H265067   5.494   5.556   2.757 -0.4361  0.3539  0.4136
14526TIP3   OH265068   6.012   1.919  12.932  0.3771 -0.1221  0.1038
14526TIP3    H165069   5.992   1.921  13.025  1.2461 -1.2148  0.3313
14526TIP3    H265070   6.042   2.007  12.911  0.3812  0.0684  0.9056
14527TIP3   OH265071   4.383   6.798  15.295 -0.3512  0.2529  0.0568
14527TIP3    H165072   4.460   6.788  15.240 -0.2112  0.0478  0.2831
14527TIP3    H265073   4.317   6.837  15.238  0.8581  3.4431  0.6694
14528TIP3   OH265074   1.330   2.152   5.872 -0.4833  0.5978  0.3349
14528TIP3    H165075   1.290   2.068   5.896 -0.2181 -0.2663 -1.9961
14528TIP3    H265076   1.404   2.161   5.932  0.5226 -1.7301 -0.4278
14529TIP3   OH265077   0.499   0.218  16.452 -0.0813  0.3397 -0.1982
14529TIP3    H165078   0.504   0.198  16.546 -0.7927  0.3325 -0.1581
14529TIP3    H265079   0.584   0.258  16.432  1.5638 -2.8990 -0.3641
14530TIP3   OH265080   4.156   3.656   0.810  0.3095 -0.0999 -0.1452
14530TIP3    H165081   4.090   3.653   0.741 -1.5691 -0.1224  1.5564
14530TIP3    H265082   4.160   3.566   0.843  0.1071  0.2053  0.7300
14531TIP3   OH265083   4.081   0.015  15.145  0.3058 -0.6179 -0.1995
14531TIP3    H165084   4.038   0.071  15.081  2.0835 -0.1452 -1.0161
14531TIP3    H265085   4.009  -0.024  15.194 -1.0163  1.1804 -0.6192
14532TIP3   OH265086   0.220   5.432  16.149  0.1040  0.0011  0.3069
14532TIP3    H165087   0.181   5.487  16.218 -1.1667  0.2143 -0.5466
14532TIP3    H265088   0.146   5.407  16.094  0.9309 -1.1143 -0.3403
14533TIP3   OH265089   2.099   0.032  16.486 -0.4190  0.8704 -0.1025
14533TIP3    H165090   2.159  -0.013  16.545  0.7813  0.7358 -1.3615
14533TIP3    H265091   2.042  -0.038  16.452  0.1881  0.6013 -0.5921
14534TIP3   OH265092   5.901   4.731   0.699 -0.4736  0.3733  0.5943
14534TIP3    H165093   5.824   4.675   0.709  0.1538 -0.2440  2.5328
14534TIP3    H265094   5.924   4.724   0.606 -0.3216 -2.7987  0.7442
14535TIP3   OH265095   6.563   6.059  13.271  0.1372  0.3570  0.1977
14535TIP3    H165096   6.533   5.977  13.231  0.3134 -0.0134  0.8113
14535TIP3    H265097   6.614   6.031  13.346  0.7549  1.0214  0.0321
14536TIP3   OH265098   6.176   2.972   3.991  0.1985  0.4104  0.4231
14536TIP3    H165099   6.090   2.953   4.027  0.1019  0.0987  0.0308
14536TIP3    H265100   6.220   2.887   3.988  0.0957  0.3834 -0.4799
14537TIP3   OH265101   6.163   0.972  12.079 -0.1718 -0.1036  0.6589
14537TIP3    H165102   6.115   1.047  12.043  1.8717 -0.2073 -2.6852
14537TIP3    H265103   6.230   1.011  12.134  0.8007  0.6006 -0.9645
14538TIP3   OH265104   1.931   2.026   1.727  0.6239  0.1613 -0.3424
14538TIP3    H165105   2.010   2.064   1.764  0.7934 -0.6370  0.1357
14538TIP3    H265106   1.949   1.932   1.722 -0.2232 -0.0102 -0.4066
14539TIP3   OH265107   5.397   5.555  15.038  0.0210 -0.2153 -0.1769
14539TIP3    H165108   5.379   5.547  14.944 -1.4173  1.7890 -0.1321
14539TIP3    H265109   5.461   5.486  15.056  1.8312  0.5464 -3.0338
14540TIP3   OH265110   2.318   0.079  15.987  0.0357  0.6465  0.2312
14540TIP3    H165111   2.411   0.060  15.987 -0.4428 -2.0788 -1.1494
14540TIP3    H265112   2.300   0.112  16.075  1.9620 -0.5523  1.1252
14541TIP3   OH265113   6.423   6.813  14.615  0.5769 -0.3829  0.3221
14541TIP3    H165114   6.472   6.739  14.651  0.1469 -0.6317  0.4110
14541TIP3    H265115   6.483   6.886  14.617  1.2690 -0.9071 -0.4657
14542TIP3   OH265116   0.331   4.809  13.612 -0.4059  0.4047  0.6491
14542TIP3    H165117   0.282   4.888  13.636 -1.1336  0.4632 -0.8444
14542TIP3    H265118   0.326   4.752  13.689 -1.2571  1.1744  1.1813
14543TIP3   OH265119   1.434   6.710  14.391  0.1605  0.2301  0.0964
14543TIP3    H165120   1.470   6.788  14.433  2.3754  0.0245 -1.2251
14543TIP3    H265121   1.364   6.743  14.334  0.8817  1.2420 -0.2322
14544TIP3   OH265122   0.841   1.591  16.115  0.0850  0.2797  0.3147
14544TIP3    H165123   0.896   1.537  16.059 -1.6976 -0.3054 -0.9724
14544TIP3    H265124   0.799   1.529  16.175 -0.3038  0.5139  0.2890
14545TIP3   OH265125   2.429   3.745   2.283 -0.5915 -0.2194 -0.0183
14545TIP3    H165126   2.501   3.737   2.220 -0.1141  0.6535  0.3889
14545TIP3    H265127   2.459   3.698   2.360  0.8795  2.5289  1.2406
14546TIP3   OH265128   4.398   5.391  14.826  0.6868  0.2373  0.7861
14546TIP3    H165129   4.448   5.466  14.796 -0.0749  0.2481 -0.5510
14546TIP3    H265130   4.378   5.342  14.746  2.2405 -2.0967  1.7402
14547TIP3   OH265131   2.051   6.483   4.814 -0.8285 -0.8103 -0.1162
14547TIP3    H165132   2.136   6.519   4.841 -0.5855 -0.3528 -1.4141
14547TIP3    H265133   2.073   6.420   4.745 -1.4152 -2.0347  0.7847
14548TIP3   OH265134   1.697   6.490   4.529  0.2443  0.6339  0.0635
14548TIP3    H165135   1.698   6.485   4.625 -1.5232 -1.3669  0.0592
14548TIP3    H265136   1.632   6.557   4.509 -0.1731  0.2982  0.2782
14549TIP3   OH265137   4.536   6.687   4.564 -0.4011  0.1036  0.1892
14549TIP3    H165138   4.528   6.751   4.635  3.0172 -1.8009  2.6087
14549TIP3    H265139   4.487   6.612   4.594 -0.2597 -0.1651 -0.2382
14550TIP3   OH265140   0.140   2.849  14.202 -0.9302 -0.5753 -0.5177
14550TIP3    H165141   0.170   2.783  14.264  0.4368  0.7511  0.2826
14550TIP3    H265142   0.060   2.884  14.241 -0.6686 -0.5009 -0.0480
14551TIP3   OH265143   5.519   4.337  14.878 -0.3893  0.0074 -0.2197
14551TIP3    H165144   5.536   4.258  14.928 -1.4711 -0.8526 -1.1644
14551TIP3    H265145   5.591   4.396  14.901  1.6296 -1.9749 -1.0535
14552TIP3   OH265146   2.019   4.185  15.181 -0.5103 -0.7343 -0.2005
14552TIP3    H165147   2.076   4.143  15.245 -0.1464 -1.4194 -0.9472
14552TIP3    H265148   2.043   4.144  15.098 -1.7981 -0.7302 -0.5953
14553TIP3   OH265149   2.843   2.621  14.190 -0.1108 -0.2709  0.0560
14553TIP3    H165150   2.811   2.539  14.153  1.9427 -0.3927 -1.6521
14553TIP3    H265151   2.932   2.601  14.221 -0.2831  0.8651  1.4057
14554TIP3   OH265152   4.224   1.119   4.709 -0.1532 -0.1908  0.0800
14554TIP3    H165153   4.306   1.128   4.757 -0.7133  0.7688  0.9082
14554TIP3    H265154   4.168   1.187   4.746 -0.9944 -0.1953 -1.1476
14555TIP3   OH265155   0.843   4.248  17.297  0.3262 -0.5284  0.0788
14555TIP3    H165156   0.776   4.262  17.230  0.0906  2.0449  0.7327
14555TIP3    H265157   0.795   4.254  17.380  1.1896  0.4270  0.5316
14556TIP3   OH265158   0.078   2.986  13.247  0.5780  0.1531  0.4716
14556TIP3    H165159   0.056   2.893  13.240 -0.1075  0.1889  1.7714
14556TIP3    H265160   0.015   3.030  13.190 -2.1840  0.1548  3.2658
14557TIP3   OH265161   4.758   2.561  12.965 -0.1696  0.1088  0.4472
14557TIP3    H165162   4.733   2.618  13.037 -0.1509  0.4084  0.2177
14557TIP3    H265163   4.790   2.481  13.007  2.0731  1.1592  0.8574
14558TIP3   OH265164   6.765   4.610  11.232  0.9162  0.0553 -0.8627
14558TIP3    H165165   6.858   4.626  11.215  1.0788  0.3025  0.1351
14558TIP3    H265166   6.756   4.627  11.326 -0.2113  0.3701 -1.0216
14559TIP3   OH265167   4.909   1.957   2.460  0.1978  0.5963  0.0606
14559TIP3    H165168   4.971   1.917   2.521 -0.7415 -0.7812  0.1757
14559TIP3    H265169   4.868   1.882   2.416  1.1638  1.5275 -2.6442
14560TIP3   OH265170   2.526   6.013  15.963 -0.0752 -0.1673 -0.1362
14560TIP3    H165171   2.497   6.083  15.904 -0.4120  0.4990  0.7842
14560TIP3    H265172   2.469   5.939  15.943 -0.3076  0.1090 -0.5186
14561TIP3   OH265173   5.925   4.453  16.380 -0.8215 -0.6170  0.0592
14561TIP3    H165174   5.918   4.403  16.299 -0.3399 -0.9380  0.2137
14561TIP3    H265175   5.974   4.532  16.356  0.8411 -1.5052  0.3758
14562TIP3   OH265176   3.885   3.199  12.200 -0.1070 -0.0025 -0.5149
14562TIP3    H165177   3.927   3.285  12.197 -1.2872  0.6064 -0.2529
14562TIP3    H265178   3.852   3.185  12.112  1.4995 -0.9535 -1.0068
14563TIP3   OH265179   0.739   4.683   3.736 -0.1219 -0.0856  0.3182
14563TIP3    H165180   0.805   4.689   3.667 -0.1041  0.4572  0.3839
14563TIP3    H265181   0.789   4.679   3.817 -0.1816  0.9556  0.4102
14564TIP3   OH265182   4.124   2.454   0.331 -0.5103  0.4667  0.1852
14564TIP3    H165183   4.137   2.524   0.268 -1.4345 -0.3340 -0.9273
14564TIP3    H265184   4.105   2.500   0.413  2.3070  1.5471  0.3409
14565TIP3   OH265185   5.748   0.972  11.388 -0.5068  0.0757 -0.2091
14565TIP3    H165186   5.746   0.888  11.342 -0.9048 -0.3159  0.4999
14565TIP3    H265187   5.684   0.962  11.459 -3.4386  2.2673 -2.3022
14566TIP3   OH265188   5.817   2.399  17.291 -0.8575 -0.0576  0.0249
14566TIP3    H165189   5.813   2.490  17.264 -2.0837 -0.2885 -0.5982
14566TIP3    H265190   5.844   2.403  17.383  1.1943  0.8187 -0.5602
14567TIP3   OH265191   2.580   6.199  11.677  0.5758 -0.3769  0.0278
14567TIP3    H165192   2.638   6.275  11.670  1.2401 -0.5757  2.4413
14567TIP3    H265193   2.493   6.233  11.658  1.0499  0.6906 -0.2745
14568TIP3   OH265194   2.209   5.532   2.325  0.7348  0.1155  0.0708
14568TIP3    H165195   2.239   5.446   2.296 -0.9522 -0.8748  1.0940
14568TIP3    H265196   2.185   5.520   2.417  0.1394  1.6054  0.1477
14569TIP3   OH265197   4.741   4.529   4.334 -0.2045  0.4029  0.0200
14569TIP3    H165198   4.734   4.491   4.421 -0.5269 -3.3089 -1.4515
14569TIP3    H265199   4.753   4.454   4.276  1.1458  2.7884 -3.0589
14570TIP3   OH265200   0.525   2.902  13.084 -0.0274  0.0431 -0.9670
14570TIP3    H165201   0.476   2.964  13.138 -0.3626 -0.4394 -0.7195
14570TIP3    H265202   0.552   2.953  13.007  1.7740  1.1924  0.3273
14571TIP3   OH265203   3.943   6.261  11.631 -0.2086  0.0351 -0.1281
14571TIP3    H165204   3.972   6.333  11.576 -1.6542 -0.0850 -1.1083
14571TIP3    H265205   3.853   6.283  11.655  0.4663  0.2515  2.5241
14572TIP3   OH265206   4.571   6.147  14.943  0.0850 -0.0288 -0.5039
14572TIP3    H165207   4.544   6.195  14.865  0.6630  1.9315  0.4402
14572TIP3    H265208   4.521   6.186  15.014 -0.2206 -1.5897  0.1866
14573TIP3   OH265209   2.747   1.470  16.841 -0.6139 -0.0099 -0.0648
14573TIP3    H165210   2.697   1.545  16.810 -0.4742  0.2882  0.4156
14573TIP3    H265211   2.723   1.462  16.934  0.9836  0.7849  0.4680
14574TIP3   OH265212   4.705   2.914   0.695 -0.0840  0.3941  0.4718
14574TIP3    H165213   4.633   2.854   0.677  1.5059 -1.7942  1.0678
14574TIP3    H265214   4.740   2.936   0.608 -0.2067 -0.1364  0.2874
14575TIP3   OH265215   0.404   0.312   1.803 -0.5755  0.0419 -0.1444
14575TIP3    H165216   0.319   0.325   1.761 -0.7844  0.4586  0.3910
14575TIP3    H265217   0.465   0.295   1.731 -0.9566  0.5761 -0.5919
14576TIP3   OH265218   3.309   0.163   3.307  0.0457 -0.3853 -0.3098
14576TIP3    H165219   3.339   0.124   3.225 -1.0169 -0.2146 -0.7973
14576TIP3    H265220   3.353   0.249   3.311  1.4436 -1.0866  0.1747
14577TIP3   OH265221   3.118   4.447   5.332  0.0126  0.4371 -0.1181
14577TIP3    H165222   3.210   4.471   5.324 -0.4553  2.4050 -0.1221
14577TIP3    H265223   3.111   4.405   5.417  0.7381  1.2257  0.3463
14578TIP3   OH265224   6.444   2.321   3.827 -0.0149 -0.2397  0.3552
14578TIP3    H165225   6.406   2.233   3.837  1.3819 -1.0348 -0.9844
14578TIP3    H265226   6.481   2.321   3.739 -0.2824  1.8411  0.1935
14579TIP3   OH265227   4.386   4.155   1.189 -0.7800  0.2663  0.1839
14579TIP3    H165228   4.309   4.146   1.134 -0.3174  0.8792 -0.5857
14579TIP3    H265229   4.365   4.226   1.250 -0.6587  0.7458 -0.3270
14580TIP3   OH265230   2.156   3.649   4.795  0.2818  0.5649 -0.6478
14580TIP3    H165231   2.168   3.592   4.871 -0.6709  0.9330 -0.2040
14580TIP3    H265232   2.244   3.683   4.777  1.1752 -2.1004 -1.8167
14581TIP3   OH265233   0.381   2.965  15.197  0.0493  0.1684 -0.4075
14581TIP3    H165234   0.356   3.005  15.114 -0.3221  0.9583  0.0705
14581TIP3    H265235   0.472   2.939  15.185  0.2969  1.1587 -0.7378
14582TIP3   OH265236   4.654   2.997  12.437  0.0523 -0.0542 -0.9405
14582TIP3    H165237   4.668   2.903  12.428  2.0952  0.2086 -1.1417
14582TIP3    H265238   4.743   3.034  12.439 -0.6869  1.7942 -0.0455
14583TIP3   OH265239   0.875   4.496  16.335 -0.3227 -0.1200 -0.2919
14583TIP3    H165240   0.808   4.467  16.274 -0.0390  0.2187 -0.7763
14583TIP3    H265241   0.835   4.488  16.421 -0.5135 -1.1926 -0.4736
14584TIP3   OH265242   2.279   0.156  11.993  0.1499  0.1936 -0.2405
14584TIP3    H165243   2.337   0.081  11.988 -0.4775 -0.2180 -2.9909
14584TIP3    H265244   2.330   0.229  11.958 -1.2184 -0.5025 -4.3437
14585TIP3   OH265245   0.577   6.226  15.161 -0.4518 -0.6852  0.8670
14585TIP3    H165246   0.485   6.211  15.184 -0.9482  0.0489 -0.5204
14585TIP3    H265247   0.579   6.316  15.129  1.0613 -0.1781  2.2622
14586TIP3   OH265248   2.051   4.845  13.108  0.1901  0.8227  0.0963
14586TIP3    H165249   2.034   4.874  13.018  0.7066  2.2695  0.4344
14586TIP3    H265250   1.964   4.842  13.148  0.1075  1.8662  0.0213
14587TIP3   OH265251   6.391   1.133  15.943  0.6072 -0.1326  0.3784
14587TIP3    H165252   6.314   1.105  15.993  0.2531  0.0560 -0.0472
14587TIP3    H265253   6.382   1.088  15.859  0.5001  0.5566  0.0118
14588TIP3   OH265254   4.600   5.899  14.720 -0.1239  0.6542 -0.3160
14588TIP3    H165255   4.557   5.983  14.710  0.3043  0.9581  0.3189
14588TIP3    H265256   4.657   5.892  14.643  1.3336  1.8619  0.6138
14589TIP3   OH265257   4.223   5.309  13.043  0.4094 -0.3479  0.2961
14589TIP3    H165258   4.300   5.331  12.992  0.2597  0.1106  0.2621
14589TIP3    H265259   4.157   5.373  13.015  0.4058  0.0879  1.2538
14590TIP3   OH265260   3.726   2.193  17.297 -0.3749 -0.2204 -0.0302
14590TIP3    H165261   3.694   2.135  17.366  1.2164  1.1980  2.0167
14590TIP3    H265262   3.819   2.205  17.315  0.7040 -1.4649 -3.7468
14591TIP3   OH265263   6.446   2.280  15.801  0.8656 -0.5487 -0.4156
14591TIP3    H165264   6.438   2.213  15.733  0.8614 -1.5881  0.5695
14591TIP3    H265265   6.356   2.308  15.817  0.7544 -1.0457 -0.1375
14592TIP3   OH265266   6.063   2.212  15.307 -0.0339  0.0309 -0.2191
14592TIP3    H165267   6.003   2.271  15.261  1.1538  0.2043 -1.5978
14592TIP3    H265268   6.067   2.247  15.396 -1.4459  0.4066 -0.2749
14593TIP3   OH265269   3.501   2.922   4.114 -0.3160  0.9254  0.1241
14593TIP3    H165270   3.434   2.909   4.181 -1.6224  0.1994 -1.2659
14593TIP3    H265271   3.454   2.914   4.031  1.5691 -0.0198 -0.9124
14594TIP3   OH265272   3.558   3.909   1.466  0.0985 -0.0088  0.2908
14594TIP3    H165273   3.597   3.994   1.445 -0.9023  0.1580 -1.0216
14594TIP3    H265274   3.503   3.926   1.543  0.9169  0.2133  0.8480
14595TIP3   OH265275   4.908   4.498  16.039  0.3611  0.5792  0.2133
14595TIP3    H165276   4.897   4.404  16.024 -0.1379  0.7239 -0.3612
14595TIP3    H265277   5.003   4.509  16.048  0.3508 -0.1298  1.3895
14596TIP3   OH265278   4.381   4.708  15.128  0.0791 -0.3385  0.1478
14596TIP3    H165279   4.352   4.800  15.125 -0.7986 -0.5193  1.8211
14596TIP3    H265280   4.435   4.703  15.206  0.4757 -1.1747 -0.1732
14597TIP3   OH265281   3.542   4.705   0.399 -0.0822  0.9008 -0.4555
14597TIP3    H165282   3.447   4.694   0.396 -0.1741  0.6560  1.7474
14597TIP3    H265283   3.555   4.791   0.439  0.6559  1.1847 -1.2523
14598TIP3   OH265284   5.163   4.243  12.660  0.2930  0.2729 -0.7808
14598TIP3    H165285   5.207   4.269  12.741 -0.2779  1.1402 -0.7261
14598TIP3    H265286   5.145   4.150  12.671  0.3332  0.3535  0.0414
14599TIP3   OH265287   4.916   4.519   1.596 -0.2517 -0.0986  0.1272
14599TIP3    H165288   4.897   4.441   1.647  1.7978 -0.9912 -0.3681
14599TIP3    H265289   4.925   4.487   1.506 -2.3974  1.2177 -0.6357
14600TIP3   OH265290   2.560   5.186  14.656 -0.2398  0.4892 -0.2466
14600TIP3    H165291   2.618   5.252  14.696  1.0377  0.2783 -1.6805
14600TIP3    H265292   2.584   5.104  14.700  0.0212  0.5318 -0.3067
14601TIP3   OH265293   4.242   5.946  14.141  0.4317  0.0008 -0.0637
14601TIP3    H165294   4.319   5.910  14.097  1.3059 -0.6052  1.8712
14601TIP3    H265295   4.171   5.886  14.119  1.1493 -1.0421  0.4102
14602TIP3   OH265296   5.865   3.675  16.394 -0.0505  0.8032 -0.0353
14602TIP3    H165297   5.810   3.702  16.321  1.2101  2.0557 -0.5538
14602TIP3    H265298   5.952   3.663  16.356  0.3319  0.1456  1.0066
14603TIP3   OH265299   5.264   3.360   1.073  0.3428 -0.2281 -0.1848
14603TIP3    H165300   5.196   3.357   1.140  0.1065 -0.1747 -0.4233
14603TIP3    H265301   5.304   3.446   1.082 -0.1287  0.0332 -0.5461
14604TIP3   OH265302   2.032   1.173  11.227 -0.0970 -0.0318 -0.4381
14604TIP3    H165303   2.115   1.142  11.191  0.0100 -0.0684 -0.1603
14604TIP3    H265304   1.991   1.221  11.155  0.7266  1.0534 -0.2079
14605TIP3   OH265305   1.899   2.288  16.509 -0.1284  0.4333 -0.4736
14605TIP3    H165306   1.935   2.376  16.521 -1.3828  0.8559  0.2862
14605TIP3    H265307   1.865   2.288  16.419  1.7483  0.0043 -1.2328
14606TIP3   OH265308   4.742   5.388  14.120 -0.4375 -0.0599 -0.2597
14606TIP3    H165309   4.675   5.437  14.073 -1.1280 -1.6609 -1.0020
14606TIP3    H265310   4.746   5.303  14.076  2.1678 -0.0004 -0.3363
14607TIP3   OH265311   3.589   4.173   0.089  0.0459 -0.3521 -0.2123
14607TIP3    H165312   3.554   4.090   0.122  1.1301 -0.6702  0.1696
14607TIP3    H265313   3.512   4.219   0.056 -0.5455 -1.6129 -0.6792
14608TIP3   OH265314   6.454   6.245  12.837 -0.2298  0.1988  0.0785
14608TIP3    H165315   6.507   6.249  12.758 -0.1033 -0.7241  0.1045
14608TIP3    H265316   6.515   6.215  12.905 -0.5905 -0.0575  0.2894
14609TIP3   OH265317   6.068   4.447   0.297 -0.6289  0.2156 -1.0159
14609TIP3    H165318   6.153   4.489   0.300 -0.4914  0.0078 -1.9024
14609TIP3    H265319   6.005   4.518   0.314 -0.3408  0.5575 -1.3912
14610TIP3   OH265320   0.132   3.337   4.310 -0.0105 -0.7258  0.2256
14610TIP3    H165321   0.189   3.288   4.370 -0.2874 -0.1083  1.0173
14610TIP3    H265322   0.192   3.373   4.244  0.2907 -1.4864  0.0735
14611TIP3   OH265323   3.522   4.372  12.614  0.1305  0.6386 -0.0453
14611TIP3    H165324   3.570   4.442  12.571 -0.0183  0.9659  0.3059
14611TIP3    H265325   3.550   4.376  12.706  0.4866 -0.0815 -0.1181
14612TIP3   OH265326   5.688   5.888  12.371  0.0125 -0.6168 -0.5962
14612TIP3    H165327   5.691   5.983  12.384 -0.8270 -0.4324 -1.6148
14612TIP3    H265328   5.748   5.872  12.299  1.7266 -1.1469  0.8780
14613TIP3   OH265329   5.278   3.964   6.341  0.7369  0.0607  0.1899
14613TIP3    H165330   5.317   3.896   6.396  1.7419  1.1396  0.8638
14613TIP3    H265331   5.200   3.992   6.389 -1.0924 -2.1883 -1.2202
14614TIP3   OH265332   0.081   4.726  14.385 -0.0422  0.2474  0.1131
14614TIP3    H165333   0.060   4.652  14.442  0.5049 -0.6154 -0.7677
14614TIP3    H265334   0.089   4.801  14.444 -0.6797 -0.3794  1.0149
14615TIP3   OH265335   2.531   3.874  17.218 -0.2754 -0.4532  0.1233
14615TIP3    H165336   2.444   3.901  17.190  0.5518  1.3971 -0.8432
14615TIP3    H265337   2.516   3.794  17.268 -2.5957  0.2238  0.6564
14616TIP3   OH265338   2.508   2.822   2.421  0.2781  0.1359 -0.0209
14616TIP3    H165339   2.554   2.827   2.504 -1.4323  1.0654  0.9273
14616TIP3    H265340   2.453   2.900   2.418 -0.1462 -0.1657 -1.7592
14617TIP3   OH265341   3.753   5.838   3.290 -0.8785  0.2013  0.4465
14617TIP3    H165342   3.739   5.933   3.282 -1.2278  0.0563 -1.0003
14617TIP3    H265343   3.679   5.799   3.244  0.6162 -0.6951 -1.3775
14618TIP3   OH265344   5.703   3.767  16.626  0.1608  0.3729  0.2859
14618TIP3    H165345   5.781   3.748  16.575 -0.6456  0.8241 -1.1780
14618TIP3    H265346   5.646   3.691  16.613  0.0102  0.4141  0.6711
14619TIP3   OH265347   5.485   5.871  14.091 -0.4538 -0.3055  0.0800
14619TIP3    H165348   5.524   5.787  14.066 -0.5666 -1.1384  2.4559
14619TIP3    H265349   5.397   5.848  14.123 -0.5465  0.7444  0.6200
14620TIP3   OH265350   6.306   5.873  15.066  0.5485  0.0155  0.2401
14620TIP3    H165351   6.260   5.946  15.025  0.1525  0.8082  1.9846
14620TIP3    H265352   6.399   5.897  15.061  0.5379 -0.0670 -0.4662
14621TIP3   OH265353   4.927   1.590  15.064  0.2570 -0.3299  0.0779
14621TIP3    H165354   4.999   1.538  15.099 -0.5227 -1.0323  0.6659
14621TIP3    H265355   4.852   1.531  15.064 -0.2480  0.2788 -0.8697
14622TIP3   OH265356   3.886   3.556  11.763 -0.2073 -0.6017  0.3730
14622TIP3    H165357   3.818   3.489  11.752 -0.2766 -0.4248 -0.3486
14622TIP3    H265358   3.922   3.567  11.675  0.0023  0.1023  0.5447
14623TIP3   OH265359   6.334   5.206   5.758 -0.2406 -0.1645  0.8566
14623TIP3    H165360   6.307   5.182   5.846  0.0769 -3.5731  0.1414
14623TIP3    H265361   6.278   5.154   5.700  0.8447  0.5297 -0.9232
14624TIP3   OH265362   4.006   2.526   0.577  0.3362 -0.1970  0.3490
14624TIP3    H165363   3.921   2.506   0.537 -0.8699  2.3864  1.4073
14624TIP3    H265364   3.996   2.497   0.668  1.3345 -1.6304  0.0378
14625TIP3   OH265365   5.330   0.315   4.233  0.0716 -0.2920  0.4343
14625TIP3    H165366   5.392   0.332   4.162 -0.0048  1.6537  0.7649
14625TIP3    H265367   5.250   0.286   4.189  0.5739 -0.8699 -0.1263
14626TIP3   OH265368   6.728   5.664  16.778 -0.3092  0.9359  0.3034
14626TIP3    H165369   6.708   5.668  16.685 -1.8145 -0.2968  0.5125
14626TIP3    H265370   6.809   5.713  16.788  1.5702 -1.3627 -2.1262
14627TIP3   OH265371   6.298   3.492   4.692  0.0599  0.1697 -0.0196
14627TIP3    H165372   6.356   3.517   4.620  1.8249  0.3682  1.3873
14627TIP3    H265373   6.333   3.539   4.768 -0.7510 -1.2705  1.2977
14628TIP3   OH265374   2.227   0.092  16.995 -0.8052  0.4913 -0.3658
14628TIP3    H165375   2.253   0.098  16.903  2.5688 -0.3707  0.4135
14628TIP3    H265376   2.241   0.181  17.029 -2.0790  0.8170 -0.6238
14629TIP3   OH265377   6.343   1.936   0.403  0.0792  0.8008  0.5936
14629TIP3    H165378   6.325   1.849   0.367  1.1210  0.1296  1.6218
14629TIP3    H265379   6.316   1.930   0.495  0.9129  1.2962  0.8794
14630TIP3   OH265380   1.606   6.386  14.765 -0.4068 -0.4668 -0.4421
14630TIP3    H165381   1.567   6.302  14.789  0.4150 -0.5451  0.7496
14630TIP3    H265382   1.665   6.406  14.838 -1.0714  1.4786 -0.3805
14631TIP3   OH265383   5.455   4.804  11.965  0.5250  0.5947 -0.4188
14631TIP3    H165384   5.529   4.854  11.999  0.0705  0.3278  1.0282
14631TIP3    H265385   5.397   4.792  12.040  0.5540 -1.9924 -0.7063
14632TIP3   OH265386   6.805   3.458   0.292  0.2593 -0.1029 -0.1531
14632TIP3    H165387   6.879   3.508   0.327  0.4913 -1.4053  1.2884
14632TIP3    H265388   6.826   3.446   0.199  1.1556  0.7400 -0.0767
14633TIP3   OH265389   6.724   2.675  11.364  0.2602  0.5143 -0.5592
14633TIP3    H165390   6.750   2.724  11.442  0.6657  0.9387 -0.9555
14633TIP3    H265391   6.726   2.739  11.293  0.5372 -0.0075 -1.0378
14634TIP3   OH265392   2.007   5.378  14.723 -0.0497  0.6308 -0.1545
14634TIP3    H165393   1.965   5.439  14.784  0.2489  0.7957 -0.1122
14634TIP3    H265394   2.071   5.431  14.676 -0.5684  0.5961 -0.9156
14635TIP3   OH265395   1.291   0.650  16.923 -0.1752  0.3880 -0.1918
14635TIP3    H165396   1.235   0.584  16.883 -0.2504  0.5014 -0.2740
14635TIP3    H265397   1.267   0.731  16.879 -2.1739  1.0341  1.8875
14636TIP3   OH265398   0.025   0.755  11.668  0.1481  0.2263  0.3431
14636TIP3    H165399   0.047   0.713  11.585 -0.7884 -0.4921  0.4444
14636TIP3    H265400   0.083   0.831  11.673  0.9226 -0.2949 -0.4838
14637TIP3   OH265401   0.190   6.301  16.647 -0.4289 -0.3851  0.2073
14637TIP3    H165402   0.249   6.333  16.716  1.2279 -2.6374 -0.0780
14637TIP3    H265403   0.113   6.357  16.655  1.6025  2.5921  0.7313
14638TIP3   OH265404   3.727   0.308   5.586  0.1239  0.5161  0.2172
14638TIP3    H165405   3.686   0.271   5.664  0.5119  1.1904  0.7486
14638TIP3    H265406   3.796   0.246   5.563  0.3063  0.5479  0.6766
14639TIP3   OH265407   1.414   4.103  16.632  0.6031 -0.0340  0.0983
14639TIP3    H165408   1.379   4.187  16.661  1.0720  0.2738 -0.2252
14639TIP3    H265409   1.476   4.125  16.562 -1.1444 -0.7933 -1.8211
14640TIP3   OH265410   1.427   4.962   6.147 -0.8080  0.1424 -0.1559
14640TIP3    H165411   1.418   4.977   6.053  0.1577  0.8730 -0.1492
14640TIP3    H265412   1.511   5.003   6.170 -0.8082 -0.4256  0.9392
14641TIP3   OH265413   5.350   3.279  17.066 -0.7918 -0.2250 -0.6663
14641TIP3    H165414   5.269   3.303  17.020 -1.8245 -1.0703  0.6571
14641TIP3    H265415   5.391   3.364  17.086 -1.3678  0.2155 -1.2835
14642TIP3   OH265416   3.032   0.470  12.249 -0.1280  0.0602  0.6083
14642TIP3    H165417   2.966   0.483  12.182  0.4988 -0.8826 -0.2160
14642TIP3    H265418   3.060   0.559  12.272 -1.1024  0.4331  0.4049
14643TIP3   OH265419   3.093   4.040   4.622 -0.1824  0.3269 -0.2703
14643TIP3    H165420   3.189   4.042   4.626 -0.1893 -0.4935  0.7219
14643TIP3    H265421   3.069   4.129   4.595  0.8089  0.9475  0.7685
14644TIP3   OH265422   1.751   6.245   5.203 -0.1434  0.4302 -0.2053
14644TIP3    H165423   1.703   6.328   5.197  0.2602  0.6281 -0.9277
14644TIP3    H265424   1.831   6.261   5.153 -0.0561 -0.4002 -0.3454
14645TIP3   OH265425   1.355   6.133  16.065 -0.2649  0.6081  0.3524
14645TIP3    H165426   1.330   6.100  16.151 -1.7405  1.4549  0.2783
14645TIP3    H265427   1.388   6.057  16.018 -0.3263 -0.0437  1.3419
14646TIP3   OH265428   1.858   0.792   3.845  0.2147  0.8598  0.3800
14646TIP3    H165429   1.850   0.886   3.827  0.3043  0.9413  0.7688
14646TIP3    H265430   1.829   0.750   3.764  0.7220  1.2311  0.0026
14647TIP3   OH265431   6.247   4.301  15.026  0.5777  0.1775  0.1333
14647TIP3    H165432   6.252   4.206  15.025 -0.3999  0.1056  0.8078
14647TIP3    H265433   6.255   4.325  15.118 -1.7579  0.5528  0.3182
14648TIP3   OH265434   1.089   5.570   4.242 -0.0173  0.0871 -0.0675
14648TIP3    H165435   1.117   5.520   4.165  0.5883 -0.6694  0.6312
14648TIP3    H265436   0.994   5.557   4.246 -0.0494  0.1196 -0.6713
14649TIP3   OH265437   0.661   2.496   1.479  0.0616 -0.1326  0.3730
14649TIP3    H165438   0.672   2.415   1.529  0.2551  0.2436  0.9355
14649TIP3    H265439   0.751   2.527   1.464  0.1428 -1.2038 -1.8089
14650TIP3   OH265440   4.227   4.074  12.094  0.4976 -0.0266  0.2537
14650TIP3    H165441   4.174   4.153  12.110 -0.5697 -0.5541 -0.5387
14650TIP3    H265442   4.267   4.089  12.009  0.2823 -0.3430  0.0954
14651TIP3   OH265443   4.055   4.702   0.405  0.0172  0.1423  0.0091
14651TIP3    H165444   4.002   4.762   0.353 -0.0761 -0.4207 -0.5694
14651TIP3    H265445   4.062   4.623   0.350 -1.5165 -1.1386  1.5295
14652TIP3   OH265446   0.924   4.008   2.455  0.2442 -0.5341  0.2499
14652TIP3    H165447   0.979   3.952   2.509  0.2565 -2.0393 -1.2313
14652TIP3    H265448   0.857   4.040   2.515 -0.2299 -2.7924  1.0540
14653TIP3   OH265449   0.566   4.145  15.971 -0.7308 -0.3364 -0.4569
14653TIP3    H165450   0.569   4.240  15.958  1.6489 -0.2376  0.3085
14653TIP3    H265451   0.490   4.131  16.026 -1.3442  1.0829 -0.8849
14654TIP3   OH265452   5.928   6.515  17.275 -0.1484  0.6267  0.8671
14654TIP3    H165453   5.992   6.472  17.331 -0.7840 -3.2004 -0.9689
14654TIP3    H265454   5.980   6.565  17.212  0.8875 -0.1074  1.1167
14655TIP3   OH265455   4.834   0.225  13.183 -0.7237 -0.4470  0.2909
14655TIP3    H165456   4.892   0.163  13.138  0.1054 -0.1337  0.9163
14655TIP3    H265457   4.798   0.175  13.256  0.3786 -0.0613  1.1305
14656TIP3   OH265458   3.889   1.364  17.049 -0.4116  0.1809  0.1326
14656TIP3    H165459   3.975   1.330  17.023 -1.0502  0.0112 -1.9820
14656TIP3    H265460   3.886   1.451  17.009 -1.9201 -0.5653 -1.5000
14657TIP3   OH265461   0.505   2.289   3.214 -0.1738  0.2583  0.2641
14657TIP3    H165462   0.493   2.382   3.234  1.4731  0.3148  1.1932
14657TIP3    H265463   0.430   2.246   3.255 -2.1277  1.2985 -1.9354
14658TIP3   OH265464   0.155   2.697  14.986 -0.2360 -0.4600 -0.3664
14658TIP3    H165465   0.137   2.693  15.080 -0.7943 -2.0095 -0.5120
14658TIP3    H265466   0.072   2.674  14.945  0.1291 -0.2649 -1.2248
14659TIP3   OH265467   5.478   5.265  12.754  0.0256  0.4174 -0.6448
14659TIP3    H165468   5.534   5.259  12.676  0.3476  2.5434 -0.6454
14659TIP3    H265469   5.441   5.353  12.749  0.3776  0.7593  1.8185
14660TIP3   OH265470   0.725   4.610  15.162  0.1959 -0.4232  0.2113
14660TIP3    H165471   0.713   4.704  15.147  0.4266 -0.7076 -1.9960
14660TIP3    H265472   0.793   4.584  15.100  0.4190 -1.9970  1.0556
14661TIP3   OH265473   4.193   6.570   4.269  0.0755  0.2057  0.2175
14661TIP3    H165474   4.255   6.582   4.197  1.6488  1.4863  1.7280
14661TIP3    H265475   4.143   6.651   4.272 -1.2706 -0.5484 -0.5357
14662TIP3   OH265476   6.673   5.874   4.673  0.2326  0.0659  0.0142
14662TIP3    H165477   6.609   5.900   4.739  0.5619 -1.2241  0.8886
14662TIP3    H265478   6.620   5.848   4.597 -0.3240 -1.1545  0.7849
14663TIP3   OH265479   0.430   0.258   2.869 -0.0282 -0.0121  0.4183
14663TIP3    H165480   0.468   0.223   2.950 -1.3635 -0.6736  0.7860
14663TIP3    H265481   0.419   0.352   2.886  2.4536  0.4417 -0.1239
14664TIP3   OH265482   5.308   6.113   1.256  0.4816  0.2858  0.0137
14664TIP3    H165483   5.292   6.019   1.269  2.7590  0.0354  1.7055
14664TIP3    H265484   5.319   6.122   1.161  2.2975 -1.6191 -0.0583
14665TIP3   OH265485   2.213   3.709  15.515  0.1625 -0.5188  0.2865
14665TIP3    H165486   2.247   3.782  15.566 -1.3573  0.1181  0.4517
14665TIP3    H265487   2.158   3.661  15.578  1.2376 -1.8841  0.2155
14666TIP3   OH265488   5.858   5.068  17.260  0.1612 -0.2060 -0.3185
14666TIP3    H165489   5.778   5.120  17.268  0.5523  0.3359  0.2066
14666TIP3    H265490   5.836   4.999  17.197 -0.4188  0.5104 -0.9183
14667TIP3   OH265491   4.605   1.993  14.808  0.3282 -0.0336 -0.1650
14667TIP3    H165492   4.609   1.905  14.771  0.0654 -0.2849  0.3874
14667TIP3    H265493   4.697   2.020  14.817  0.4070 -0.2486 -0.3453
14668TIP3   OH265494   2.570   3.540   3.313  0.0525 -0.1994  0.4311
14668TIP3    H165495   2.657   3.545   3.273 -0.5353 -0.5884 -0.9891
14668TIP3    H265496   2.516   3.595   3.256 -0.7199 -0.3181  1.0391
14669TIP3   OH265497   0.107   4.981   5.435 -0.4542 -0.2804 -0.2358
14669TIP3    H165498   0.045   5.040   5.391 -1.9928 -1.4986  0.1948
14669TIP3    H265499   0.105   4.901   5.383  1.3138 -0.1464 -0.5844
14670TIP3   OH265500   5.101   0.499  14.234  0.2269 -0.0312  0.1061
14670TIP3    H165501   5.057   0.583  14.228  1.2586  0.4568 -0.9826
14670TIP3    H265502   5.051   0.441  14.176  0.0381  0.0768  0.1625
14671TIP3   OH265503   5.250   2.642  13.391 -0.1241 -0.9057  0.6661
14671TIP3    H165504   5.307   2.719  13.390 -0.8500 -0.3323 -1.0889
14671TIP3    H265505   5.235   2.622  13.298 -0.6654 -2.6351  1.0903
14672TIP3   OH265506   4.637   4.619   3.999 -0.6001 -0.1368 -0.7413
14672TIP3    H165507   4.716   4.673   3.990  0.3090 -1.4947 -1.2431
14672TIP3    H265508   4.577   4.653   3.933 -0.4190  0.8495 -0.4237
14673TIP3   OH265509   4.331   4.219  12.711  0.2281  0.2513  0.5873
14673TIP3    H165510   4.268   4.218  12.783  0.0148 -0.1663  0.3961
14673TIP3    H265511   4.385   4.296  12.728 -0.1458  0.4448  0.9136
14674TIP3   OH265512   3.582   5.540  14.385 -0.3147 -0.0312 -0.2336
14674TIP3    H165513   3.593   5.575  14.296  0.3137  0.2202 -0.0583
14674TIP3    H265514   3.590   5.445  14.375 -0.4465 -0.0190 -0.4700
14675TIP3   OH265515   4.911   5.707  15.139 -0.2679 -0.4110  0.3894
14675TIP3    H165516   4.878   5.618  15.140 -2.3666  0.2258 -1.8472
14675TIP3    H265517   4.833   5.762  15.132  1.0730  1.4125 -1.5339
14676TIP3   OH265518   0.317   2.020  11.154 -0.4005 -0.0103 -0.6190
14676TIP3    H165519   0.312   1.953  11.086 -1.1252  0.0971 -0.6757
14676TIP3    H265520   0.226   2.042  11.173 -0.2431 -0.5431  0.8818
14677TIP3   OH265521   1.343   4.680  12.715  0.2957 -0.4293 -0.4173
14677TIP3    H165522   1.404   4.606  12.720  0.5752 -0.2526 -1.0562
14677TIP3    H265523   1.269   4.647  12.663  1.1790  0.2222 -2.1645
14678TIP3   OH265524   1.465   2.564   6.161 -0.7915  1.0509  0.2048
14678TIP3    H165525   1.474   2.484   6.108  0.7687  1.7824 -0.6862
14678TIP3    H265526   1.522   2.550   6.236 -1.7370  0.7040  0.8826
14679TIP3   OH265527   5.279   2.459   3.938  0.5057 -0.0745 -0.2854
14679TIP3    H165528   5.194   2.473   3.897  1.0328 -0.9952 -1.7638
14679TIP3    H265529   5.325   2.543   3.931  0.4131 -0.0965 -1.1882
14680TIP3   OH265530   0.214   0.262   2.002  0.3315  0.3164 -0.3140
14680TIP3    H165531   0.293   0.245   1.951 -0.3302 -0.4153 -1.1472
14680TIP3    H265532   0.148   0.286   1.937 -0.2319  0.5429  0.3223
14681TIP3   OH265533   5.985   0.991   3.756 -0.6449  0.1624 -0.0106
14681TIP3    H165534   5.931   1.067   3.735 -1.8062 -1.1534 -2.1204
14681TIP3    H265535   6.032   0.971   3.675 -0.8789 -1.7385  0.2716
14682TIP3   OH265536   2.666   3.208  11.981 -0.1241  0.8669 -0.3016
14682TIP3    H165537   2.735   3.168  12.034 -0.2886  0.8215 -0.1206
14682TIP3    H265538   2.592   3.218  12.041 -0.4576  0.4147 -0.6281
14683TIP3   OH265539   4.002   5.076   1.739 -0.5052  0.8154  1.0366
14683TIP3    H165540   3.938   5.007   1.719  1.0517 -0.6889  1.0814
14683TIP3    H265541   4.018   5.118   1.654 -1.0700  0.7937  0.9128
14684TIP3   OH265542   4.608   0.678  11.159  0.1650 -0.5814  0.6959
14684TIP3    H165543   4.535   0.730  11.127 -0.8345 -2.1141  0.3665
14684TIP3    H265544   4.641   0.727  11.234 -0.1739  0.9246 -0.0831
14685TIP3   OH265545   1.614   4.019  11.374  0.0682  0.2108 -0.1993
14685TIP3    H165546   1.690   4.038  11.430  0.4721 -0.8467 -0.3592
14685TIP3    H265547   1.577   3.939  11.411  0.6594 -0.8172 -1.7394
14686TIP3   OH265548   1.395   2.470   5.476 -0.2082  0.2146  0.2759
14686TIP3    H165549   1.348   2.405   5.529  0.8410 -0.8397 -0.0555
14686TIP3    H265550   1.326   2.524   5.437 -1.6781 -4.0005 -3.8660
14687TIP3   OH265551   1.975   6.315   5.046 -0.1308  0.3265 -0.2602
14687TIP3    H165552   1.976   6.391   4.988 -1.1449  0.4965 -0.0727
14687TIP3    H265553   2.002   6.242   4.991 -3.8794 -0.0870 -1.8179
14688TIP3   OH265554   3.511   0.738  10.528  0.2115  0.3577  0.1056
14688TIP3    H165555   3.606   0.734  10.527  0.1864 -0.6497 -1.5682
14688TIP3    H265556   3.484   0.657  10.571  0.1045  0.1600 -0.3295
14689TIP3   OH265557   5.226   4.751  11.519  0.0365 -0.3262  0.3968
14689TIP3    H165558   5.132   4.744  11.500  0.2731  1.4551 -1.7715
14689TIP3    H265559   5.250   4.839  11.492  2.2431 -0.5171  1.5169
14690TIP3   OH265560   0.043   2.529  16.898 -0.3151 -0.0580 -0.0834
14690TIP3    H165561   0.083   2.524  16.811 -1.2183 -0.7357 -0.4718
14690TIP3    H265562  -0.051   2.533  16.881 -0.4546  0.9625  0.8323
14691TIP3   OH265563   4.675   0.731   2.414  0.1275 -0.0054  0.2617
14691TIP3    H165564   4.657   0.820   2.445  0.0303  0.2624 -0.5313
14691TIP3    H265565   4.755   0.740   2.361  0.0625 -0.3727  0.0993
14692TIP3   OH265566   6.311   0.582   0.684 -0.2342  0.3692 -0.0319
14692TIP3    H165567   6.345   0.670   0.667  1.7334 -0.3614 -0.0705
14692TIP3    H265568   6.217   0.595   0.695 -0.0225  2.4436 -0.2645
14693TIP3   OH265569   4.631   4.716  12.396 -0.4269  0.2100 -0.2306
14693TIP3    H165570   4.703   4.654  12.400 -1.0696 -0.5256  0.1602
14693TIP3    H265571   4.603   4.715  12.304 -1.1663 -0.9456 -0.0060
14694TIP3   OH265572   1.055   6.497   2.716  0.1756  0.2760 -0.0212
14694TIP3    H165573   0.960   6.490   2.718  0.3078 -2.9020  0.1444
14694TIP3    H265574   1.083   6.464   2.802  1.4408  1.8523  0.2182
14695TIP3   OH265575   0.351   5.748   3.701  0.0859 -0.4228 -0.3438
14695TIP3    H165576   0.415   5.682   3.727 -0.1759 -0.7683 -0.5684
14695TIP3    H265577   0.286   5.746   3.771 -0.9190 -1.7557 -1.2705
14696TIP3   OH265578   2.848   2.621  16.426 -0.4485  0.2158 -0.0851
14696TIP3    H165579   2.873   2.547  16.481  1.5982  1.3132  0.5751
14696TIP3    H265580   2.869   2.594  16.337 -0.8799 -0.4537  0.0171
14697TIP3   OH265581   3.586   6.407  16.522  0.6154  0.0751  0.2442
14697TIP3    H165582   3.538   6.325  16.507 -1.5762  1.4418 -0.6786
14697TIP3    H265583   3.584   6.452  16.438  1.3482  1.3084  0.8554
14698TIP3   OH265584   6.397   4.297   1.018 -0.1124  0.1841 -0.3509
14698TIP3    H165585   6.417   4.272   0.928  2.0010  1.0268 -0.1524
14698TIP3    H265586   6.366   4.387   1.012  0.8051  0.5215 -0.1787
14699TIP3   OH265587   2.468   1.868  16.229 -0.6148  0.0816  0.7047
14699TIP3    H165588   2.500   1.958  16.224 -0.3779 -0.0698 -1.1678
14699TIP3    H265589   2.394   1.872  16.290 -0.5122  1.5106  0.7650
14700TIP3   OH265590   3.726   2.075  15.749 -0.3571  0.4425 -0.6404
14700TIP3    H165591   3.802   2.052  15.803 -0.7441  0.7895  0.0589
14700TIP3    H265592   3.746   2.163  15.717  0.5563 -0.3238 -2.3085
14701TIP3   OH265593   5.142   6.557  16.210  0.2900  0.1618  0.1465
14701TIP3    H165594   5.082   6.553  16.136 -0.5697 -0.3705  0.8507
14701TIP3    H265595   5.221   6.598  16.175 -0.7545  1.6135 -0.6243
14702TIP3   OH265596   5.056   1.887   5.848  0.4597  0.4921 -0.1765
14702TIP3    H165597   5.049   1.833   5.927  2.3145 -1.0298 -0.9438
14702TIP3    H265598   5.110   1.961   5.874  0.1818  0.5518  0.2369
14703TIP3   OH265599   0.468   1.033  14.594 -0.4233 -0.2236  0.0558
14703TIP3    H165600   0.420   1.115  14.591 -0.8826 -0.5369 -1.9854
14703TIP3    H265601   0.560   1.059  14.592 -0.5677  0.2493 -0.6869
14704TIP3   OH265602   6.403   3.006  11.432 -0.0738 -0.0557 -0.0017
14704TIP3    H165603   6.385   3.071  11.500  1.6001 -0.2714  0.6973
14704TIP3    H265604   6.372   2.924  11.470 -0.0563 -0.0179  0.0959
14705TIP3   OH265605   1.186   3.203   5.213 -0.5444 -0.6495 -0.2318
14705TIP3    H165606   1.228   3.174   5.294 -0.0603 -0.2726 -0.3454
14705TIP3    H265607   1.121   3.135   5.194  1.5022 -2.4340 -1.2510
14706TIP3   OH265608   4.423   1.570  13.801  0.2108 -0.1156 -0.1269
14706TIP3    H165609   4.413   1.529  13.715 -0.0953 -2.3993  0.9275
14706TIP3    H265610   4.339   1.612  13.818  0.6448  1.3466 -1.3776
14707TIP3   OH265611   2.490   1.058   2.456  0.2792 -0.0764 -0.5830
14707TIP3    H165612   2.422   1.080   2.520  0.9678 -0.2935  0.2443
14707TIP3    H265613   2.452   0.985   2.406 -0.4541  0.4007 -0.7383
14708TIP3   OH265614   3.200   1.838   1.393 -0.7432  0.3226  0.5042
14708TIP3    H165615   3.231   1.928   1.401  1.0471 -0.3640  2.0282
14708TIP3    H265616   3.108   1.847   1.369 -0.6095  2.5506  0.5856
14709TIP3   OH265617   5.047   0.379   3.657  0.2234 -0.3431  0.5668
14709TIP3    H165618   5.097   0.452   3.620  2.4236 -1.6515  0.8022
14709TIP3    H265619   4.992   0.348   3.585  1.6973 -0.4970 -0.5394
14710TIP3   OH265620   6.548   2.412   1.107  0.3857  0.5139 -0.0014
14710TIP3    H165621   6.617   2.410   1.040  0.2153 -0.2626 -0.1624
14710TIP3    H265622   6.570   2.340   1.166 -0.4653  0.0360 -0.2447
14711TIP3   OH265623   1.012   0.186  14.245  0.5852 -0.1285 -0.0412
14711TIP3    H165624   0.982   0.223  14.328  0.2892 -2.0671  0.7676
14711TIP3    H265625   1.031   0.262  14.191 -3.0816  1.2753  0.3404
14712TIP3   OH265626   5.550   1.133  13.973 -0.2531 -0.7458  0.3281
14712TIP3    H165627   5.556   1.139  14.068 -5.5581  1.9728  0.8489
14712TIP3    H265628   5.493   1.058  13.957  0.6748 -1.2506 -0.8126
14713TIP3   OH265629   1.663   1.107  15.486 -0.6095  0.2540 -0.2858
14713TIP3    H165630   1.685   1.126  15.577  1.3450  0.8822 -0.8345
14713TIP3    H265631   1.607   1.030  15.490  1.1475 -1.0289  1.3548
14714TIP3   OH265632   5.237   0.680  15.610 -0.1246  0.0158  0.2528
14714TIP3    H165633   5.222   0.590  15.582  1.0678  0.2489 -1.2694
14714TIP3    H265634   5.240   0.730  15.528 -4.1415  2.0647  1.0924
14715TIP3   OH265635   6.332   1.528   5.197  0.0669 -0.7468 -0.0153
14715TIP3    H165636   6.248   1.504   5.157 -0.1279 -0.0795 -0.0283
14715TIP3    H265637   6.395   1.525   5.125  0.0867 -1.3876  0.0234
14716TIP3   OH265638   4.159   6.510   2.081 -0.1363 -0.2585 -0.8412
14716TIP3    H165639   4.092   6.552   2.026  1.2396  0.4905 -2.0020
14716TIP3    H265640   4.152   6.417   2.059 -0.7259 -0.1764 -1.0302
14717TIP3   OH265641   4.153   3.886   3.569  0.7590  0.6608 -0.0939
14717TIP3    H165642   4.223   3.910   3.509  1.8008  1.6332  1.4270
14717TIP3    H265643   4.169   3.794   3.589 -1.1376 -0.4830 -3.2016
14718TIP3   OH265644   1.356   3.566   4.874  0.0427  0.0717  0.2511
14718TIP3    H165645   1.324   3.541   4.961  0.0210  1.1997  0.5910
14718TIP3    H265646   1.434   3.513   4.860  1.9804  2.1493  2.4023
14719TIP3   OH265647   2.458   1.111  11.999 -0.1958 -0.3295  0.1764
14719TIP3    H165648   2.370   1.075  11.988  0.9452 -2.5154 -4.2047
14719TIP3    H265649   2.474   1.160  11.918  2.6317 -0.0200  0.8241
14720TIP3   OH265650   5.888   1.763  15.125 -0.3209 -0.2455  0.8741
14720TIP3    H165651   5.912   1.854  15.138  0.9542 -0.2607 -0.9810
14720TIP3    H265652   5.959   1.713  15.165  0.9119 -0.3280 -1.2503
14721TIP3   OH265653   3.560   4.214  15.172  0.4353  0.3134  0.3987
14721TIP3    H165654   3.573   4.273  15.246  1.7579 -0.0826  0.5038
14721TIP3    H265655   3.501   4.262  15.113 -0.7610  0.5654  1.7503
14722TIP3   OH265656   4.800   4.969  13.635 -0.5693  0.3404  0.7812
14722TIP3    H165657   4.886   4.932  13.654 -0.3187  0.8030  0.5646
14722TIP3    H265658   4.800   5.053  13.680 -0.6783  0.6077  0.2901
14723TIP3   OH265659   0.719   2.732  15.175 -0.2247  0.0398 -0.5289
14723TIP3    H165660   0.670   2.681  15.239  1.9319 -0.1981  1.0605
14723TIP3    H265661   0.695   2.823  15.193  0.0481 -0.0581  0.3890
14724TIP3   OH265662   1.983   1.927  15.876  0.1521 -0.2059 -0.2352
14724TIP3    H165663   1.913   1.872  15.912 -0.6454  0.4902 -0.6676
14724TIP3    H265664   2.040   1.866  15.830 -0.1485 -0.8002  0.1565
14725TIP3   OH265665   6.159   0.110  13.178 -0.4541 -0.0783 -0.4385
14725TIP3    H165666   6.238   0.164  13.165  0.5156 -1.4293 -0.4018
14725TIP3    H265667   6.151   0.062  13.096 -1.1757 -0.0470 -0.3847
14726TIP3   OH265668   0.661   2.785   2.673 -0.3571 -0.4201  0.2798
14726TIP3    H165669   0.729   2.824   2.728  0.0263 -1.3114  0.4614
14726TIP3    H265670   0.683   2.813   2.584 -0.9529  0.9902  0.5584
14727TIP3   OH265671   4.140   3.106  12.312 -0.2716  0.3115  0.3947
14727TIP3    H165672   4.185   3.119  12.229 -0.0374 -1.1496  0.2635
14727TIP3    H265673   4.055   3.150  12.300  0.1532  0.9890 -0.2349
14728TIP3   OH265674   0.717   4.868  16.033 -0.0450  0.0793 -0.4569
14728TIP3    H165675   0.698   4.956  16.065  2.2068  0.2685  0.5610
14728TIP3    H265676   0.699   4.811  16.108  2.1099  0.1603  0.2011
14729TIP3   OH265677   1.644   1.046   2.847  0.0138 -0.8257  0.0832
14729TIP3    H165678   1.724   1.076   2.888  1.7686 -1.1660 -2.7942
14729TIP3    H265679   1.609   1.124   2.803 -0.7221 -0.8936  0.5361
14730TIP3   OH265680   0.558   0.399   6.395  0.3694  0.1208 -0.2566
14730TIP3    H165681   0.535   0.408   6.487 -0.1437 -0.0559 -0.3650
14730TIP3    H265682   0.645   0.359   6.397 -0.0570 -0.8377  0.1541
14731TIP3   OH265683   3.983   1.549  14.719 -0.3065  0.4671  0.4420
14731TIP3    H165684   3.909   1.524  14.663 -0.3062 -1.8440  1.3799
14731TIP3    H265685   3.943   1.599  14.790 -0.6446  1.1944 -0.2454
14732TIP3   OH265686   1.795   4.022  11.902 -0.0526 -0.2231  0.4600
14732TIP3    H165687   1.837   4.010  11.817 -0.4806 -2.0013  0.4630
14732TIP3    H265688   1.854   4.080  11.950  1.3381 -0.9614 -0.2892
14733TIP3   OH265689   3.784   1.792  15.243  0.1281  0.5609  0.1035
14733TIP3    H165690   3.868   1.746  15.251 -0.5685 -0.7525  0.0479
14733TIP3    H265691   3.771   1.833  15.329  0.0345 -0.6372  0.6749
14734TIP3   OH265692   5.880   2.413  13.035  0.2628  0.3791  0.4400
14734TIP3    H165693   5.926   2.459  13.106  2.3619 -0.8252 -0.0505
14734TIP3    H265694   5.894   2.468  12.958  0.4413  0.2607  0.3883
14735TIP3   OH265695   5.766   2.620   0.431 -0.1587 -0.3220  0.4424
14735TIP3    H165696   5.746   2.663   0.514 -0.4886 -1.4866  0.9767
14735TIP3    H265697   5.701   2.655   0.370  1.9054  2.8625 -0.1734
14736TIP3   OH265698   3.336   1.359   5.074  0.6419  0.1376 -0.0811
14736TIP3    H165699   3.366   1.273   5.104 -0.2986  0.4419  1.8806
14736TIP3    H265700   3.302   1.343   4.986  0.0477 -1.6239  0.4234
14737TIP3   OH265701   4.386   3.872  16.478 -0.6907  0.0373 -0.7412
14737TIP3    H165702   4.395   3.785  16.515 -0.5114 -0.0219 -0.9223
14737TIP3    H265703   4.314   3.865  16.415 -2.0653  0.5135  0.7116
14738TIP3   OH265704   0.560   3.504   6.640 -0.0233  0.1184  0.4900
14738TIP3    H165705   0.484   3.464   6.597 -0.0295 -1.2655  1.7072
14738TIP3    H265706   0.633   3.446   6.618  0.4298  0.7053  0.4264
14739TIP3   OH265707   3.431   0.639   2.911 -0.5783  0.3049 -0.0645
14739TIP3    H165708   3.403   0.651   3.002 -0.5815  1.7821 -0.2321
14739TIP3    H265709   3.500   0.572   2.916 -1.1211 -0.2081  0.9059
14740TIP3   OH265710   5.822   5.263   3.137  0.0787 -0.2113  0.7168
14740TIP3    H165711   5.851   5.221   3.218 -0.1806  0.4333  1.1531
14740TIP3    H265712   5.816   5.356   3.159  0.3281  0.0178 -0.1389
14741TIP3   OH265713   4.191   5.617   3.787  0.5618  0.5918 -0.3471
14741TIP3    H165714   4.166   5.631   3.878 -1.6108  0.6889 -0.8983
14741TIP3    H265715   4.119   5.566   3.750  2.6791 -1.9153 -1.3548
14742TIP3   OH265716   6.612   0.483  15.843 -0.0807 -0.8185  0.3236
14742TIP3    H165717   6.702   0.516  15.841 -0.1117 -0.7583 -0.6874
14742TIP3    H265718   6.600   0.442  15.757 -2.2701  2.6287 -1.2431
14743TIP3   OH265719   1.736   5.461  12.110  0.5895 -0.2172 -0.1321
14743TIP3    H165720   1.793   5.480  12.186  0.5905  0.2191 -0.2389
14743TIP3    H265721   1.788   5.489  12.035 -0.2939  1.4725 -0.1463
14744TIP3   OH265722   4.515   1.516  14.985  0.3589 -0.0831  0.1864
14744TIP3    H165723   4.510   1.421  14.997 -0.6349 -0.0158  0.3939
14744TIP3    H265724   4.579   1.528  14.915  0.4634 -0.9064  0.1314
14745TIP3   OH265725   6.506   0.371  11.374 -0.1777  0.7998  0.0409
14745TIP3    H165726   6.492   0.406  11.462 -0.8777 -0.0172  0.2758
14745TIP3    H265727   6.434   0.407  11.322  0.5544  1.7329 -0.3493
14746TIP3   OH265728   1.312   3.166  11.974 -0.3897  0.3005 -0.5140
14746TIP3    H165729   1.265   3.109  11.912  0.3310  0.2262 -1.0006
14746TIP3    H265730   1.357   3.230  11.919  0.8445 -0.2032 -0.1297
14747TIP3   OH265731   4.028   4.875  14.228 -0.0988 -0.1374 -0.7469
14747TIP3    H165732   4.055   4.909  14.314  0.2235 -0.0231 -0.8886
14747TIP3    H265733   4.108   4.881  14.175  0.2788 -2.1570 -0.4769
14748TIP3   OH265734   4.650   2.790   3.044  0.0511 -0.8768 -0.1223
14748TIP3    H165735   4.726   2.837   3.079  0.3424 -2.4721  1.5177
14748TIP3    H265736   4.687   2.724   2.985 -0.1483 -0.9148 -0.2056
14749TIP3   OH265737   3.372   6.361   4.114  0.7110 -0.1658  0.3542
14749TIP3    H165738   3.374   6.428   4.182 -0.5998  0.7747 -0.4871
14749TIP3    H265739   3.279   6.339   4.105  0.9097 -0.5843 -0.8195
14750TIP3   OH265740   1.402   0.525   0.325  0.5251  0.5067  0.0319
14750TIP3    H165741   1.339   0.585   0.286 -0.5682 -0.5281  0.1476
14750TIP3    H265742   1.403   0.547   0.418  1.0215  1.1125 -0.1099
14751TIP3   OH265743   5.185   2.984   5.543  0.5918  0.1546  0.5183
14751TIP3    H165744   5.215   3.015   5.458 -1.9428 -1.9355 -1.3020
14751TIP3    H265745   5.111   3.040   5.565 -0.2694 -0.8126  0.1337
14752TIP3   OH265746   4.813   6.712   0.258  0.4575 -0.4602 -0.0878
14752TIP3    H165747   4.872   6.637   0.260 -1.3331 -1.9756 -1.0702
14752TIP3    H265748   4.766   6.707   0.341  1.6532  0.7765  0.7179
14753TIP3   OH265749   6.735   1.521  12.280  0.5641  0.4099  0.0062
14753TIP3    H165750   6.665   1.581  12.307  0.1458  0.0030 -0.1583
14753TIP3    H265751   6.816   1.563  12.311  0.2462  0.8609  0.2407
14754TIP3   OH265752   1.998   3.203   4.255 -0.1799  0.0524  0.2035
14754TIP3    H165753   2.015   3.253   4.175  1.4221  1.1273  1.1733
14754TIP3    H265754   1.910   3.166   4.242  0.0704  0.1147 -2.0735
14755TIP3   OH265755   6.139   0.859   3.357  0.1169  0.0123 -0.2156
14755TIP3    H165756   6.054   0.879   3.397  0.5885  0.3953  0.6256
14755TIP3    H265757   6.200   0.920   3.399  0.5012  1.0375 -2.1459
14756TIP3   OH265758   6.294   0.188  13.630 -0.0176 -0.4630  0.6327
14756TIP3    H165759   6.249   0.206  13.547 -0.3456  0.4435  0.9958
14756TIP3    H265760   6.264   0.101  13.656 -1.3500  0.0042  0.7217
14757TIP3   OH265761   3.348   0.020   2.779 -0.5450 -0.0318  0.0178
14757TIP3    H165762   3.382   0.075   2.708 -1.2289 -0.1885 -0.4532
14757TIP3    H265763   3.265  -0.013   2.744 -1.7472  1.2410  1.5252
14758TIP3   OH265764   4.845   5.924  13.785 -0.0338 -0.2128 -0.4062
14758TIP3    H165765   4.752   5.912  13.806  0.2081 -0.9576  0.2705
14758TIP3    H265766   4.854   5.886  13.697 -0.3438 -0.2236 -0.4359
14759TIP3   OH265767   0.612   0.376  14.518 -0.5126 -0.5101  0.0439
14759TIP3    H165768   0.587   0.467  14.504  0.3019 -0.2802  0.0198
14759TIP3    H265769   0.602   0.335  14.432  0.3731 -0.1194 -0.2643
14760TIP3   OH265770   4.743   2.639  13.459  0.4740 -0.0938  0.0056
14760TIP3    H165771   4.787   2.658  13.542  1.1967  0.4892 -0.5079
14760TIP3    H265772   4.650   2.645  13.480  0.6525  0.1696  0.7514
14761TIP3   OH265773   4.816   1.874   5.199  0.1454 -0.0476  0.3702
14761TIP3    H165774   4.774   1.959   5.184  1.0542  0.2836 -0.3534
14761TIP3    H265775   4.898   1.896   5.244  0.6431 -0.4991 -0.3129
14762TIP3   OH265776   3.787   5.999  15.737  0.1068 -0.1519 -0.5708
14762TIP3    H165777   3.732   5.977  15.812 -0.0547  0.5391 -0.4778
14762TIP3    H265778   3.749   6.081  15.703  1.4542  0.6866 -0.1217
14763TIP3   OH265779   1.040   3.860  13.121  0.2094  0.4473  0.6763
14763TIP3    H165780   1.113   3.897  13.169  1.1110  0.8271 -0.9450
14763TIP3    H265781   1.063   3.768  13.110  0.6855  0.6708 -0.2499
14764TIP3   OH265782   3.941   1.386   5.642  0.0678  0.8348  0.2861
14764TIP3    H165783   3.896   1.379   5.726  0.0524 -1.1638  0.1631
14764TIP3    H265784   3.900   1.461   5.599 -0.5158  1.3629  1.7084
14765TIP3   OH265785   4.985   5.928   1.042 -0.1610  0.9830  0.4430
14765TIP3    H165786   4.982   6.015   1.080 -0.7371  1.0020  0.3685
14765TIP3    H265787   4.903   5.887   1.069  0.6058  0.0510  1.4324
14766TIP3   OH265788   2.692   0.613  13.150  0.2785  0.1696 -0.2799
14766TIP3    H165789   2.614   0.569  13.117  0.3873 -0.3862  0.1966
14766TIP3    H265790   2.748   0.543  13.181  0.7764  0.5979 -0.1932
14767TIP3   OH265791   0.586   4.594   5.029 -0.0720 -0.1548 -0.2015
14767TIP3    H165792   0.560   4.557   5.113  1.9113  1.6939  1.3492
14767TIP3    H265793   0.606   4.518   4.974 -1.3463 -1.4040  0.9849
14768TIP3   OH265794   5.880   6.563  14.762  0.5049  0.0511  0.5422
14768TIP3    H165795   5.812   6.568  14.695  0.3354  1.0884  0.7703
14768TIP3    H265796   5.923   6.648  14.759 -1.0608  1.0609  3.3380
14769TIP3   OH265797   5.583   2.790  15.442  0.2395  0.0194 -0.1659
14769TIP3    H165798   5.552   2.759  15.528  0.1854  0.2580 -0.0987
14769TIP3    H265799   5.566   2.884  15.443  0.4787  0.0647 -0.3386
14770TIP3   OH265800   0.415   1.651   5.697  0.8429  0.0200 -0.3765
14770TIP3    H165801   0.405   1.621   5.787  1.1337  0.2141 -0.2760
14770TIP3    H265802   0.510   1.649   5.682  0.6908 -2.4696 -1.5246
14771TIP3   OH265803   1.027   3.292   5.819 -0.2789 -0.5622 -0.0226
14771TIP3    H165804   1.049   3.321   5.730  0.9870 -1.5250 -0.0541
14771TIP3    H265805   1.066   3.358   5.876 -1.7601  0.4864 -0.1539
14772TIP3   OH265806   0.731   5.063  13.011 -0.4715  0.7564  0.1030
14772TIP3    H165807   0.690   5.056  13.097 -1.4676  0.2769 -0.3864
14772TIP3    H265808   0.817   5.101  13.027  0.7776 -2.4286  1.7181
14773TIP3   OH265809   2.573   0.979  13.440 -0.3568  0.3907  0.0299
14773TIP3    H165810   2.645   0.921  13.415 -0.1708  0.0379  1.2856
14773TIP3    H265811   2.553   0.954  13.530 -0.0394  2.4938  0.7351
14774TIP3   OH265812   3.865   0.079   5.517  0.5844  0.2415  0.0268
14774TIP3    H165813   3.873   0.001   5.572 -0.9285 -0.2949 -0.4428
14774TIP3    H265814   3.911   0.056   5.436 -1.2388 -0.8985 -0.7808
14775TIP3   OH265815   0.324   4.509  15.913 -0.2620 -0.1699  0.1911
14775TIP3    H165816   0.286   4.555  15.838 -3.2049 -2.3963  0.1686
14775TIP3    H265817   0.315   4.571  15.985 -2.9305 -0.0975 -0.1096
14776TIP3   OH265818   2.885   4.228  15.835  0.1090 -0.6255  0.2131
14776TIP3    H165819   2.812   4.185  15.880  0.2638 -1.4001 -0.2502
14776TIP3    H265820   2.891   4.315  15.875 -0.4618 -0.8982  0.9074
14777TIP3   OH265821   5.258   1.057  16.890 -0.0099  0.4462 -0.1564
14777TIP3    H165822   5.305   1.140  16.895 -0.7135  0.8640 -0.3591
14777TIP3    H265823   5.217   1.047  16.976 -0.6479  0.7525 -0.4162
14778TIP3   OH265824   1.712   5.651  12.638  0.2980 -0.0915  0.2264
14778TIP3    H165825   1.690   5.563  12.610  0.3472  0.5225 -1.9146
14778TIP3    H265826   1.636   5.704  12.614  0.6623  0.6174  0.5866
14779TIP3   OH265827   6.309   3.512   0.092  0.8252 -0.3467 -0.3475
14779TIP3    H165828   6.365   3.440   0.066  0.1219 -0.6080 -1.2127
14779TIP3    H265829   6.250   3.475   0.158  0.9699 -0.3509 -0.2200
14780TIP3   OH265830   1.306   0.255  16.059 -0.0453  0.1168  0.0937
14780TIP3    H165831   1.231   0.298  16.101 -2.6325 -2.3095 -1.6958
14780TIP3    H265832   1.273   0.169  16.033  2.8309 -0.3845 -2.4432
14781TIP3   OH265833   0.266   6.137   0.302  0.3383 -0.2773  0.0411
14781TIP3    H165834   0.270   6.047   0.269  0.5032 -0.7396  1.2474
14781TIP3    H265835   0.357   6.160   0.318  0.2215 -0.3630  0.8914
14782TIP3   OH265836   5.575   6.773  14.254 -0.0191 -0.3437 -0.5397
14782TIP3    H165837   5.521   6.716  14.199  0.0748 -0.6036 -0.3706
14782TIP3    H265838   5.653   6.791  14.202  0.4502 -1.2699 -0.1848
14783TIP3   OH265839   6.690   2.364  15.649  0.4044  0.0444 -0.4295
14783TIP3    H165840   6.741   2.290  15.682 -0.9118 -0.9495 -0.5594
14783TIP3    H265841   6.615   2.370  15.708  0.7813  1.6785 -0.0580
14784TIP3   OH265842   5.018   1.671   5.162 -0.0459 -0.4418 -0.6517
14784TIP3    H165843   4.952   1.740   5.148 -0.5795 -0.6829  0.5775
14784TIP3    H265844   5.069   1.702   5.237  0.5370 -0.7992 -0.8932
14785TIP3   OH265845   4.459   4.442  12.423 -0.2052 -0.3770 -0.4903
14785TIP3    H165846   4.462   4.531  12.457 -1.2550 -0.2223 -0.7562
14785TIP3    H265847   4.379   4.404  12.461 -0.4814 -0.7588 -1.4203
14786TIP3   OH265848   5.173   5.461  14.840  0.3769 -0.0822 -0.3374
14786TIP3    H165849   5.137   5.543  14.805  0.7202  0.6014  0.8431
14786TIP3    H265850   5.107   5.395  14.820  0.5705  0.2547 -2.2676
14787TIP3   OH265851   0.427   3.707  14.104  0.1229 -0.2570  0.4951
14787TIP3    H165852   0.492   3.777  14.102 -0.5936  0.4144 -1.4384
14787TIP3    H265853   0.347   3.749  14.137  0.0310 -0.4821  0.5625
14788TIP3   OH265854   2.801   3.070   3.395  0.2691 -0.1215 -0.1050
14788TIP3    H165855   2.717   3.075   3.440  0.6293  0.0820  0.5491
14788TIP3    H265856   2.860   3.124   3.447  0.6465  0.2958 -0.9321
14789TIP3   OH265857   6.060   5.300   2.884 -0.4808 -0.0954 -0.0816
14789TIP3    H165858   6.080   5.369   2.946 -0.4117  3.2750 -3.4726
14789TIP3    H265859   6.131   5.237   2.894 -0.4734  0.2648  3.0868
14790TIP3   OH265860   5.907   5.611   2.935 -0.4558  0.6003  0.4734
14790TIP3    H165861   5.814   5.618   2.955 -0.6348  0.5751 -0.3205
14790TIP3    H265862   5.935   5.531   2.981 -1.5925 -1.3056 -1.9404
14791TIP3   OH265863   4.352   1.411  11.136  0.1722  0.4659 -0.4484
14791TIP3    H165864   4.338   1.410  11.041 -0.8561  1.1864 -0.3113
14791TIP3    H265865   4.283   1.467  11.170  0.8532  0.6442  0.6857
14792TIP3   OH265866   0.724   1.007  12.100  0.4522  0.1202  0.3117
14792TIP3    H165867   0.725   1.102  12.089  0.1168  0.2432  1.2500
14792TIP3    H265868   0.817   0.983  12.106  0.5153  0.7315  2.6204
14793TIP3   OH265869   2.201   0.650  16.613  0.3960 -0.3633 -0.1938
14793TIP3    H165870   2.276   0.684  16.563 -0.6940  1.0412 -0.9785
14793TIP3    H265871   2.126   0.667  16.556 -0.4673 -2.3577  0.2786
14794TIP3   OH265872   1.219   0.547  15.844 -0.5846 -0.0609  0.7827
14794TIP3    H165873   1.305   0.515  15.816 -0.4997  0.1692  0.7803
14794TIP3    H265874   1.234   0.638  15.870 -0.7258 -0.1831  1.2889
14795TIP3   OH265875   3.592   5.134   3.626  0.3638 -0.6334  0.1132
14795TIP3    H165876   3.566   5.074   3.556 -0.5955  0.2345 -0.2968
14795TIP3    H265877   3.611   5.217   3.581  1.5013 -0.5527  0.6877
14796TIP3   OH265878   2.840   4.319   4.018 -0.4258  0.0180 -0.1120
14796TIP3    H165879   2.776   4.377   3.976  0.4996  0.2526 -1.2582
14796TIP3    H265880   2.791   4.238   4.035 -0.6813 -0.3660 -2.3592
14797TIP3   OH265881   2.708   6.281   5.750 -0.1149 -0.6094 -0.6885
14797TIP3    H165882   2.741   6.273   5.840 -0.5142 -1.4247 -0.6085
14797TIP3    H265883   2.704   6.376   5.735 -0.3510 -0.4522  0.2762
14798TIP3   OH265884   6.121   6.707   5.466 -0.0847  0.0226 -0.6281
14798TIP3    H165885   6.202   6.659   5.450  0.2328  0.6932 -1.0651
14798TIP3    H265886   6.146   6.780   5.523 -0.3981  0.1629 -0.6663
14799TIP3   OH265887   6.256   0.345   0.066 -0.4117 -0.1682  0.2391
14799TIP3    H165888   6.273   0.270   0.124  1.9612 -0.0351 -0.2161
14799TIP3    H265889   6.220   0.412   0.124  2.3129  0.1224  1.7549
14800TIP3   OH265890   6.202   3.861   0.320  0.0223 -0.2009 -0.3101
14800TIP3    H165891   6.225   3.801   0.249  0.7803 -0.2030 -0.0626
14800TIP3    H265892   6.212   3.948   0.283 -2.1336 -0.1836 -1.0176
14801TIP3   OH265893   5.496   4.000  15.301  0.2925 -0.4467 -0.4937
14801TIP3    H165894   5.488   4.013  15.396 -2.6958  1.2936 -0.8785
14801TIP3    H265895   5.457   3.914  15.285 -3.7563  1.1734 -0.4887
14802TIP3   OH265896   0.941   6.160   5.538 -0.5157 -1.0282  0.4335
14802TIP3    H165897   1.033   6.172   5.558 -0.2135  0.0820 -1.3766
14802TIP3    H265898   0.939   6.086   5.477 -0.6933 -0.4615 -0.2642
14803TIP3   OH265899   6.376   4.812  14.489 -0.1328 -0.1346  0.2703
14803TIP3    H165900   6.313   4.810  14.561 -0.9944 -0.0269 -0.4594
14803TIP3    H265901   6.350   4.887  14.436  2.0288  1.3229  1.1640
14804TIP3   OH265902   5.321   5.312   3.473  0.2737  0.1396  0.4347
14804TIP3    H165903   5.272   5.395   3.476  1.0757  0.6616 -0.5095
14804TIP3    H265904   5.339   5.292   3.565  0.0270  0.9921  0.6821
14805TIP3   OH265905   0.493   4.859  12.781  0.2151 -0.0660 -0.0841
14805TIP3    H165906   0.495   4.764  12.787  1.1710  0.0173  1.4940
14805TIP3    H265907   0.585   4.885  12.781 -0.0136  0.9511  2.1998
14806TIP3   OH265908   1.899   1.903  15.037  0.3223 -0.4571  0.2867
14806TIP3    H165909   1.939   1.867  15.116 -0.4911  1.2537  1.5542
14806TIP3    H265910   1.940   1.855  14.965  1.3411 -1.8365  1.7141
14807TIP3   OH265911   6.343   3.035   2.444  1.0103  0.7085 -0.6365
14807TIP3    H165912   6.337   3.131   2.443  1.3740  0.7780  1.0829
14807TIP3    H265913   6.270   3.006   2.389 -1.0352  1.9433  1.2757
14808TIP3   OH265914   0.986   3.686  13.534  0.1494  0.3938  0.4001
14808TIP3    H165915   0.955   3.756  13.476  1.3677  1.0526  0.5121
14808TIP3    H265916   0.951   3.709  13.620  0.2776  0.7097  0.3718
14809TIP3   OH265917   5.104   6.579  16.845  0.2694 -0.6923 -0.0499
14809TIP3    H165918   5.047   6.563  16.920 -1.0942  0.9846 -0.6607
14809TIP3    H265919   5.142   6.493  16.825 -0.8142 -1.5485  1.3623
14810TIP3   OH265920   2.263   5.336   3.341  0.4323  0.5944 -0.1714
14810TIP3    H165921   2.222   5.327   3.255 -1.7336 -0.8146  0.9105
14810TIP3    H265922   2.241   5.254   3.386  0.5491  1.7284  2.0891
14811TIP3   OH265923   2.376   5.970  12.550  0.0314 -0.2706 -0.5255
14811TIP3    H165924   2.383   6.029  12.475 -0.4677 -0.6463 -0.8690
14811TIP3    H265925   2.299   6.001  12.597 -0.2852 -0.6993 -0.7543
14812TIP3   OH265926   6.192   6.622  11.748 -0.4356  0.0029  0.0231
14812TIP3    H165927   6.240   6.608  11.666 -0.8752 -0.2613 -0.2008
14812TIP3    H265928   6.102   6.595  11.727 -0.0575 -2.6893  1.3231
14813TIP3   OH265929   1.400   3.437   0.291  0.6737  0.3909  0.1435
14813TIP3    H165930   1.317   3.483   0.306  1.0319  0.6226  1.6071
14813TIP3    H265931   1.427   3.464   0.203 -1.1133 -0.2090 -0.6315
14814TIP3   OH265932   1.313   5.119   5.694  0.4842 -0.3600 -0.3452
14814TIP3    H165933   1.381   5.090   5.755 -0.6099  0.4413  1.3335
14814TIP3    H265934   1.287   5.205   5.727  0.3175  0.4238 -2.3867
14815TIP3   OH265935   3.633   6.428  11.424  0.4923  0.2532 -0.0539
14815TIP3    H165936   3.621   6.518  11.395  2.0974  0.5684  0.1375
14815TIP3    H265937   3.678   6.437  11.508 -0.1791 -0.7179  0.4194
14816TIP3   OH265938   4.209   3.137   5.562  0.4032  0.1742  0.0007
14816TIP3    H165939   4.253   3.215   5.529 -1.3465  0.6148 -1.5230
14816TIP3    H265940   4.116   3.152   5.543 -0.3744 -0.9914  2.3997
14817TIP3   OH265941   0.172   4.905   3.667 -0.3742  0.2191 -0.4487
14817TIP3    H165942   0.133   4.987   3.635 -0.5290  0.5095  0.4679
14817TIP3    H265943   0.134   4.892   3.753 -0.8018 -1.1475 -0.8289
14818TIP3   OH265944   5.139   5.150   3.379  0.0510 -0.2697 -0.4047
14818TIP3    H165945   5.212   5.207   3.403 -0.6161 -0.3603  2.1334
14818TIP3    H265946   5.081   5.152   3.455 -3.2015  0.6788 -2.6747
14819TIP3   OH265947   3.228   1.037   4.034 -0.0477  0.2123 -0.1115
14819TIP3    H165948   3.319   1.034   4.005  0.4640  2.1150  1.1334
14819TIP3    H265949   3.178   1.058   3.955  1.0690  3.1857 -0.1411
14820TIP3   OH265950   4.517   0.272   3.823  0.1722  0.0429 -0.8135
14820TIP3    H165951   4.610   0.248   3.820  0.4153  0.9973 -3.4039
14820TIP3    H265952   4.496   0.297   3.733 -2.1086  1.7275  0.1017
14821TIP3   OH265953   5.517   3.511  13.167  0.1351 -0.8071 -0.4280
14821TIP3    H165954   5.552   3.517  13.078 -0.5086  0.2582 -0.6290
14821TIP3    H265955   5.537   3.596  13.206 -0.0372 -1.0840  0.2752
14822TIP3   OH265956   2.478   4.052   4.972 -0.2699 -0.5912  0.2861
14822TIP3    H165957   2.571   4.034   4.959 -0.0208  0.0344  1.1224
14822TIP3    H265958   2.440   4.044   4.885  0.3350 -2.1288  0.1322
14823TIP3   OH265959   0.845   5.108  13.446 -0.1097  0.5648 -0.2475
14823TIP3    H165960   0.834   5.104  13.541 -0.1536  0.6032 -0.2512
14823TIP3    H265961   0.795   5.185  13.419 -2.5529 -1.0546 -0.6671
14824TIP3   OH265962   2.636   5.002  14.476 -0.7022 -0.5404 -0.4095
14824TIP3    H165963   2.564   5.042  14.525 -0.6557  0.4446 -1.1245
14824TIP3    H265964   2.714   5.019  14.529 -0.6621  0.4692 -0.7724
14825TIP3   OH265965   2.251   4.336  14.617 -0.0983  0.0015  0.2070
14825TIP3    H165966   2.165   4.298  14.600 -0.9183  1.7556  0.1894
14825TIP3    H265967   2.254   4.349  14.712 -0.3567  0.9980  0.0949
14826TIP3   OH265968   5.031   4.227   1.373 -0.4353  0.2274 -0.3046
14826TIP3    H165969   5.050   4.315   1.342 -1.8072  0.3010 -1.0052
14826TIP3    H265970   4.940   4.212   1.349 -1.4710  0.0408  3.2127
14827TIP3   OH265971   1.090   0.926   4.987 -0.3414  0.1839 -0.3985
14827TIP3    H165972   0.995   0.930   4.977 -0.3087  2.6451 -0.3858
14827TIP3    H265973   1.124   0.978   4.914  0.8150  1.6714  1.1254
14828TIP3   OH265974   3.494   6.385   1.449  0.0226  0.8782  0.0057
14828TIP3    H165975   3.426   6.369   1.514  0.3504  1.2229  0.4447
14828TIP3    H265976   3.497   6.481   1.441  0.1859  0.8501 -0.2982
14829TIP3   OH265977   1.889   3.313  13.413 -0.0737  0.1674 -0.6987
14829TIP3    H165978   1.835   3.345  13.340 -1.3321 -1.4298 -0.5252
14829TIP3    H265979   1.932   3.235  13.379 -0.3509 -0.3593  0.1409
14830TIP3   OH265980   1.976   4.270  14.562  0.1539 -0.0629  0.1677
14830TIP3    H165981   1.926   4.210  14.616  0.4246  0.0751  0.5727
14830TIP3    H265982   1.919   4.347  14.551 -0.1596 -0.3559 -0.2856
14831TIP3   OH265983   4.950   4.119   5.031  0.5397 -0.0685 -0.0791
14831TIP3    H165984   4.955   4.151   5.121  3.6517 -1.9489  0.5722
14831TIP3    H265985   4.885   4.049   5.033  1.1762 -0.6435  0.9415
14832TIP3   OH265986   3.439   6.107  14.000 -0.2267 -0.1883  0.4086
14832TIP3    H165987   3.476   6.092  13.913  0.2183 -0.5956  0.6668
14832TIP3    H265988   3.384   6.030  14.016  1.1249 -1.0336  1.2394
14833TIP3   OH265989   5.923   3.268   1.941  0.5186  0.1033  0.6046
14833TIP3    H165990   5.850   3.316   1.901  2.0627  2.2828  0.1971
14833TIP3    H265991   5.979   3.244   1.868  1.4808  0.7565  1.1012
14834TIP3   OH265992   2.958   5.324   3.365  0.4560 -0.0163  0.4049
14834TIP3    H165993   3.053   5.325   3.375  0.4660 -0.1155  0.3212
14834TIP3    H265994   2.925   5.302   3.453  0.5261 -0.3769  0.3438
14835TIP3   OH265995   4.856   1.488   4.539 -0.4374  0.0031  0.2440
14835TIP3    H165996   4.884   1.435   4.613  2.3274  0.1318 -0.5951
14835TIP3    H265997   4.931   1.488   4.479 -1.6206  1.9649 -1.3971
14836TIP3   OH265998   5.954   4.072  16.457 -0.1172  0.3282 -0.4950
14836TIP3    H165999   6.004   4.104  16.532 -1.7713  1.4356  0.2048
14836TIP3    H266000   5.922   3.986  16.485  1.9038 -0.7281 -1.2349
14837TIP3   OH266001   0.458   4.269   3.147 -0.0679 -0.3632  0.9021
14837TIP3    H166002   0.404   4.321   3.207 -1.7816 -1.3396  0.2659
14837TIP3    H266003   0.418   4.182   3.147  0.8324 -0.8150 -0.4901
14838TIP3   OH266004   3.830   1.383  16.211 -0.2802 -0.5166  0.0336
14838TIP3    H166005   3.922   1.406  16.216 -0.8030  1.5985  0.9966
14838TIP3    H266006   3.787   1.462  16.178 -1.9279 -0.9354  1.0580
14839TIP3   OH266007   2.693   0.571  15.844  0.3310 -0.6170 -0.0038
14839TIP3    H166008   2.755   0.579  15.771  0.4484  1.6088  0.2878
14839TIP3    H266009   2.649   0.656  15.848 -1.7151 -1.6496  0.7552
14840TIP3   OH266010   3.684   3.494   2.248 -0.2467  0.9292 -0.5642
14840TIP3    H166011   3.681   3.474   2.154 -0.7050  0.6557 -0.4932
14840TIP3    H266012   3.626   3.570   2.258 -0.4580  0.7515 -0.4487
14841TIP3   OH266013   3.697   0.213  17.192  0.6675  0.3504  0.0113
14841TIP3    H166014   3.757   0.153  17.147 -0.5702  1.5631 -3.5804
14841TIP3    H266015   3.722   0.300  17.162 -2.4414  0.9516 -1.2299
14842TIP3   OH266016   6.813   1.099   5.528  0.3748  0.0954 -0.0199
14842TIP3    H166017   6.904   1.129   5.529  0.4606 -0.1721  1.3623
14842TIP3    H266018   6.769   1.155   5.591 -0.1771 -0.5194  0.1460
14843TIP3   OH266019   2.795   1.232   1.628  0.3339 -0.2375  0.1725
14843TIP3    H166020   2.702   1.253   1.629  0.2813 -0.1432 -2.0623
14843TIP3    H266021   2.800   1.148   1.583  1.3305 -0.2643  0.3077
14844TIP3   OH266022   5.681   0.114   2.605 -0.2008 -0.1011  0.7255
14844TIP3    H166023   5.616   0.043   2.601  1.9734 -2.1762  0.1656
14844TIP3    H266024   5.704   0.130   2.513  0.2444  0.4573  0.9304
14845TIP3   OH266025   4.070   6.484  15.265 -0.0573  0.8330 -0.1349
14845TIP3    H166026   4.025   6.434  15.333  1.9979 -1.7547 -0.4989
14845TIP3    H266027   4.122   6.549  15.313  0.3808 -0.1233  0.7369
14846TIP3   OH266028   5.657   2.078  13.068  0.5823 -0.3049  0.5643
14846TIP3    H166029   5.628   2.006  13.124 -0.0712 -0.2446  0.3156
14846TIP3    H266030   5.722   2.125  13.120  1.5030 -1.4522  0.4800
14847TIP3   OH266031   0.305   2.183   1.860  0.1968 -0.0438 -0.3872
14847TIP3    H166032   0.397   2.191   1.885 -0.1065  0.9695  0.4642
14847TIP3    H266033   0.270   2.116   1.918 -0.1062  1.1255  0.8204
14848TIP3   OH266034   4.156   4.661   4.179 -0.1741  0.2154 -0.1312
14848TIP3    H166035   4.132   4.690   4.091 -1.4541 -1.4964 -0.4080
14848TIP3    H266036   4.174   4.741   4.227 -0.5925  1.2550 -1.6498
14849TIP3   OH266037   4.250   0.650  16.953 -0.0674 -0.5868 -0.0590
14849TIP3    H166038   4.302   0.731  16.950 -0.3894 -0.2560  1.7726
14849TIP3    H266039   4.315   0.580  16.954  0.2316 -0.3420 -1.1297
14850TIP3   OH266040   4.183   1.598  12.453  0.2190  0.2369  0.0943
14850TIP3    H166041   4.121   1.653  12.405  1.9822  0.4080 -2.1524
14850TIP3    H266042   4.213   1.533  12.389 -0.1408 -1.9924  2.0760
14851TIP3   OH266043   4.733   4.667   5.864 -0.6062  0.8082 -0.3930
14851TIP3    H166044   4.711   4.665   5.770 -0.7950 -1.4505 -0.3474
14851TIP3    H266045   4.647   4.665   5.908 -0.5058 -1.3085 -0.2116
14852TIP3   OH266046   3.725   5.820  11.189 -0.0961 -0.0687  0.3432
14852TIP3    H166047   3.716   5.906  11.148 -0.8309  1.1011  2.7381
14852TIP3    H266048   3.649   5.771  11.160  0.8209 -0.3237 -1.8206
14853TIP3   OH266049   0.443   2.571   3.132 -0.2760  0.0748 -0.4264
14853TIP3    H166050   0.508   2.640   3.128  0.6718 -0.8192 -0.7900
14853TIP3    H266051   0.463   2.514   3.057 -0.1293 -1.3722  0.6737
14854TIP3   OH266052   1.562   4.663  14.516  0.3668 -0.1915  0.1553
14854TIP3    H166053   1.553   4.648  14.421 -1.3421  0.9079  0.0953
14854TIP3    H266054   1.606   4.747  14.522 -1.3098  0.7087  0.2762
14855TIP3   OH266055   5.910   3.830   2.178  0.0341 -0.1451 -0.4485
14855TIP3    H166056   5.823   3.870   2.173 -0.6257 -1.6677 -2.2290
14855TIP3    H266057   5.903   3.766   2.249 -0.3173 -0.2421 -0.5659
14856TIP3   OH266058   2.419   1.186   5.494 -0.3562 -0.5067  0.0852
14856TIP3    H166059   2.498   1.228   5.530 -2.1752  3.5910 -0.0620
14856TIP3    H266060   2.451   1.127   5.426  2.6213 -0.3257  1.1971
14857TIP3   OH266061   2.931   3.132   1.398  0.0820 -0.2832 -0.4899
14857TIP3    H166062   2.998   3.097   1.340  0.0066 -1.1690 -0.0573
14857TIP3    H266063   2.973   3.133   1.485  0.3365  1.4106 -0.5958
14858TIP3   OH266064   1.262   4.260  11.665 -0.1284 -0.3454  0.1016
14858TIP3    H166065   1.327   4.283  11.731  0.3574 -0.5338 -0.3072
14858TIP3    H266066   1.282   4.170  11.641 -0.6259 -0.4498  0.0747
14859TIP3   OH266067   4.640   4.739  15.782  0.0784 -0.5610  0.0794
14859TIP3    H166068   4.629   4.821  15.735 -0.2198 -1.3535 -1.2963
14859TIP3    H266069   4.735   4.728  15.788  0.1304 -0.6470 -0.7422
14860TIP3   OH266070   3.707   4.515   5.678 -0.0660 -0.4957 -0.1555
14860TIP3    H166071   3.617   4.521   5.645 -0.4647 -0.0763  0.9513
14860TIP3    H266072   3.759   4.494   5.601 -1.0416 -0.2160 -0.9188
14861TIP3   OH266073   3.294   3.050   1.512 -0.4741 -0.0242  0.1459
14861TIP3    H166074   3.278   2.960   1.485 -1.0430  0.7377 -2.3412
14861TIP3    H266075   3.311   3.097   1.430 -1.7406  2.4482  1.1943
14862TIP3   OH266076   1.039   3.812   2.262 -0.8210 -0.2759  0.2464
14862TIP3    H166077   1.033   3.828   2.168 -0.7763 -0.3471  0.2313
14862TIP3    H266078   1.002   3.891   2.302  0.4909  0.4027  0.1955
14863TIP3   OH266079   1.981   1.768   0.286  0.2653 -1.0567 -0.6412
14863TIP3    H166080   2.051   1.788   0.348 -0.1890 -0.2249 -0.3668
14863TIP3    H266081   1.915   1.722   0.338 -0.2815 -0.0323 -0.3852
14864TIP3   OH266082   2.933   6.678   4.273 -0.5257  0.3923  0.3401
14864TIP3    H166083   2.881   6.600   4.292 -1.5461  1.1079  0.5902
14864TIP3    H266084   2.988   6.690   4.351 -0.0883 -0.2848  0.1390
14865TIP3   OH266085   2.479   2.375   4.668  0.2193  0.9924 -0.1823
14865TIP3    H166086   2.526   2.393   4.586  1.8057 -0.1127  0.4393
14865TIP3    H266087   2.547   2.349   4.729 -1.3191 -2.0774  0.3838
14866TIP3   OH266088   4.855   0.615  17.144 -0.6566  0.3511  0.2452
14866TIP3    H166089   4.907   0.690  17.118 -0.7848  0.5240  0.4886
14866TIP3    H266090   4.864   0.553  17.072  0.5473  0.0433  0.6470
14867TIP3   OH266091   0.532   0.675   4.550  0.0875  0.4143  0.2070
14867TIP3    H166092   0.483   0.598   4.577 -0.8541  0.7595 -0.4598
14867TIP3    H266093   0.624   0.648   4.553 -0.0672 -0.0495  2.1173
14868TIP3   OH266094   5.365   0.081   4.394  0.3589  0.1781 -0.3502
14868TIP3    H166095   5.387   0.168   4.362 -0.1931  0.3634 -0.2385
14868TIP3    H266096   5.317   0.040   4.322  2.2264 -0.7445 -1.1443
14869TIP3   OH266097   4.616   3.103   4.905  0.0207  0.5337  0.3326
14869TIP3    H166098   4.526   3.116   4.873  0.3123 -1.0920 -1.3102
14869TIP3    H266099   4.622   3.009   4.920  0.9261  0.8420  2.2201
14870TIP3   OH266100   4.919   4.001   5.442 -0.0890  0.3064  0.1782
14870TIP3    H166101   4.973   4.046   5.377 -0.9576 -0.9814 -1.5148
14870TIP3    H266102   4.832   4.041   5.432 -0.2989 -0.1070  0.3331
14871TIP3   OH266103   4.099   4.859  12.590  0.0169 -0.8104 -0.2362
14871TIP3    H166104   4.162   4.870  12.520 -0.2894  1.5676 -0.2100
14871TIP3    H266105   4.147   4.883  12.670 -0.7358  0.6157 -0.1702
14872TIP3   OH266106   0.613   1.944  16.445 -0.2099  0.2080  0.5776
14872TIP3    H166107   0.657   1.954  16.529 -0.0208  0.0095  0.5051
14872TIP3    H266108   0.541   1.883  16.462 -0.2185  0.2278  0.6120
14873TIP3   OH266109   5.918   6.301   3.664  0.1154  0.0553  0.0230
14873TIP3    H166110   5.949   6.327   3.577 -0.6674  0.0484 -0.2655
14873TIP3    H266111   5.842   6.246   3.646  1.1147 -1.5965  0.6483
14874TIP3   OH266112   1.365   5.473   3.568 -0.2666  0.4757  0.3893
14874TIP3    H166113   1.354   5.501   3.659 -0.7730  0.4309  0.3492
14874TIP3    H266114   1.361   5.555   3.517  0.0959  0.5084  0.4131
14875TIP3   OH266115   4.645   3.395   3.349  0.5165  0.1782  0.3779
14875TIP3    H166116   4.665   3.481   3.386  0.7081 -0.1185  0.9761
14875TIP3    H266117   4.577   3.360   3.407 -0.9595  0.7043 -0.9548
14876TIP3   OH266118   5.645   5.792   5.217  0.3883  0.3973  0.3436
14876TIP3    H166119   5.623   5.732   5.289 -0.5147 -1.1030 -1.1242
14876TIP3    H266120   5.563   5.835   5.195  0.1305 -0.8530 -1.2719
14877TIP3   OH266121   1.690   4.923   0.756  0.0813 -0.5279  0.4182
14877TIP3    H166122   1.605   4.883   0.735 -0.1193  0.5167 -0.9943
14877TIP3    H266123   1.693   5.000   0.699  2.6081 -1.3211 -0.6527
14878TIP3   OH266124   6.248   6.091  15.602 -0.6430  0.1043 -0.4947
14878TIP3    H166125   6.212   6.173  15.634 -0.1211  0.6786 -1.3504
14878TIP3    H266126   6.196   6.070  15.524  0.4692  0.6589 -1.4233
14879TIP3   OH266127   0.238   6.508   2.978  0.2055 -0.2314 -0.0048
14879TIP3    H166128   0.277   6.475   2.897  0.2989 -0.3417  0.0854
14879TIP3    H266129   0.145   6.517   2.958  0.1821 -0.5422 -0.0313
14880TIP3   OH266130   3.189   3.857  17.191  0.1522  0.6585 -0.1329
14880TIP3    H166131   3.238   3.933  17.223  1.2341  0.0946 -0.4022
14880TIP3    H266132   3.226   3.782  17.239  0.7169  0.0056 -1.5385
14881TIP3   OH266133   6.158   0.628  12.594  0.2194  0.4803 -0.0262
14881TIP3    H166134   6.226   0.601  12.532  0.1613 -1.0476  0.5213
14881TIP3    H266135   6.134   0.716  12.567 -0.5679 -0.4897 -2.8646
14882TIP3   OH266136   2.166   0.974  10.561  0.2060 -0.2339 -0.2729
14882TIP3    H166137   2.185   0.942  10.650  0.9709 -2.0686 -1.0423
14882TIP3    H266138   2.246   1.019  10.534  0.3995 -0.6685 -0.4356
14883TIP3   OH266139   3.546   1.817  15.052  0.0112 -0.2987 -0.8508
14883TIP3    H166140   3.605   1.757  15.007  0.5758  0.9845 -1.9168
14883TIP3    H266141   3.590   1.836  15.136  0.1307 -0.8825 -0.7809
14884TIP3   OH266142   4.605   1.094   5.735 -0.0211 -0.0628 -0.1523
14884TIP3    H166143   4.683   1.120   5.686 -0.5196 -0.0443 -0.9456
14884TIP3    H266144   4.629   1.010   5.774  0.2302 -0.3001 -0.7991
14885TIP3   OH266145   0.494   2.138  11.648  0.1627  0.2085 -0.0132
14885TIP3    H166146   0.471   2.096  11.565  0.7734 -2.0968  0.8989
14885TIP3    H266147   0.587   2.159  11.640  0.0646  0.5932 -0.1498
14886TIP3   OH266148   1.557   1.406  12.874  0.1758  0.0097  0.0436
14886TIP3    H166149   1.599   1.385  12.958  2.4322  1.6577 -0.5889
14886TIP3    H266150   1.567   1.326  12.823  0.5919 -0.3551  0.6747
14887TIP3   OH266151   6.037   3.518  17.171 -0.0638 -0.4457  0.4920
14887TIP3    H166152   6.091   3.440  17.172 -0.0582 -0.4713  2.6274
14887TIP3    H266153   6.001   3.524  17.260 -0.6619  1.5497  0.1759
14888TIP3   OH266154   2.137   3.477  16.553 -0.1962 -0.0866  0.4971
14888TIP3    H166155   2.087   3.558  16.546 -0.6179 -0.2536  1.4018
14888TIP3    H266156   2.155   3.452  16.463  0.1861  1.1564  0.1992
14889TIP3   OH266157   3.348   1.085   4.744  0.3825  0.0833  0.0702
14889TIP3    H166158   3.269   1.108   4.696 -0.2541  0.0643  1.0768
14889TIP3    H266159   3.334   0.995   4.773  0.2997  0.4347  1.1597
14890TIP3   OH266160   5.594   3.551  14.305 -0.0683  0.2312  0.0262
14890TIP3    H166161   5.504   3.543  14.335  0.0599  0.8690  0.5977
14890TIP3    H266162   5.647   3.525  14.381  0.2597  1.8874  0.3988
14891TIP3   OH266163   5.877   2.145   4.982 -0.5119 -0.6388 -0.0163
14891TIP3    H166164   5.949   2.133   5.043 -0.6234  1.4132  0.6046
14891TIP3    H266165   5.855   2.057   4.952  0.6052 -1.5289  1.6602
14892TIP3   OH266166   0.546   5.866  14.010 -0.0769 -0.0690  0.2992
14892TIP3    H166167   0.581   5.777  14.016 -2.3864 -1.0755 -0.1778
14892TIP3    H266168   0.510   5.883  14.096  0.2162  0.3692  0.3396
14893TIP3   OH266169   2.538   4.098  11.631  0.3120  0.7009 -0.1203
14893TIP3    H166170   2.508   4.133  11.547 -1.7133  1.3781  0.8032
14893TIP3    H266171   2.531   4.003  11.621  1.3849  0.7014 -1.1238
14894TIP3   OH266172   1.674   2.002  15.191 -0.5120  0.0662 -0.4367
14894TIP3    H166173   1.636   1.925  15.149  1.8869 -1.0904 -0.6027
14894TIP3    H266174   1.762   2.009  15.154 -0.1384  2.0070  0.6950
14895TIP3   OH266175   6.662   4.701  14.970 -0.1596  0.0419 -0.0200
14895TIP3    H166176   6.654   4.668  15.060  0.3643 -0.3000 -0.0995
14895TIP3    H266177   6.662   4.623  14.915  0.7402  0.1812 -0.2315
14896TIP3   OH266178   4.741   0.159   2.206  0.1142 -0.0640  0.4227
14896TIP3    H166179   4.709   0.243   2.239 -0.1315  0.0162 -0.0103
14896TIP3    H266180   4.678   0.095   2.238 -0.7294  0.1431 -0.7711
14897TIP3   OH266181   6.699   2.912   6.405  0.2827  0.1651 -0.3204
14897TIP3    H166182   6.608   2.894   6.432  0.4367 -0.9894 -0.5332
14897TIP3    H266183   6.733   2.968   6.475 -0.1294 -0.6681  0.5813
14898TIP3   OH266184   2.432   0.274   6.265 -0.3914  0.2937 -0.5548
14898TIP3    H166185   2.482   0.200   6.301 -2.7635 -2.2944 -2.1375
14898TIP3    H266186   2.347   0.269   6.308 -1.3530  0.6808 -2.3052
14899TIP3   OH266187   4.816   0.291   1.790  0.1932 -0.1047  0.2248
14899TIP3    H166188   4.751   0.242   1.839 -0.5552  0.1882 -0.4593
14899TIP3    H266189   4.847   0.230   1.723  1.2621 -0.5268  1.0847
14900TIP3   OH266190   5.737   5.476  14.853  0.1120  0.0145 -0.0238
14900TIP3    H166191   5.675   5.502  14.786  0.3055  0.6043  0.0254
14900TIP3    H266192   5.787   5.405  14.813 -1.0400 -0.9450  0.1740
14901TIP3   OH266193   5.415   6.546   3.612  1.0179  0.0016 -0.0706
14901TIP3    H166194   5.372   6.626   3.580  0.7183  0.3679  1.2135
14901TIP3    H266195   5.343   6.491   3.642  1.3676  0.3001  1.3815
14902TIP3   OH266196   4.876   2.566  15.483 -0.1235 -0.7799  0.1754
14902TIP3    H166197   4.805   2.550  15.545  0.2147 -0.5820  0.6153
14902TIP3    H266198   4.942   2.500  15.504 -1.4648 -3.1596 -2.3190
14903TIP3   OH266199   3.912   3.198   5.175 -0.1005  0.4666  0.3520
14903TIP3    H166200   3.943   3.284   5.203  0.0930  0.0697  1.3954
14903TIP3    H266201   3.829   3.186   5.221  0.8203 -0.7169  1.7922
14904TIP3   OH266202   5.773   5.973  17.046 -0.0694  0.2499 -0.0470
14904TIP3    H166203   5.818   5.890  17.062 -2.0419 -1.0502 -0.9177
14904TIP3    H266204   5.826   6.017  16.979 -0.1538 -1.3180 -1.1860
14905TIP3   OH266205   1.632   2.436  13.645  0.0881  0.1624 -0.0471
14905TIP3    H166206   1.574   2.406  13.575 -0.1891  0.4051  0.0749
14905TIP3    H266207   1.655   2.525  13.621 -2.2373  1.2886  1.5306
14906TIP3   OH266208   6.545   6.185  12.574 -0.3068 -0.3569 -0.3952
14906TIP3    H166209   6.521   6.115  12.513  2.1882 -0.7910 -0.9659
14906TIP3    H266210   6.520   6.266  12.529  0.3895 -0.7217 -1.4638
14907TIP3   OH266211   1.351   2.580   2.200  0.5543 -0.0136 -0.0776
14907TIP3    H166212   1.394   2.558   2.283  1.2258 -1.8910 -0.8860
14907TIP3    H266213   1.358   2.501   2.147 -1.2103  0.6416 -1.3872
14908TIP3   OH266214   4.458   0.592   5.352  0.2512  0.1883  0.1106
14908TIP3    H166215   4.553   0.599   5.349  0.2317  0.1427 -1.5149
14908TIP3    H266216   4.433   0.638   5.433  1.6166  0.5516  0.3472
14909TIP3   OH266217   1.286   5.779   0.118  0.4529 -0.4627 -0.0553
14909TIP3    H166218   1.229   5.853   0.095 -1.0843 -1.3292  0.7335
14909TIP3    H266219   1.357   5.781   0.054 -0.1266  1.0616 -0.6880
14910TIP3   OH266220   4.514   6.777  16.750  0.1557 -0.3939 -0.0358
14910TIP3    H166221   4.492   6.697  16.702  0.8027 -0.5364 -0.1120
14910TIP3    H266222   4.441   6.836  16.734  0.3534 -0.4475 -1.1802
14911TIP3   OH266223   0.871   5.047  16.936 -0.1901 -1.1268 -0.2610
14911TIP3    H166224   0.836   5.091  17.014 -0.5357  0.7815 -1.4331
14911TIP3    H266225   0.916   4.970  16.971 -1.1190 -0.8371  1.7385
14912TIP3   OH266226   3.556   6.493  14.219  0.0999 -0.4507  0.2915
14912TIP3    H166227   3.463   6.477  14.235 -0.2574 -1.5290 -2.4467
14912TIP3    H266228   3.564   6.589  14.224 -1.6021 -0.1622 -1.3334
14913TIP3   OH266229   1.023   4.865   1.328  0.1500  0.0932 -0.4329
14913TIP3    H166230   1.117   4.866   1.342  0.2756  0.9844 -1.2782
14913TIP3    H266231   1.012   4.829   1.240 -0.3411 -0.5461 -0.1228
14914TIP3   OH266232   4.590   0.798   2.742  0.3219  0.0026  0.5693
14914TIP3    H166233   4.535   0.834   2.811  2.6423  0.6924  2.1731
14914TIP3    H266234   4.585   0.862   2.672 -0.0370  0.5914  1.1228
14915TIP3   OH266235   0.126   5.039  13.466  0.4432  0.3867  0.8748
14915TIP3    H166236   0.052   4.986  13.494  0.5687  0.8769  2.1854
14915TIP3    H266237   0.176   4.981  13.408 -1.7315  0.5418 -1.3403
14916TIP3   OH266238   3.707   0.645  14.094 -0.0398 -0.2976 -0.7313
14916TIP3    H166239   3.796   0.648  14.058  1.6126 -0.3492  2.8376
14916TIP3    H266240   3.671   0.732  14.077  1.6596  0.5561 -0.2676
14917TIP3   OH266241   1.674   4.430   0.875  0.0019 -0.0721  0.4451
14917TIP3    H166242   1.616   4.479   0.932  0.4958  1.0570  0.0012
14917TIP3    H266243   1.762   4.457   0.901  0.2258  0.7105 -1.0467
14918TIP3   OH266244   4.373   1.923   2.860 -0.2229 -0.0936 -0.0380
14918TIP3    H166245   4.417   1.965   2.786 -0.0920 -1.7583 -0.9721
14918TIP3    H266246   4.439   1.862   2.895 -0.5619  0.0879  0.9317
14919TIP3   OH266247   2.363   6.664   3.221 -0.0960  0.8133  0.6303
14919TIP3    H166248   2.387   6.723   3.150 -0.9397  0.2666 -0.1320
14919TIP3    H266249   2.436   6.670   3.283  0.6141  1.3594 -0.2343
14920TIP3   OH266250   3.478   1.633   6.466 -0.0879  0.5463 -0.3279
14920TIP3    H166251   3.385   1.651   6.455  0.1789  2.0545 -0.3130
14920TIP3    H266252   3.522   1.709   6.428  1.1979 -0.8218 -1.7364
14921TIP3   OH266253   5.072   1.113   2.718  0.0556  0.1450  0.3208
14921TIP3    H166254   5.053   1.197   2.760 -1.6571  1.0784 -2.1232
14921TIP3    H266255   5.156   1.128   2.674  1.0180 -0.3033  1.9165
14922TIP3   OH266256   3.352   3.849  12.566 -0.7392  0.2377  0.2259
14922TIP3    H166257   3.377   3.767  12.609 -0.1859  0.6951  0.8085
14922TIP3    H266258   3.415   3.859  12.494 -1.2018 -0.1584 -0.2385
14923TIP3   OH266259   3.736   5.353  16.921 -0.3165 -0.8595  0.1716
14923TIP3    H166260   3.699   5.375  16.835  0.7235  0.6642  0.0804
14923TIP3    H266261   3.680   5.400  16.984 -0.5589 -1.2832  0.2767
14924TIP3   OH266262   0.872   6.720   2.603 -0.1329  0.0337 -0.3471
14924TIP3    H166263   0.922   6.670   2.666 -1.4312  1.4339  1.9708
14924TIP3    H266264   0.780   6.701   2.625 -0.6216  1.0770 -1.3752
14925TIP3   OH266265   4.801   1.939   1.288 -0.9893 -0.6389 -0.2675
14925TIP3    H166266   4.733   1.915   1.351  0.7722 -2.3077  1.1252
14925TIP3    H266267   4.838   2.020   1.323  0.2087 -1.7356  1.1287
14926TIP3   OH266268   2.798   2.142  13.967  0.3242  0.0534 -0.4004
14926TIP3    H166269   2.840   2.062  13.998 -0.1242 -0.7388 -1.7704
14926TIP3    H266270   2.865   2.185  13.914  1.5498  2.0698  2.5209
14927TIP3   OH266271   2.186   2.370  11.132 -0.3783 -0.3504  0.5131
14927TIP3    H166272   2.133   2.317  11.192 -0.4696 -0.5947  0.2171
14927TIP3    H266273   2.150   2.458  11.141 -0.6284 -0.4549  0.5521
14928TIP3   OH266274   4.985   6.793   5.042 -0.0861 -0.0610  0.1036
14928TIP3    H166275   4.917   6.777   5.107 -0.5569 -1.2899 -0.6576
14928TIP3    H266276   4.938   6.815   4.962  0.4113 -0.7075 -0.3767
14929TIP3   OH266277   1.785   0.927   1.999 -0.1123 -0.1916 -0.0586
14929TIP3    H166278   1.757   0.899   1.912 -0.1271  2.8181 -1.1433
14929TIP3    H266279   1.711   0.908   2.056 -1.7957  1.4407 -1.5674
14930TIP3   OH266280   3.923   5.222  13.273  0.7402 -0.6651  0.6690
14930TIP3    H166281   4.014   5.229  13.299  1.0254 -0.0177 -0.4741
14930TIP3    H266282   3.921   5.249  13.181 -0.5680 -0.8462  0.6177
14931TIP3   OH266283   5.396   4.865   2.657  0.2882  0.6361  0.7292
14931TIP3    H166284   5.469   4.803   2.658  1.2491  1.7221  0.4794
14931TIP3    H266285   5.431   4.942   2.612 -1.5728  0.5595 -1.0016
14932TIP3   OH266286   5.312   1.166   2.590 -0.0821 -0.0860  0.1126
14932TIP3    H166287   5.373   1.237   2.612 -0.6458  0.2777  0.5086
14932TIP3    H266288   5.315   1.161   2.494  0.8440 -0.3215  0.1367
14933TIP3   OH266289   4.035   3.483   2.519  0.1575 -0.1082  0.1033
14933TIP3    H166290   4.076   3.411   2.567  1.3067  1.4075  1.5142
14933TIP3    H266291   3.958   3.505   2.571  1.2523  1.3547  1.1808
14934TIP3   OH266292   2.332   5.892  16.646  0.1606  0.5042 -0.2718
14934TIP3    H166293   2.422   5.861  16.652 -0.0296 -0.5201 -1.8677
14934TIP3    H266294   2.339   5.981  16.612  0.5748 -0.1245 -1.9514
14935TIP3   OH266295   1.271   0.797  12.060 -0.6997 -0.3087 -0.0960
14935TIP3    H166296   1.325   0.775  12.135 -0.3535  0.9035  0.0359
14935TIP3    H266297   1.263   0.715  12.011  2.9322 -0.1693 -1.1938
14936TIP3   OH266298   3.500   0.196   4.203 -0.1908  0.2675  0.0045
14936TIP3    H166299   3.460   0.120   4.245 -0.2283 -0.2905 -1.0111
14936TIP3    H266300   3.537   0.247   4.276 -1.1381 -0.1377  0.7969
14937TIP3   OH266301   0.311   3.068   5.981  0.0820  0.4706  0.2366
14937TIP3    H166302   0.350   3.133   5.921  2.5112 -2.0768 -1.1918
14937TIP3    H266303   0.306   3.114   6.065 -0.3293  3.1422 -1.1313
14938TIP3   OH266304   1.250   4.078   0.253 -0.3065 -0.2984  0.4558
14938TIP3    H166305   1.296   4.129   0.187 -3.4009  2.3013  0.1223
14938TIP3    H266306   1.210   4.142   0.311 -2.2110 -2.3841  1.6385
14939TIP3   OH266307   0.788   4.031  15.529 -0.1248  0.7273  0.7495
14939TIP3    H166308   0.787   3.965  15.599 -2.9367 -0.8701 -0.6389
14939TIP3    H266309   0.856   4.001  15.469 -1.6960 -1.2952 -0.1110
14940TIP3   OH266310   0.780   6.565   0.855 -0.9599 -0.0956  0.0838
14940TIP3    H166311   0.832   6.561   0.935  0.6636  0.2848 -0.9063
14940TIP3    H266312   0.724   6.487   0.859 -1.1457  0.0800  1.7128
14941TIP3   OH266313   0.084   0.259   1.141  0.1387 -0.1951  0.7706
14941TIP3    H166314   0.158   0.305   1.181  0.1477 -0.4202  1.0122
14941TIP3    H266315   0.088   0.171   1.177 -0.0209 -0.3172  0.4884
14942TIP3   OH266316   3.227   1.505  14.734 -0.4866  0.3466  0.0296
14942TIP3    H166317   3.194   1.415  14.738  0.4960 -0.0203  0.0664
14942TIP3    H266318   3.149   1.558  14.720 -0.8058 -0.7077 -2.6160
14943TIP3   OH266319   5.196   6.516  13.209 -0.2607  0.3354  0.0104
14943TIP3    H166320   5.195   6.506  13.304 -0.8650  1.7995  0.1803
14943TIP3    H266321   5.122   6.573  13.190  1.8200  2.9358 -0.9499
14944TIP3   OH266322   2.538   0.597  17.247 -0.4704  0.5564  0.0274
14944TIP3    H166323   2.577   0.515  17.216  0.3997  1.1800 -0.6114
14944TIP3    H266324   2.490   0.574  17.326  1.8994 -0.1500  1.3674
14945TIP3   OH266325   2.340   4.497  12.661  0.4085  0.4818  0.5339
14945TIP3    H166326   2.335   4.568  12.726  1.2465  0.6691  0.4052
14945TIP3    H266327   2.412   4.523  12.603 -1.2911  1.1091 -1.4322
14946TIP3   OH266328   3.011   6.632  15.563 -0.2722  0.1702  0.6102
14946TIP3    H166329   3.007   6.582  15.481  1.4000 -1.6091  1.5141
14946TIP3    H266330   2.920   6.638  15.592 -0.6890 -1.0206 -0.3551
14947TIP3   OH266331   3.928   1.147  10.609  0.5689  0.0538 -0.1973
14947TIP3    H166332   3.946   1.177  10.520 -0.8525  2.2941  0.1884
14947TIP3    H266333   3.839   1.176  10.626  0.0735 -2.1268  1.2827
14948TIP3   OH266334   4.461   6.163   5.027  0.2233  0.0823  0.6356
14948TIP3    H166335   4.471   6.114   5.108  3.4179 -1.2927 -0.4214
14948TIP3    H266336   4.506   6.245   5.042  2.4187 -0.8906 -0.1713
14949TIP3   OH266337   1.153   3.457  15.408 -0.0761 -0.3099  0.1674
14949TIP3    H166338   1.196   3.539  15.431 -0.3696 -0.1002 -0.0188
14949TIP3    H266339   1.169   3.400  15.483  1.4101 -0.5918 -0.3307
14950TIP3   OH266340   2.843   3.004  16.095  0.4855  0.2461  0.0931
14950TIP3    H166341   2.829   3.094  16.123  0.0821  0.2587 -0.1298
14950TIP3    H266342   2.839   2.953  16.175  1.0010  0.4536  0.2567
14951TIP3   OH266343   1.375   4.154  14.172 -0.0836  0.2140  0.0933
14951TIP3    H166344   1.376   4.241  14.211 -3.6725  0.0913  0.8098
14951TIP3    H266345   1.283   4.127  14.175  0.6985 -3.1512 -1.1537
14952TIP3   OH266346   4.149   5.468  12.529  0.0838  0.5881  0.0053
14952TIP3    H166347   4.217   5.430  12.584  1.6628  0.4998 -1.9057
14952TIP3    H266348   4.077   5.486  12.589  2.1650  1.7003  2.3471
14953TIP3   OH266349   2.264   1.339  12.672 -0.6941  0.4573 -0.3509
14953TIP3    H166350   2.176   1.356  12.639 -0.0261  0.6000 -2.1484
14953TIP3    H266351   2.271   1.244  12.675 -1.3051  0.4203  1.0263
14954TIP3   OH266352   1.839   0.620  12.006 -0.3378 -0.4105 -0.3093
14954TIP3    H166353   1.865   0.531  11.982 -0.4843 -0.7544  0.7286
14954TIP3    H266354   1.774   0.608  12.075  0.4996  0.5008  0.6948
14955TIP3   OH266355   6.222   2.482   1.112 -0.3305  0.1723  0.5748
14955TIP3    H166356   6.251   2.529   1.034  0.3642 -2.5316 -0.9464
14955TIP3    H266357   6.129   2.467   1.098  0.0946 -1.6808 -0.6132
14956TIP3   OH266358   3.766   5.303  12.503  0.0764 -0.1931  0.3327
14956TIP3    H166359   3.812   5.297  12.419 -0.8119 -1.2029 -0.1035
14956TIP3    H266360   3.760   5.213  12.534 -0.7318  0.0282  0.8548
14957TIP3   OH266361   2.206   4.789   1.314  0.0167  0.8794  0.3121
14957TIP3    H166362   2.119   4.803   1.351 -1.1407 -1.0402 -1.4467
14957TIP3    H266363   2.194   4.804   1.220  1.5225  0.3186  0.0146
14958TIP3   OH266364   6.535   4.690   4.247 -0.1714 -0.3553 -0.3811
14958TIP3    H166365   6.623   4.667   4.277 -0.0161 -0.3888 -0.8542
14958TIP3    H266366   6.477   4.642   4.306  0.1025  0.4362  0.5737
14959TIP3   OH266367   0.735   5.734   5.544 -0.3582 -0.0736 -0.7811
14959TIP3    H166368   0.658   5.770   5.500 -1.1295 -0.7571 -0.0288
14959TIP3    H266369   0.722   5.756   5.636 -0.4964 -1.5921 -0.4043
14960TIP3   OH266370   5.567   1.148  16.826  0.0812 -0.0522 -0.1032
14960TIP3    H166371   5.589   1.217  16.763  0.8743  0.3083  0.5426
14960TIP3    H266372   5.631   1.079  16.809  2.9507  1.5839  2.7341
14961TIP3   OH266373   1.468   1.022   0.524 -0.9003  0.0226 -0.3071
14961TIP3    H166374   1.501   1.081   0.592  0.6172 -1.2022  0.0884
14961TIP3    H266375   1.546   0.993   0.478 -1.5426 -1.9400 -0.2492
14962TIP3   OH266376   0.116   0.237  13.929 -0.3794  0.5165 -0.5002
14962TIP3    H166377   0.140   0.275  14.013 -1.5838  0.7484 -0.2484
14962TIP3    H266378   0.185   0.173  13.911  0.8575  1.7196 -0.2005
14963TIP3   OH266379   1.492   3.648   4.080  0.1794 -0.1053 -0.1377
14963TIP3    H166380   1.439   3.616   4.006 -1.1480  0.1947  0.6604
14963TIP3    H266381   1.508   3.569   4.132  1.9855 -0.5152 -1.2189
14964TIP3   OH266382   2.987   3.936  16.782 -0.6296 -0.7489 -0.9964
14964TIP3    H166383   3.032   4.006  16.734  1.0277 -1.7900 -1.0132
14964TIP3    H266384   3.040   3.924  16.861 -0.3687 -2.5865 -1.4178
14965TIP3   OH266385   5.580   5.803   4.616 -0.0919  0.5700  0.1742
14965TIP3    H166386   5.535   5.807   4.531  2.6279 -2.1480 -1.6365
14965TIP3    H266387   5.664   5.845   4.600  0.1253  0.8375  1.8560
14966TIP3   OH266388   0.088   3.285   6.153 -0.3849  0.1673 -0.0948
14966TIP3    H166389   0.149   3.254   6.220 -0.8213 -0.4498  0.0281
14966TIP3    H266390   0.141   3.342   6.097  0.2080 -0.0510  0.2328
14967TIP3   OH266391   1.662   0.439  11.429 -0.2566 -0.7760 -0.2069
14967TIP3    H166392   1.578   0.434  11.475  0.0571  1.2191  0.6887
14967TIP3    H266393   1.723   0.391  11.486 -0.2818 -0.0253  0.4710
14968TIP3   OH266394   3.358   4.322   1.551  0.2532 -0.2168  0.2637
14968TIP3    H166395   3.417   4.376   1.499 -1.6725  3.2155  1.2627
14968TIP3    H266396   3.411   4.290   1.624  1.2854  1.3876  0.2652
14969TIP3   OH266397   1.437   5.533  10.841 -0.0380  0.4370 -0.2822
14969TIP3    H166398   1.449   5.511  10.748  0.5164  1.2339 -0.4140
14969TIP3    H266399   1.343   5.521  10.857 -0.1048  0.1128 -0.9011
14970TIP3   OH266400   1.901   5.258   1.680 -0.4346 -0.4173 -0.0432
14970TIP3    H166401   1.952   5.309   1.617 -0.0347 -1.4439 -0.5842
14970TIP3    H266402   1.814   5.252   1.641 -0.7936  0.7265  0.5351
14971TIP3   OH266403   3.133   4.620   1.091  0.4355 -0.0847 -0.1554
14971TIP3    H166404   3.095   4.567   1.022  0.8214 -1.3166  0.5537
14971TIP3    H266405   3.059   4.668   1.128  0.2518  0.7269 -1.5097
14972TIP3   OH266406   2.837   0.257  10.965 -0.5328  0.2030 -0.3228
14972TIP3    H166407   2.925   0.243  10.931 -1.0767 -2.2835 -0.8968
14972TIP3    H266408   2.779   0.219  10.898 -2.0267  1.2980  0.2909
14973TIP3   OH266409   1.821   2.096  13.084  0.0211 -0.4776 -0.0995
14973TIP3    H166410   1.806   2.190  13.092  1.1564 -0.3742  1.2606
14973TIP3    H266411   1.913   2.088  13.058 -0.4886 -1.1966 -1.7607
14974TIP3   OH266412   2.349   1.777  11.951  0.5310  0.1698  0.1398
14974TIP3    H166413   2.257   1.777  11.927  0.5500 -1.5894 -0.0404
14974TIP3    H266414   2.370   1.869  11.967 -1.1241  0.6398 -0.2695
14975TIP3   OH266415   0.350   1.924   3.173 -0.1800  0.1369 -0.8532
14975TIP3    H166416   0.281   1.952   3.233 -0.8846 -2.0244 -0.5584
14975TIP3    H266417   0.339   1.980   3.096  0.3199  2.5222  0.6918
14976TIP3   OH266418   3.819   1.890  16.303 -0.3742  0.1421  0.2627
14976TIP3    H166419   3.819   1.871  16.397 -1.0948 -0.6383  0.1230
14976TIP3    H266420   3.900   1.939  16.288 -0.7031  1.1007  1.4421
14977TIP3   OH266421   6.706   1.305   0.110 -0.5244  0.6242  0.7858
14977TIP3    H166422   6.796   1.303   0.144 -0.2922 -0.4765  0.1490
14977TIP3    H266423   6.705   1.238   0.042 -1.8338  0.6214  0.7933
14978TIP3   OH266424   2.283   0.095   3.002  0.5106 -0.3424 -0.4178
14978TIP3    H166425   2.295   0.180   2.959 -0.5211 -0.1721 -0.4082
14978TIP3    H266426   2.188   0.082   3.002  0.5470 -0.7971  0.9163
14979TIP3   OH266427   0.851   5.588  13.366 -0.1251 -0.2350  0.0023
14979TIP3    H166428   0.915   5.626  13.306  1.1492 -0.4753  1.1482
14979TIP3    H266429   0.783   5.655  13.375  0.0526  0.1079 -1.0970
14980TIP3   OH266430   0.704   5.707   2.791 -0.5703  0.1482 -0.2571
14980TIP3    H166431   0.611   5.728   2.781 -0.5993 -0.7728 -2.8500
14980TIP3    H266432   0.749   5.782   2.751 -0.2807 -0.1654 -0.5198
14981TIP3   OH266433   2.553   1.533   2.287  0.0818 -0.0355 -0.6089
14981TIP3    H166434   2.566   1.595   2.359 -0.1761 -0.7451  0.0532
14981TIP3    H266435   2.582   1.449   2.322 -0.0376 -0.3875 -1.3415
14982TIP3   OH266436   4.561   3.108  12.204  0.2911  0.9021 -0.0529
14982TIP3    H166437   4.587   3.063  12.124 -1.0408  0.6706 -0.3678
14982TIP3    H266438   4.597   3.054  12.274  0.2634  0.3343 -0.4658
14983TIP3   OH266439   3.166   1.506  11.132 -0.0859  0.5427  0.2387
14983TIP3    H166440   3.252   1.519  11.092 -0.0768  0.2224  0.1559
14983TIP3    H266441   3.113   1.578  11.097 -0.7290 -0.9784 -2.1683
14984TIP3   OH266442   0.352   0.754   4.384  0.0594  0.3736  0.0733
14984TIP3    H166443   0.432   0.738   4.435  0.1530 -1.7262 -0.6296
14984TIP3    H266444   0.295   0.801   4.444 -0.1669 -2.7055  2.5394
14985TIP3   OH266445   0.822   5.693   4.365  0.2510 -0.3566  0.5622
14985TIP3    H166446   0.820   5.750   4.288 -2.7142  0.1573  0.9227
14985TIP3    H266447   0.850   5.750   4.437 -1.0634  0.2581  0.6091
14986TIP3   OH266448   0.679   3.877   0.022 -0.0214  0.0201  0.5190
14986TIP3    H166449   0.772   3.866   0.037 -0.1583 -0.5244  1.0196
14986TIP3    H266450   0.673   3.925  -0.060  0.6577 -2.0350 -0.8085
14987TIP3   OH266451   3.128   0.365   2.871  0.6734 -0.2344  0.0461
14987TIP3    H166452   3.147   0.276   2.900 -1.9339 -0.7908  0.2805
14987TIP3    H266453   3.051   0.356   2.815  0.6726  1.8317 -0.3665
14988TIP3   OH266454   5.620   3.505   2.434 -0.2273 -0.0416  0.3079
14988TIP3    H166455   5.622   3.523   2.529 -0.3889 -2.7490  0.8929
14988TIP3    H266456   5.529   3.521   2.409 -0.4193 -0.3017  0.8282
14989TIP3   OH266457   5.436   2.827   5.610  0.3031  0.1502  0.4614
14989TIP3    H166458   5.467   2.851   5.698  1.3629  2.2692 -0.4250
14989TIP3    H266459   5.358   2.881   5.596  1.0303  1.0166 -0.4448
14990TIP3   OH266460   4.409   3.557   6.537  0.3199 -0.0836  0.2519
14990TIP3    H166461   4.383   3.527   6.624 -2.3551  0.3292 -0.3245
14990TIP3    H266462   4.425   3.650   6.547 -0.1128 -0.0126  0.2832
14991TIP3   OH266463   4.669   6.207  11.920  0.2398 -0.2944 -0.4366
14991TIP3    H166464   4.629   6.160  11.847  0.4591  0.1685 -0.8566
14991TIP3    H266465   4.761   6.215  11.897  0.1813  0.4578 -0.4354
14992TIP3   OH266466   0.939   4.150  12.778 -0.3066 -0.3276 -0.6574
14992TIP3    H166467   0.949   4.060  12.747 -0.6956 -0.0168 -1.7386
14992TIP3    H266468   0.880   4.191  12.714  0.3517  0.8594 -0.5354
14993TIP3   OH266469   5.963   4.160   0.288  0.3338  0.5435 -0.7890
14993TIP3    H166470   6.033   4.179   0.350 -1.5462  0.3359  1.5249
14993TIP3    H266471   5.920   4.244   0.273 -1.6309  0.0323  1.3902
14994TIP3   OH266472   4.502   2.923   2.481  0.2631  0.3610 -0.4873
14994TIP3    H166473   4.543   2.843   2.512  0.3846  0.5575 -0.1352
14994TIP3    H266474   4.447   2.895   2.408  2.3132  0.3198 -2.1189
14995TIP3   OH266475   0.425   2.125   2.453 -0.2736 -0.2627 -0.4596
14995TIP3    H166476   0.466   2.044   2.423  0.5579 -0.3057  0.7340
14995TIP3    H266477   0.331   2.106   2.452 -0.1073 -1.1177 -0.5336
14996TIP3   OH266478   2.953   1.214  12.850 -0.4076 -0.0825  0.3473
14996TIP3    H166479   3.023   1.157  12.819 -2.0787 -0.7048 -2.6462
14996TIP3    H266480   2.920   1.172  12.929  1.3812 -0.7081  0.8013
14997TIP3   OH266481   6.158   2.242  12.680  0.2554  0.6624 -0.0957
14997TIP3    H166482   6.209   2.169  12.644 -1.6738 -1.4025  1.1219
14997TIP3    H266483   6.218   2.286  12.740  1.5616  0.3179 -1.1030
14998TIP3   OH266484   6.025   6.782  10.912  0.0667  0.4980  0.5500
14998TIP3    H166485   6.112   6.740  10.909  0.1261  0.6067  0.7605
14998TIP3    H266486   5.981   6.740  10.986  0.4288  1.3923  1.2931
14999TIP3   OH266487   6.688   2.257   5.822 -0.2359  0.1462  0.7241
14999TIP3    H166488   6.721   2.168   5.822  1.9859  0.8851  0.0163
14999TIP3    H266489   6.730   2.298   5.746 -4.1867  0.8065 -1.3785
15000TIP3   OH266490   3.850   1.738   1.791 -0.3130  0.1768  0.0558
15000TIP3    H166491   3.881   1.769   1.876 -1.4854 -0.3196  0.6868
15000TIP3    H266492   3.871   1.644   1.791 -0.7754  0.0732  0.0102
15001TIP3   OH266493   3.641   5.403  11.770  0.1326  0.1207  0.3732
15001TIP3    H166494   3.583   5.353  11.712  1.0660 -0.2057 -0.3132
15001TIP3    H266495   3.586   5.471  11.807 -0.7481 -0.3446 -0.0563
15002TIP3   OH266496   3.492   5.292   5.577  0.4451  0.1062 -0.5249
15002TIP3    H166497   3.409   5.334   5.554  0.9824  2.7532  1.8236
15002TIP3    H266498   3.467   5.221   5.636 -0.2374 -0.2787 -1.2603
15003TIP3   OH266499   0.032   4.081   2.152 -0.1603  0.2331  0.0086
15003TIP3    H166500  -0.054   4.114   2.177 -0.5329  0.3119 -1.3155
15003TIP3    H266501   0.014   4.006   2.095  0.6211  0.5889 -0.7320
15004TIP3   OH266502   1.405   1.605  16.239  0.5143 -0.4348  0.2738
15004TIP3    H166503   1.415   1.697  16.214 -0.4418 -0.3493  0.1751
15004TIP3    H266504   1.442   1.555  16.166  0.1946 -0.1379 -0.0944
15005TIP3   OH266505   5.461   5.476  11.594  0.0380  0.0013 -0.4294
15005TIP3    H166506   5.521   5.550  11.581  0.6091 -0.5243 -0.8167
15005TIP3    H266507   5.482   5.416  11.523  0.6299 -1.2410  0.7675
15006TIP3   OH266508   0.942   1.964  11.428 -0.9403  0.0151  0.6048
15006TIP3    H166509   1.008   1.992  11.492  1.6513 -1.2339 -1.3392
15006TIP3    H266510   0.894   2.045  11.407  0.4771  1.1476  1.5277
15007TIP3   OH266511   5.345   1.424  13.987 -0.3090 -0.5243  0.2014
15007TIP3    H166512   5.410   1.440  14.056 -1.7138  0.0116  1.4483
15007TIP3    H266513   5.397   1.415  13.907  1.2375  1.0428  0.9605
15008TIP3   OH266514   1.191   3.413  17.048  0.3782  0.2047  0.4604
15008TIP3    H166515   1.255   3.398  17.118  0.7472 -0.5538 -0.0262
15008TIP3    H266516   1.112   3.369  17.078  0.0301  1.2294  1.1101
15009TIP3   OH266517   4.408   3.661   4.996 -0.3009  0.4184  0.5095
15009TIP3    H166518   4.486   3.633   5.044 -0.5976  2.0391  2.0832
15009TIP3    H266519   4.345   3.590   5.007  0.6677 -0.5546 -0.0994
15010TIP3   OH266520   3.100   5.619   3.500 -0.0303 -0.2964  0.1644
15010TIP3    H166521   3.112   5.658   3.414  0.2944  0.1440  0.4008
15010TIP3    H266522   3.035   5.676   3.543  0.4401 -0.0103  0.5090
15011TIP3   OH266523   3.977   1.135   3.759  0.1301  0.0726 -0.2019
15011TIP3    H166524   4.018   1.221   3.753 -2.1561  1.2815  0.4596
15011TIP3    H266525   3.956   1.124   3.852 -1.5438 -0.2205 -0.5850
15012TIP3   OH266526   0.444   6.041  17.191  0.3831 -0.0864 -0.2748
15012TIP3    H166527   0.509   5.981  17.229  0.1918 -0.1684 -0.0722
15012TIP3    H266528   0.493   6.121  17.173  0.8949 -0.6561 -1.5379
15013TIP3   OH266529   3.496   0.832   4.612  0.1367  0.4038  0.0634
15013TIP3    H166530   3.583   0.846   4.650  0.6296 -0.7503 -0.6203
15013TIP3    H266531   3.493   0.739   4.591 -1.3343  0.3919  0.2221
15014TIP3   OH266532   4.903   2.704   2.054  0.1887 -0.9384  0.3732
15014TIP3    H166533   4.845   2.649   2.002 -0.1092 -1.1278  0.8967
15014TIP3    H266534   4.849   2.778   2.080  0.5512 -0.4547 -0.2199
15015TIP3   OH266535   0.562   1.877  14.833  0.2927 -0.7455  0.3848
15015TIP3    H166536   0.615   1.870  14.754  0.2066  4.1914 -0.4684
15015TIP3    H266537   0.624   1.869  14.906  1.3673 -0.1124 -0.4289
15016TIP3   OH266538   3.150   2.019   4.276 -0.0347 -0.0393  0.2582
15016TIP3    H166539   3.210   1.951   4.246 -0.5954 -1.2905  1.8150
15016TIP3    H266540   3.065   1.975   4.281 -0.7031  1.1799 -0.0568
15017TIP3   OH266541   4.924   5.155  16.565 -0.5137 -0.3535 -0.1804
15017TIP3    H166542   4.952   5.063  16.560 -0.2902 -0.2443 -1.5495
15017TIP3    H266543   4.992   5.198  16.617  0.1340 -0.7126 -0.7089
15018TIP3   OH266544   3.008   6.067  16.251 -0.3255  0.2472  0.1355
15018TIP3    H166545   3.022   6.005  16.322 -0.7119 -0.3897 -0.3252
15018TIP3    H266546   2.915   6.090  16.257 -0.5199 -0.3063 -0.5342
15019TIP3   OH266547   5.419   5.744   0.297 -0.2787  0.2051  0.1893
15019TIP3    H166548   5.335   5.703   0.320  0.3076 -0.5273  1.0742
15019TIP3    H266549   5.480   5.712   0.362  0.9651 -0.1761 -1.1087
15020TIP3   OH266550   2.993   6.211  10.666 -0.1313  0.5452  0.5358
15020TIP3    H166551   3.022   6.302  10.658  1.6081  0.1735  2.0182
15020TIP3    H266552   3.074   6.160  10.668 -0.8355 -0.6757  3.5330
15021TIP3   OH266553   1.022   5.192   5.178 -0.3584 -0.6388 -0.3149
15021TIP3    H166554   0.968   5.178   5.100  1.4300 -0.5251 -1.6366
15021TIP3    H266555   1.102   5.144   5.161  0.9930  1.2123  0.4245
15022TIP3   OH266556   2.037   5.657   4.378 -0.1060 -0.1601 -0.2501
15022TIP3    H166557   2.061   5.744   4.345 -0.8175  0.1668  0.0689
15022TIP3    H266558   2.120   5.618   4.405  0.2813  0.2215 -0.8663
15023TIP3   OH266559   2.552   4.855   1.889  0.3072 -0.4073 -0.4387
15023TIP3    H166560   2.585   4.883   1.803  0.8247  0.9501  0.1735
15023TIP3    H266561   2.521   4.936   1.930 -0.4810 -1.1249  0.4383
15024TIP3   OH266562   5.511   4.784   5.620  0.1940 -0.0639 -0.3775
15024TIP3    H166563   5.427   4.773   5.664  1.7201 -0.2804  2.7921
15024TIP3    H266564   5.547   4.695   5.616  0.3489  0.0470 -1.5397
15025TIP3   OH266565   3.117   0.766  12.857 -0.4402 -0.2952  0.1305
15025TIP3    H166566   3.043   0.766  12.919  0.1191 -0.0192  0.8116
15025TIP3    H266567   3.115   0.679  12.818  0.6879 -1.4153  2.3806
15026TIP3   OH266568   5.873   1.629  17.030 -0.0809  0.2592  0.2897
15026TIP3    H166569   5.926   1.583  16.965 -1.0363  0.0678 -0.3739
15026TIP3    H266570   5.846   1.710  16.986  0.3255  0.7432  0.9123
15027TIP3   OH266571   4.713   4.932   4.480 -0.5160  0.2234 -0.2085
15027TIP3    H166572   4.623   4.947   4.451 -0.2112  1.2038 -0.6790
15027TIP3    H266573   4.767   4.951   4.403  0.1362  0.2776  0.2550
15028TIP3   OH266574   0.540   3.525   2.385 -0.2379  0.4736 -0.2855
15028TIP3    H166575   0.465   3.569   2.344 -0.3728  0.4463 -0.0707
15028TIP3    H266576   0.609   3.528   2.319 -1.0108 -1.1970 -1.2347
15029TIP3   OH266577   6.750   6.005  13.951 -0.2393 -0.4195 -0.6413
15029TIP3    H166578   6.786   6.040  14.032 -1.5737 -0.1195 -0.1607
15029TIP3    H266579   6.763   6.075  13.887  0.0738 -0.3422 -0.4958
15030TIP3   OH266580   2.005   5.866  12.687  0.2787  0.2827 -0.2755
15030TIP3    H166581   2.053   5.868  12.770 -0.0225 -1.1564 -0.0436
15030TIP3    H266582   1.923   5.911  12.705  0.3403  0.2355  0.1190
15031TIP3   OH266583   0.448   5.433   1.153 -0.2094  0.1814  0.3449
15031TIP3    H166584   0.437   5.473   1.067 -0.3940  0.3745  0.4574
15031TIP3    H266585   0.412   5.498   1.215 -0.5433 -0.1664  0.5240
15032TIP3   OH266586   1.911   4.362  16.485 -0.3637 -0.3291  0.1473
15032TIP3    H166587   1.867   4.381  16.402  1.1679  1.1947 -0.3704
15032TIP3    H266588   1.847   4.387  16.552 -1.0182 -0.0425 -0.5661
15033TIP3   OH266589   4.863   3.343  12.593  0.3820  0.3481 -0.4900
15033TIP3    H166590   4.773   3.342  12.626  0.9388 -0.7280  1.1371
15033TIP3    H266591   4.859   3.395  12.513 -1.9759 -0.9112 -1.2913
15034TIP3   OH266592   4.196   3.848  16.286  0.3461 -0.0058 -0.4790
15034TIP3    H166593   4.211   3.813  16.198 -1.0844  1.6860 -1.4717
15034TIP3    H266594   4.101   3.850  16.295  0.4425 -1.4010  1.7046
15035TIP3   OH266595   6.016   2.168  11.512 -0.4328 -0.7502 -0.1008
15035TIP3    H166596   5.982   2.232  11.449 -0.6040  0.4299  1.1356
15035TIP3    H266597   5.941   2.147  11.567  0.3219  0.4726  1.4981
15036TIP3   OH266598   4.823   2.516  13.881 -0.1305  0.1671 -0.2401
15036TIP3    H166599   4.737   2.476  13.866  0.5447 -1.0216 -1.1810
15036TIP3    H266600   4.834   2.576  13.808  0.0276 -0.0404 -0.3887
15037TIP3   OH266601   2.570   3.293  13.319  0.3395 -0.3875  0.8604
15037TIP3    H166602   2.540   3.265  13.406  0.2026 -0.6244  0.7370
15037TIP3    H266603   2.494   3.336  13.280  0.1218 -1.0946  0.5006
15038TIP3   OH266604   4.829   3.609  14.224 -0.0618  0.3109 -0.4059
15038TIP3    H166605   4.805   3.608  14.316  1.1984  1.4748 -0.0279
15038TIP3    H266606   4.855   3.519  14.205 -0.4506  0.0338  0.3413
15039TIP3   OH266607   4.567   0.457  11.493  0.2633 -0.4024  0.4205
15039TIP3    H166608   4.642   0.497  11.448 -1.3204 -0.6948 -2.7050
15039TIP3    H266609   4.512   0.531  11.518  0.9570 -0.2661  1.6433
15040TIP3   OH266610   3.634   1.042  13.241 -0.1352 -0.0016 -0.1033
15040TIP3    H166611   3.572   1.016  13.309  0.7342 -1.2391  0.2462
15040TIP3    H266612   3.707   1.081  13.289  0.1406 -0.1708 -0.3807
15041TIP3   OH266613   4.143   5.658   1.073  0.3710 -0.3669 -0.0093
15041TIP3    H166614   4.124   5.577   1.026  2.0401 -0.5522 -0.4368
15041TIP3    H266615   4.218   5.636   1.129 -1.6724 -0.2207  3.0056
15042TIP3   OH266616   1.181   0.341   1.108  0.6002  0.0959  0.1827
15042TIP3    H166617   1.273   0.316   1.102  0.7677  0.6405  0.4074
15042TIP3    H266618   1.183   0.437   1.118  0.0046  0.1295 -0.0032
15043TIP3   OH266619   2.375   0.575   1.195  0.1149 -0.2958  0.1405
15043TIP3    H166620   2.361   0.576   1.290 -1.2718  0.2119 -0.0492
15043TIP3    H266621   2.302   0.626   1.160 -0.8314 -2.5552 -1.3852
15044TIP3   OH266622   4.955   6.756  10.315  0.3590  0.5603 -1.0012
15044TIP3    H166623   4.899   6.679  10.316  1.7042 -0.5014  1.6638
15044TIP3    H266624   4.895   6.830  10.304 -1.5101 -0.5794  0.8447
15045TIP3   OH266625   1.775   6.165   4.240 -0.1164  0.7063 -0.4548
15045TIP3    H166626   1.757   6.214   4.320 -2.2177  0.9296 -0.9936
15045TIP3    H266627   1.754   6.074   4.263 -0.0058  0.6550 -0.5565
15046TIP3   OH266628   5.546   2.682  16.982 -0.1040  0.1756 -0.5238
15046TIP3    H166629   5.592   2.717  16.906  1.1610  0.3045  0.2645
15046TIP3    H266630   5.615   2.642  17.035 -0.8845  0.5045  0.7730
15047TIP3   OH266631   5.568   5.445  11.134  0.3605  0.2498  0.2985
15047TIP3    H166632   5.653   5.402  11.138  0.4177  0.4362  1.5190
15047TIP3    H266633   5.524   5.404  11.060  1.7067  0.5388 -0.7011
15048TIP3   OH266634   0.406   5.798  11.631 -0.0973  0.5777  0.0941
15048TIP3    H166635   0.487   5.753  11.658 -0.1986  0.9582  1.0607
15048TIP3    H266636   0.436   5.883  11.600 -0.2082  1.1644  1.5261
15049TIP3   OH266637   6.794   6.499   3.463 -0.1804  0.1469  0.3264
15049TIP3    H166638   6.753   6.452   3.391 -0.8350  0.3987  0.5290
15049TIP3    H266639   6.833   6.430   3.518 -1.8563 -0.2560  1.0775
15050TIP3   OH266640   5.133   5.310  16.359 -0.7567 -0.3566  0.1227
15050TIP3    H166641   5.221   5.298  16.324  0.3708  1.1136  2.2280
15050TIP3    H266642   5.141   5.292  16.452 -1.9036  2.8284  0.9672
15051TIP3   OH266643   6.579   1.031   1.388  0.0491 -0.1571  0.1222
15051TIP3    H166644   6.559   0.945   1.352  1.6414  0.4537 -2.4106
15051TIP3    H266645   6.669   1.023   1.421  0.0983  0.4433  0.1422
15052TIP3   OH266646   1.643   4.788  11.483 -0.5276 -0.7926 -0.1422
15052TIP3    H166647   1.712   4.731  11.451  1.2451  0.4913  1.2215
15052TIP3    H266648   1.658   4.871  11.439 -0.3135 -0.0829  1.2323
15053TIP3   OH266649   5.400   1.602   2.991 -0.6080  0.3053  0.4831
15053TIP3    H166650   5.423   1.513   2.966  0.6935  0.6452  0.4028
15053TIP3    H266651   5.482   1.641   3.021 -0.4377  2.4078 -2.2943
15054TIP3   OH266652   5.389   4.009  14.986 -0.6776 -0.3662 -0.1111
15054TIP3    H166653   5.398   3.946  15.057 -0.7891  0.1026  0.3293
15054TIP3    H266654   5.306   4.054  15.004  0.1505  1.0087  0.5021
15055TIP3   OH266655   5.141   0.495  16.428 -0.4019  0.1189  0.1428
15055TIP3    H166656   5.125   0.585  16.455 -0.0653  0.5779 -1.1048
15055TIP3    H266657   5.236   0.484  16.435 -0.2099  0.4799 -1.4233
15056TIP3   OH266658   2.523   4.399   0.459 -0.5725 -0.1686  0.1199
15056TIP3    H166659   2.481   4.413   0.374  0.4524  0.5632 -0.2859
15056TIP3    H266660   2.477   4.458   0.518 -1.5362 -0.9446  0.1767
15057TIP3   OH266661   0.531   1.143  14.999  0.2528 -0.6017 -0.2404
15057TIP3    H166662   0.563   1.226  15.034 -0.7046 -0.5390  0.5146
15057TIP3    H266663   0.480   1.104  15.070 -1.0604 -0.8549 -1.2775
15058TIP3   OH266664   3.580   6.790   0.644  0.2837 -0.3665 -0.1140
15058TIP3    H166665   3.603   6.840   0.723  0.1539 -0.9146  0.2732
15058TIP3    H266666   3.560   6.857   0.578  0.5557  0.0964  0.2668
15059TIP3   OH266667   1.570   5.288  14.571 -0.3489 -0.5858 -0.3414
15059TIP3    H166668   1.567   5.279  14.666 -0.0788 -2.0393 -0.4425
15059TIP3    H266669   1.645   5.345  14.554 -0.8564  0.2922  0.3411
15060TIP3   OH266670   1.676   5.959  12.464  0.1115 -0.4751 -0.5455
15060TIP3    H166671   1.661   5.983  12.555 -0.0053  0.0073 -0.6905
15060TIP3    H266672   1.743   6.020  12.433  0.8707 -1.2649 -0.5061
15061TIP3   OH266673   4.920   3.405   2.203  0.2731  0.2663  0.3006
15061TIP3    H166674   4.902   3.339   2.270  2.7939  1.1672  2.0432
15061TIP3    H266675   4.921   3.357   2.121 -0.9551 -1.2704  1.1455
15062TIP3   OH266676   5.487   2.966  16.656  0.5462 -0.6487  0.1606
15062TIP3    H166677   5.516   3.021  16.728  0.6891 -1.1421  0.4812
15062TIP3    H266678   5.393   2.953  16.672  0.5479 -0.6404  0.1760
15063TIP3   OH266679   4.488   2.069  11.694 -0.3761  0.0255 -0.3655
15063TIP3    H166680   4.448   2.111  11.618  0.8290  1.1645 -0.3972
15063TIP3    H266681   4.457   2.120  11.769  0.4108  0.4577 -0.3254
15064TIP3   OH266682   3.500   0.949  12.210 -0.1637  0.5132  0.3348
15064TIP3    H166683   3.447   0.960  12.289 -1.2457 -0.2801 -0.2466
15064TIP3    H266684   3.542   0.863  12.221 -1.6793 -0.4030 -0.6770
15065TIP3   OH266685   1.275   3.498   0.567 -0.2199  0.1570 -0.4313
15065TIP3    H166686   1.315   3.563   0.625 -1.4283  1.2251 -0.7494
15065TIP3    H266687   1.263   3.543   0.484  1.4686 -1.3465 -1.5878
15066TIP3   OH266688   5.762   3.463  13.699 -0.7629  0.3235 -0.1245
15066TIP3    H166689   5.789   3.411  13.774  2.5285 -0.8967 -1.9394
15066TIP3    H266690   5.790   3.552  13.720  0.0725  0.0004  0.1772
15067TIP3   OH266691   1.116   1.871   4.348  0.2141 -0.5804 -0.1238
15067TIP3    H166692   1.101   1.920   4.428  1.9418  1.1925 -0.8057
15067TIP3    H266693   1.060   1.914   4.283 -0.7883 -1.6837 -0.0248
15068TIP3   OH266694   5.770   0.137   2.350  0.1845  0.1133 -0.4694
15068TIP3    H166695   5.851   0.189   2.357 -1.9995  3.7165  0.4023
15068TIP3    H266696   5.771   0.105   2.260  2.5941 -0.0573 -0.4566
15069TIP3   OH266697   3.597   2.397  16.680 -0.5093 -0.1264 -0.1371
15069TIP3    H166698   3.504   2.373  16.678 -1.0721  1.8495 -2.1132
15069TIP3    H266699   3.598   2.483  16.723  0.8177 -1.2887  2.3535
15070TIP3   OH266700   5.045   1.355   5.382 -0.2734 -0.8292  0.6658
15070TIP3    H166701   5.099   1.287   5.424  1.5622  0.6657  0.9000
15070TIP3    H266702   5.023   1.414   5.454  0.4162  0.1991  0.0544
15071TIP3   OH266703   0.720   5.576   5.121  0.7072  0.1144 -0.2165
15071TIP3    H166704   0.702   5.621   5.203 -1.0538 -0.4958 -0.2139
15071TIP3    H266705   0.779   5.505   5.144  1.5285  0.9305  0.2184
15072TIP3   OH266706   4.159   4.292  16.721 -0.3331 -0.5571  0.0081
15072TIP3    H166707   4.202   4.248  16.648  0.9156 -0.1372  0.4709
15072TIP3    H266708   4.214   4.272  16.797  0.6845  2.3400  0.1327
15073TIP3   OH266709   6.138   6.287   5.438  0.3092 -0.2590 -0.0188
15073TIP3    H166710   6.110   6.199   5.415  0.5878 -0.7229  1.3380
15073TIP3    H266711   6.210   6.306   5.378  0.0048 -0.7949 -0.5667
15074TIP3   OH266712   5.469   5.099   2.852 -0.0556  0.7245 -0.5694
15074TIP3    H166713   5.495   5.090   2.760 -1.5444  0.7762 -1.0183
15074TIP3    H266714   5.400   5.165   2.852 -0.5030  0.2873  0.5103
15075TIP3   OH266715   6.757   5.090  16.596  0.7779  0.3517 -0.2307
15075TIP3    H166716   6.684   5.041  16.558 -0.4769  0.2608  2.0910
15075TIP3    H266717   6.731   5.181  16.590 -0.4424  0.2342  2.1567
15076TIP3   OH266718   4.219   0.960   6.578  0.4523 -0.1702  0.2805
15076TIP3    H166719   4.139   1.012   6.573  0.9862  0.9890  2.4682
15076TIP3    H266720   4.216   0.903   6.502 -1.7378  0.8553 -0.4651
15077TIP3   OH266721   2.650   5.305   5.946  0.2279  0.1537  0.0916
15077TIP3    H166722   2.632   5.365   6.018 -0.2487  0.6183 -0.4086
15077TIP3    H266723   2.605   5.343   5.871 -1.8717 -1.8443  0.1813
15078TIP3   OH266724   0.659   2.127  13.168 -0.2702  0.0288 -0.0677
15078TIP3    H166725   0.668   2.176  13.250  0.2354  1.6161 -1.0078
15078TIP3    H266726   0.734   2.068  13.167 -0.9959 -0.9637  1.1847
15079TIP3   OH266727   4.105   4.966  14.497 -0.3092  0.4255  0.0246
15079TIP3    H166728   4.052   4.977  14.576  0.7233  0.2814  0.7680
15079TIP3    H266729   4.104   5.052  14.455  0.2512  0.8883  0.9331
15080TIP3   OH266730   5.094   0.564   5.678 -0.5678 -0.1962  0.0700
15080TIP3    H166731   5.033   0.614   5.731  0.3084  0.7418  0.2164
15080TIP3    H266732   5.090   0.605   5.592 -0.4954 -0.4417 -0.0528
15081TIP3   OH266733   1.992   4.627  11.127 -0.2697  0.1829 -0.6476
15081TIP3    H166734   2.038   4.706  11.156  0.7253 -0.6322  0.0749
15081TIP3    H266735   2.027   4.608  11.040  0.3890 -0.1407 -0.3152
15082TIP3   OH266736   4.265   2.368   4.393  0.4616 -0.0577  0.0389
15082TIP3    H166737   4.247   2.275   4.379  1.5635 -0.1973 -0.5821
15082TIP3    H266738   4.188   2.400   4.441 -1.0824 -0.7496 -1.8183
15083TIP3   OH266739   4.146   6.113   6.037 -0.3052 -0.5536  0.3306
15083TIP3    H166740   4.137   6.208   6.051 -1.3849 -0.2479 -1.9470
15083TIP3    H266741   4.218   6.087   6.094  1.7926  2.1379 -0.8731
15084TIP3   OH266742   4.170   1.300   4.464 -0.1690  0.2170  0.8233
15084TIP3    H166743   4.220   1.242   4.522 -0.5386  0.3027  1.2323
15084TIP3    H266744   4.144   1.373   4.519  0.5928  0.9589  0.2157
15085TIP3   OH266745   3.207   2.865  12.717  0.1744 -0.4181 -0.5022
15085TIP3    H166746   3.227   2.862  12.624 -1.5280 -0.3519 -0.8984
15085TIP3    H266747   3.179   2.776  12.738  1.2565 -0.6297  0.1454
15086TIP3   OH266748   2.326   0.247  14.622 -0.2010 -0.0474 -0.1486
15086TIP3    H166749   2.288   0.335  14.627  1.6959  0.9565 -2.0178
15086TIP3    H266750   2.404   0.257  14.568  2.2581 -2.1859  2.6426
15087TIP3   OH266751   2.277   5.523   5.537  0.3648  0.4955 -0.0243
15087TIP3    H166752   2.203   5.474   5.573  0.3704  0.3784 -0.1670
15087TIP3    H266753   2.348   5.458   5.533  0.3408  0.4842 -0.3176
15088TIP3   OH266754   5.136   2.253   2.525  0.0802  0.0754  0.5733
15088TIP3    H166755   5.114   2.340   2.490 -0.6911 -0.1411  0.5128
15088TIP3    H266756   5.093   2.250   2.610 -1.2868 -0.8604 -0.1161
15089TIP3   OH266757   6.597   0.288   2.674  0.0581 -0.6500 -0.6095
15089TIP3    H166758   6.519   0.340   2.657  0.9268  0.6815 -0.6544
15089TIP3    H266759   6.599   0.224   2.602  0.6995  1.3671 -2.5001
15090TIP3   OH266760   0.023   0.071   0.466  0.5284 -0.0832 -0.9194
15090TIP3    H166761  -0.005   0.120   0.543 -0.9252 -1.8713 -0.2274
15090TIP3    H266762  -0.046   0.086   0.402  0.6241 -0.3584 -1.0884
15091TIP3   OH266763   5.432   3.358  16.365 -0.1268 -0.1364  0.0152
15091TIP3    H166764   5.437   3.389  16.275 -0.4256 -0.9681 -0.2840
15091TIP3    H266765   5.445   3.264  16.360  3.1788  0.1132  1.1237
15092TIP3   OH266766   6.196   0.109   1.436 -0.0030  0.3030 -0.3534
15092TIP3    H166767   6.140   0.175   1.476 -0.3387  0.3832 -0.9473
15092TIP3    H266768   6.249   0.075   1.508  1.4902  2.5174 -0.3229
15093TIP3   OH266769   5.957   1.919  13.808 -0.1467  0.1124  0.2842
15093TIP3    H166770   5.953   1.929  13.903  0.8222  1.1425  0.2320
15093TIP3    H266771   5.892   1.851  13.789  0.1779 -0.6523  1.7534
15094TIP3   OH266772   2.509   4.840   5.798  0.1840  0.6766 -0.1468
15094TIP3    H166773   2.534   4.845   5.890 -0.4552 -1.2700  0.1952
15094TIP3    H266774   2.581   4.792   5.756 -0.1246  0.4182 -0.3910
15095TIP3   OH266775   0.120   1.202   0.491 -0.3407  0.0002  0.5018
15095TIP3    H166776   0.070   1.280   0.517  2.8706  1.9120  1.4617
15095TIP3    H266777   0.191   1.236   0.437  0.4536 -2.4430 -0.0828
15096TIP3   OH266778   3.727   5.374   5.017 -0.4110  0.3898 -0.1195
15096TIP3    H166779   3.667   5.300   5.028  0.1613 -0.1091 -0.2833
15096TIP3    H266780   3.802   5.351   5.072  0.4644  0.0870 -1.3925
15097TIP3   OH266781   5.659   0.404   2.129  0.3530  0.2345  0.0039
15097TIP3    H166782   5.668   0.424   2.036 -1.0434  0.2447 -0.1503
15097TIP3    H266783   5.745   0.372   2.155  1.5709  2.6910 -0.6612
15098TIP3   OH266784   4.764   2.221  16.660  0.1807  0.1298  0.0227
15098TIP3    H166785   4.689   2.182  16.617 -0.0177  0.9823 -0.4341
15098TIP3    H266786   4.833   2.219  16.593  0.4562 -0.3151  0.3190
15099TIP3   OH266787   3.779   6.705   3.727 -0.3825 -0.4209 -0.7204
15099TIP3    H166788   3.854   6.736   3.777 -0.2667  0.5994 -1.5018
15099TIP3    H266789   3.816   6.669   3.647 -0.7457  0.6052 -1.3650
15100TIP3   OH266790   1.173   5.524   6.207  0.1674  0.1836  0.4471
15100TIP3    H166791   1.106   5.593   6.205  1.1149  1.1182 -0.5407
15100TIP3    H266792   1.141   5.461   6.272 -0.4991  1.7972  1.7559
15101TIP3   OH266793   0.787   3.706  15.302  0.0915  0.3138  0.2503
15101TIP3    H166794   0.713   3.766  15.309 -0.6175 -0.6155  1.1322
15101TIP3    H266795   0.859   3.760  15.269 -1.2574  0.9790 -1.7665
15102TIP3   OH266796   6.224   5.669  11.457  0.1295 -0.2798  0.2257
15102TIP3    H166797   6.214   5.596  11.396  0.0716  1.2163 -1.6710
15102TIP3    H266798   6.163   5.736  11.424  3.3520  2.3666 -1.0114
15103TIP3   OH266799   2.041   2.941  11.580 -0.5860  0.5200  0.4667
15103TIP3    H166800   2.013   2.997  11.507 -3.0257  1.0512  1.7162
15103TIP3    H266801   2.132   2.968  11.597 -1.3490  3.4762  0.3748
15104TIP3   OH266802   3.201   6.262   2.207 -0.0751  0.1790 -0.2700
15104TIP3    H166803   3.141   6.326   2.169 -0.7081 -1.0146 -1.3297
15104TIP3    H266804   3.184   6.267   2.301  0.1685  1.8300 -0.2797
15105TIP3   OH266805   3.810   6.387  17.193 -0.1626 -0.1486 -0.4301
15105TIP3    H166806   3.866   6.319  17.231  1.0531  0.5005 -1.0090
15105TIP3    H266807   3.871   6.453  17.160 -1.3219  1.8455  1.2077
15106TIP3   OH266808   3.933   5.074  14.692  0.2800  0.2175 -0.0456
15106TIP3    H166809   3.979   5.155  14.714  1.2220  0.1299 -1.5400
15106TIP3    H266810   3.854   5.075  14.747  0.8051  1.6089  0.7305
15107TIP3   OH266811   2.317   0.741   5.525  0.0502  0.2211  0.7183
15107TIP3    H166812   2.280   0.694   5.599 -0.0280  1.5770  1.5730
15107TIP3    H266813   2.412   0.735   5.539  0.0599 -0.0941  0.5433
15108TIP3   OH266814   2.202   3.736   3.742  0.6315 -0.1770 -0.0384
15108TIP3    H166815   2.281   3.756   3.792  0.0760  0.7588  0.4867
15108TIP3    H266816   2.130   3.761   3.799 -0.0594 -0.9865 -0.5250
15109TIP3   OH266817   0.185   4.556   2.627 -0.4670  0.0774  0.2851
15109TIP3    H166818   0.113   4.505   2.664 -0.7450  0.5723  0.4412
15109TIP3    H266819   0.169   4.645   2.658  0.6351  0.0611  0.9404
15110TIP3   OH266820   0.752   6.193   0.888  0.1946  0.5195  0.9373
15110TIP3    H166821   0.695   6.264   0.916  0.5067  0.8056  0.8617
15110TIP3    H266822   0.758   6.202   0.793 -1.2680 -0.7567  0.6903
15111TIP3   OH266823   2.985   2.881   6.883 -0.0983  0.3217 -0.0084
15111TIP3    H166824   2.955   2.791   6.867 -0.1050  0.0966  1.1787
15111TIP3    H266825   2.910   2.935   6.858 -0.2459 -0.0261 -0.3346
15112TIP3   OH266826   2.178   4.804  16.734 -0.1809  0.0821 -0.3599
15112TIP3    H166827   2.205   4.876  16.792 -0.2200 -0.5373  0.4351
15112TIP3    H266828   2.228   4.728  16.764  0.6501 -0.0099 -1.8693
15113TIP3   OH266829   3.359   3.354  13.196  0.2032 -0.1645 -0.2570
15113TIP3    H166830   3.419   3.405  13.251 -0.5876  1.7531 -1.0757
15113TIP3    H266831   3.277   3.352  13.246  0.5369 -1.6408  0.2689
15114TIP3   OH266832   0.393   5.502  13.865 -0.0514 -0.5953  0.1009
15114TIP3    H166833   0.298   5.504  13.858 -0.0691  0.2782  0.4307
15114TIP3    H266834   0.421   5.586  13.829  0.4516  0.0475  1.9116
15115TIP3   OH266835   3.959   6.814   5.948 -0.5331  0.6439  0.1190
15115TIP3    H166836   3.982   6.816   6.041  3.0961  2.1138 -0.6336
15115TIP3    H266837   3.910   6.895   5.934 -1.5360  0.1723  0.8069
15116TIP3   OH266838   3.378   6.008   3.884 -0.0459  0.5314 -0.8317
15116TIP3    H166839   3.424   6.080   3.840 -0.6358  0.0667 -2.2766
15116TIP3    H266840   3.448   5.960   3.929  1.2301 -0.9131 -4.0217
15117TIP3   OH266841   6.707   6.577  17.078 -0.2856  0.0783  0.2097
15117TIP3    H166842   6.734   6.493  17.114  0.5671 -0.3164 -1.2731
15117TIP3    H266843   6.615   6.565  17.055  0.1643 -0.9146 -1.1999
15118TIP3   OH266844   2.522   0.330   1.154  0.0274 -0.1738  0.4276
15118TIP3    H166845   2.476   0.409   1.182  0.0086 -0.2738  0.6795
15118TIP3    H266846   2.481   0.308   1.070 -0.0433  0.0188  0.4092
15119TIP3   OH266847   6.736   4.917   5.045  0.0204  0.5046 -0.6376
15119TIP3    H166848   6.807   4.977   5.025 -0.0205  0.2336 -1.6439
15119TIP3    H266849   6.763   4.833   5.007  0.5373 -0.4243  1.5885
15120TIP3   OH266850   0.885   3.027   5.893 -0.5091 -0.2668  0.0781
15120TIP3    H166851   0.867   3.052   5.802  0.1057 -0.6564 -0.1527
15120TIP3    H266852   0.836   2.945   5.904 -1.9621  0.6352  0.6256
15121TIP3   OH266853   3.779   1.000  11.230  0.6240 -0.5590  0.0217
15121TIP3    H166854   3.851   0.937  11.225  1.2583  0.1579 -0.0204
15121TIP3    H266855   3.809   1.075  11.179 -0.4388 -0.5195 -0.5808
15122TIP3   OH266856   1.141   3.472  12.054 -0.2448 -0.1725 -0.1846
15122TIP3    H166857   1.206   3.540  12.070 -2.4688  2.1028 -0.0777
15122TIP3    H266858   1.098   3.460  12.138  0.7175 -2.4926  0.0336
15123TIP3   OH266859   3.425   3.522   3.403  0.3109  0.2341  0.5559
15123TIP3    H166860   3.332   3.528   3.424  0.5302  2.0155  1.2083
15123TIP3    H266861   3.442   3.428   3.393 -1.6300 -0.0850  0.0031
15124TIP3   OH266862   4.517   3.982  14.170 -0.3801 -0.2001  0.2967
15124TIP3    H166863   4.558   3.900  14.141 -1.8584 -1.0665  0.5552
15124TIP3    H266864   4.568   4.007  14.247  0.0534 -0.9219  0.2603
15125TIP3   OH266865   1.508   0.039  16.333  0.4070 -0.0471 -0.4646
15125TIP3    H166866   1.421   0.079  16.334  0.6203  0.4792  1.1182
15125TIP3    H266867   1.494  -0.050  16.364  0.6036  0.5856  1.6198
15126TIP3   OH266868   6.245   1.016  12.658 -0.1830 -0.1615  0.1560
15126TIP3    H166869   6.316   1.063  12.616 -0.3604 -0.5243 -0.5722
15126TIP3    H266870   6.201   0.970  12.586 -1.7136  0.7831  0.4396
15127TIP3   OH266871   4.698   0.889  14.283 -0.1309  0.1544  0.0531
15127TIP3    H166872   4.683   0.832  14.208 -1.5582 -1.8952  1.7670
15127TIP3    H266873   4.792   0.887  14.297  0.4801  2.2834 -2.8224
15128TIP3   OH266874   3.927   1.446   4.750  0.0492  0.1301  0.0810
15128TIP3    H166875   3.987   1.456   4.677 -0.6520  1.9979 -0.2975
15128TIP3    H266876   3.877   1.367   4.729 -1.1657  1.4137 -2.2951
15129TIP3   OH266877   3.158   5.561   1.571 -0.1785 -0.2832  0.6411
15129TIP3    H166878   3.090   5.494   1.578  0.0167 -0.6278 -0.6495
15129TIP3    H266879   3.111   5.643   1.585 -1.1665 -0.3990 -1.6358
15130TIP3   OH266880   5.253   0.189  13.111 -0.4848  0.4833  0.7614
15130TIP3    H166881   5.320   0.257  13.101  0.2485 -0.3822 -0.5093
15130TIP3    H266882   5.221   0.200  13.201  0.8186  1.4094  1.1403
15131TIP3   OH266883   4.807   3.532   4.617  0.1417 -0.2607 -0.3747
15131TIP3    H166884   4.764   3.458   4.661 -0.1739  0.5988  0.7930
15131TIP3    H266885   4.854   3.578   4.686 -1.5753  1.9836 -0.5839
15132TIP3   OH266886   0.396   4.701   4.463 -0.2001 -0.2862  0.1465
15132TIP3    H166887   0.360   4.649   4.391  0.7842  0.0688 -0.6266
15132TIP3    H266888   0.352   4.667   4.541  0.0460 -1.9392 -0.3949
15133TIP3   OH266889   1.180   4.899   4.643  0.1344  0.1837 -0.2506
15133TIP3    H166890   1.158   4.863   4.729 -0.9146  1.5190  0.0601
15133TIP3    H266891   1.264   4.858   4.621  0.5709  0.0386  1.5429
15134TIP3   OH266892   1.218   6.130  11.612  0.2271 -0.5040 -0.3380
15134TIP3    H166893   1.255   6.084  11.536  1.8238 -0.5859  0.4365
15134TIP3    H266894   1.233   6.223  11.593  0.5495 -0.5204 -0.1806
15135TIP3   OH266895   1.282   4.009   4.112 -0.0443  0.1660 -0.4087
15135TIP3    H166896   1.211   4.066   4.141  0.7445  1.0082 -0.0604
15135TIP3    H266897   1.251   3.969   4.031 -1.3078 -0.2741  0.2792
15136TIP3   OH266898   0.352   4.077   5.663  0.7159 -0.3129  0.2786
15136TIP3    H166899   0.397   4.125   5.732  0.0273 -0.7618  1.0485
15136TIP3    H266900   0.364   3.985   5.686  0.6815 -0.4760 -0.3329
15137TIP3   OH266901   3.946   2.512   0.835 -0.8645 -0.3805 -0.6138
15137TIP3    H166902   3.867   2.488   0.883 -1.2659  0.3829 -0.8870
15137TIP3    H266903   4.017   2.495   0.897 -1.5218  3.1185  1.3845
15138TIP3   OH266904   3.888   4.244   6.240  0.4673  0.4900  0.2100
15138TIP3    H166905   3.845   4.161   6.260  0.4986  0.3883 -0.1484
15138TIP3    H266906   3.817   4.303   6.212  0.6893 -0.0332 -1.5608
15139TIP3   OH266907   0.838   4.183   4.502  0.2542  0.3321  0.5483
15139TIP3    H166908   0.811   4.127   4.430  0.6975 -0.1368  0.7469
15139TIP3    H266909   0.798   4.143   4.580  0.5812  0.2783  0.6912
15140TIP3   OH266910   5.060   3.093  16.290 -0.2975  0.1396  0.1406
15140TIP3    H166911   5.047   2.998  16.289  0.2670  0.0545  0.4746
15140TIP3    H266912   4.998   3.125  16.355  0.0373 -0.0814  0.5666
15141TIP3   OH266913   6.407   3.864   4.144 -0.2458  0.4675 -0.5347
15141TIP3    H166914   6.389   3.861   4.238  0.6126 -1.6417 -0.3801
15141TIP3    H266915   6.329   3.904   4.106 -0.9645  0.5868  1.0042
15142TIP3   OH266916   0.829   1.046   2.795  0.2489  0.2885 -0.0431
15142TIP3    H166917   0.879   0.972   2.830  1.2687  1.3019  0.7080
15142TIP3    H266918   0.869   1.063   2.709  0.9265  0.8173  0.3677
15143TIP3   OH266919   0.200   3.861  15.599  0.2036 -0.2989  0.6461
15143TIP3    H166920   0.267   3.927  15.618 -0.4554  0.8966 -0.9371
15143TIP3    H266921   0.120   3.896  15.637  0.1038 -0.7988  0.8931
15144TIP3   OH266922   3.233   2.832  14.413 -0.1019 -0.1772  0.1033
15144TIP3    H166923   3.156   2.869  14.457 -0.6224 -2.0399  0.8391
15144TIP3    H266924   3.234   2.874  14.327  0.2468  2.6713  1.3759
15145TIP3   OH266925   2.821   2.661   5.624 -0.7027  0.7716  0.0761
15145TIP3    H166926   2.807   2.703   5.709  1.8749 -0.3562  1.1833
15145TIP3    H266927   2.894   2.710   5.585  0.1983 -0.5885 -0.0454
15146TIP3   OH266928   6.258   0.352   5.547  0.1135 -0.7029  0.8563
15146TIP3    H166929   6.239   0.341   5.640 -0.8280 -0.7997  0.6580
15146TIP3    H266930   6.240   0.445   5.530  1.4711 -0.3877  1.0288
15147TIP3   OH266931   4.250   0.349  12.890  0.0312 -0.1575 -0.1386
15147TIP3    H166932   4.165   0.375  12.853  0.8482 -0.0695 -2.0701
15147TIP3    H266933   4.291   0.431  12.917 -0.2700 -0.1544  0.3291
15148TIP3   OH266934   4.516   2.083   3.350  0.1113  0.0310  0.1507
15148TIP3    H166935   4.451   2.110   3.416 -2.9204 -0.7930 -2.2490
15148TIP3    H266936   4.561   2.164   3.327  0.5684  0.5108  2.4474
15149TIP3   OH266937   2.399   3.490   1.571  0.1619 -0.1489  0.2601
15149TIP3    H166938   2.453   3.413   1.590  0.7837  0.3108  0.3650
15149TIP3    H266939   2.311   3.454   1.558  0.9172 -1.2486 -2.5589
15150TIP3   OH266940   1.833   5.483   4.491  0.0439  0.8109  0.0288
15150TIP3    H166941   1.893   5.532   4.435  0.6995 -0.9331 -0.8888
15150TIP3    H266942   1.855   5.511   4.580  0.5031  2.0201 -0.4424
15151TIP3   OH266943   0.918   2.432  15.149 -0.2435 -0.4495  0.1683
15151TIP3    H166944   0.957   2.365  15.092  1.4295 -0.1920  0.9331
15151TIP3    H266945   0.876   2.383  15.219  1.7177 -0.7817  1.2053
15152TIP3   OH266946   2.076   0.508   2.155 -0.0008 -0.1863 -0.5025
15152TIP3    H166947   2.084   0.416   2.133  0.2304  0.0229 -1.3325
15152TIP3    H266948   1.986   0.519   2.184  0.1431 -0.7872  0.2002
15153TIP3   OH266949   3.120   4.237   5.831 -0.5135  0.0213 -0.0671
15153TIP3    H166950   3.166   4.254   5.914  1.0329  0.3685 -0.9621
15153TIP3    H266951   3.127   4.143   5.819 -0.7438 -0.0314  0.1844
15154TIP3   OH266952   5.247   4.714   3.791  0.0404 -0.0172  0.1693
15154TIP3    H166953   5.196   4.634   3.776  1.2338 -0.4994 -1.6370
15154TIP3    H266954   5.200   4.782   3.743  0.8776 -0.4050 -1.2617
15155TIP3   OH266955   4.794   5.107  13.274 -0.5009 -0.4986 -0.7581
15155TIP3    H166956   4.740   5.085  13.198 -1.9905  0.5588 -0.0474
15155TIP3    H266957   4.733   5.146  13.337  0.6818 -1.3597  1.0100
15156TIP3   OH266958   5.604   2.223   2.455 -0.5994 -0.5637 -0.0779
15156TIP3    H166959   5.615   2.134   2.422 -1.5037 -0.6386 -0.1895
15156TIP3    H266960   5.629   2.218   2.547  0.3095 -0.7105 -0.3173
15157TIP3   OH266961   4.511   2.016   5.085  0.0982  0.5820 -0.0974
15157TIP3    H166962   4.421   2.040   5.064 -0.0186  0.4651  0.2622
15157TIP3    H266963   4.504   1.928   5.123  0.5392 -0.1399 -1.6233
15158TIP3   OH266964   3.949   1.111   4.947  0.0881 -0.6491 -0.4091
15158TIP3    H166965   3.881   1.102   5.014 -0.0521 -1.7115 -0.6678
15158TIP3    H266966   3.902   1.140   4.869  0.1816  0.1459 -0.1755
15159TIP3   OH266967   4.018   5.750  13.433  0.5170  0.1098  0.0110
15159TIP3    H166968   4.055   5.835  13.409  0.4640  0.4677  1.1071
15159TIP3    H266969   4.093   5.697  13.457  0.4871  0.1340  0.1601
15160TIP3   OH266970   1.572   1.170   5.487  0.1152 -0.4912 -0.4370
15160TIP3    H166971   1.594   1.087   5.530  0.5241 -0.0985  0.1248
15160TIP3    H266972   1.539   1.226   5.557 -1.7877 -0.7156 -1.0874
15161TIP3   OH266973   5.907   4.558   5.840 -0.0336  0.6138 -0.3984
15161TIP3    H166974   5.907   4.488   5.905 -1.2867 -0.5317 -1.5641
15161TIP3    H266975   5.922   4.638   5.890  1.4865 -0.4715  0.9569
15162TIP3   OH266976   4.125   4.936   4.565  0.5954 -0.6006 -0.2024
15162TIP3    H166977   4.063   4.920   4.637  0.4610 -1.5073 -0.5041
15162TIP3    H266978   4.071   4.931   4.486  0.6458  0.9015 -0.3646
15163TIP3   OH266979   1.333   3.167  16.846  0.7227  0.0555 -0.1152
15163TIP3    H166980   1.264   3.219  16.804 -1.3497 -0.5174  2.3282
15163TIP3    H266981   1.366   3.110  16.776 -2.1964 -0.5205 -1.1630
15164TIP3   OH266982   1.805   4.037   3.781  0.0779 -0.0281  1.0008
15164TIP3    H166983   1.828   4.059   3.872  0.8146  1.5148  0.4720
15164TIP3    H266984   1.869   4.085   3.728 -1.3541  0.4249 -0.3845
15165TIP3   OH266985   4.841   2.151   2.660 -0.1725  0.6156 -0.3543
15165TIP3    H166986   4.884   2.111   2.584  1.8863  0.4505  0.8260
15165TIP3    H266987   4.848   2.245   2.645 -0.0207  0.5818 -0.4997
15166TIP3   OH266988   6.409   4.640  17.182  0.5787  0.1693 -0.0809
15166TIP3    H166989   6.487   4.606  17.138  0.0698 -1.8456  0.5036
15166TIP3    H266990   6.357   4.678  17.112  1.1023 -0.4122 -0.7995
15167TIP3   OH266991   0.520   6.525  16.371 -0.5233 -0.1842 -0.2176
15167TIP3    H166992   0.555   6.452  16.422  0.4561 -0.5961 -1.4356
15167TIP3    H266993   0.458   6.568  16.430 -1.2733 -2.1010  0.4783
15168TIP3   OH266994   1.784   4.516  11.396 -0.1724  0.5699 -0.5273
15168TIP3    H166995   1.706   4.518  11.451  1.1743  2.5064  1.4758
15168TIP3    H266996   1.857   4.533  11.457  1.4157  2.9645 -2.8687
15169TIP3   OH266997   3.254   1.510   1.113  0.5586  0.1788 -0.3319
15169TIP3    H166998   3.217   1.502   1.201  2.4302  0.0642  0.4899
15169TIP3    H266999   3.303   1.592   1.115  2.8033 -1.0750 -0.3555
15170TIP3   OH267000   6.631   1.561   5.967 -0.1293  0.1983  0.2133
15170TIP3    H167001   6.690   1.603   6.030  1.0612  0.6847 -1.1694
15170TIP3    H267002   6.544   1.572   6.005  0.3718  2.0461  0.9315
15171TIP3   OH267003   1.602   4.172  16.439 -0.0517 -0.5062 -0.4710
15171TIP3    H167004   1.598   4.098  16.378  1.0414 -0.2929 -0.8288
15171TIP3    H267005   1.629   4.246  16.385  0.7028 -0.2612  0.2275
15172TIP3   OH267006   6.361   5.424   2.577 -0.4479  0.1036  0.8050
15172TIP3    H167007   6.273   5.399   2.547  0.2768 -1.5278 -0.0742
15172TIP3    H267008   6.415   5.346   2.560  0.8249  0.4700  2.8710
15173TIP3   OH267009   0.605   4.475  13.574  0.3642 -0.0046 -0.1893
15173TIP3    H167010   0.518   4.507  13.549 -0.0367 -1.4091 -0.6444
15173TIP3    H267011   0.594   4.382  13.589  2.1684 -0.6037 -2.0699
15174TIP3   OH267012   3.106   6.506  13.466 -0.1967  1.0094 -0.2641
15174TIP3    H167013   3.043   6.485  13.397 -0.8110  0.5613  0.4216
15174TIP3    H267014   3.167   6.433  13.466 -0.5844  0.6852  0.1106
15175TIP3   OH267015   0.136   3.086   5.706  0.2076  0.0730 -0.3813
15175TIP3    H167016   0.050   3.050   5.682  0.0549  0.0133  0.2127
15175TIP3    H267017   0.118   3.138   5.785 -0.2969  4.5098 -3.0654
15176TIP3   OH267018   4.593   4.123   1.018 -0.3508 -0.2124  0.1536
15176TIP3    H167019   4.619   4.214   1.010 -0.7288 -0.0652  0.5431
15176TIP3    H267020   4.512   4.126   1.069 -1.2753 -0.6185 -1.2205
15177TIP3   OH267021   6.150   4.992   3.681  0.1871  0.2513  0.7507
15177TIP3    H167022   6.235   4.966   3.646  0.9412  1.4204  1.6771
15177TIP3    H267023   6.147   4.952   3.768 -0.3613 -0.0724  0.5856
15178TIP3   OH267024   5.635   0.406  14.169 -0.3113 -0.1187  0.2234
15178TIP3    H167025   5.641   0.394  14.264 -2.2885  0.4664  0.4546
15178TIP3    H267026   5.636   0.501  14.157 -0.1936 -0.1867 -0.3459
15179TIP3   OH267027   6.192   5.149   0.774  0.1784 -0.0391 -0.0309
15179TIP3    H167028   6.112   5.099   0.756  1.0137 -0.7119 -2.1729
15179TIP3    H267029   6.262   5.084   0.769  1.1424  1.0560 -1.3644
15180TIP3   OH267030   3.853   2.361  16.713  0.1305  0.0396  0.2192
15180TIP3    H167031   3.759   2.373  16.701  0.2474  1.3144  0.4673
15180TIP3    H267032   3.887   2.349  16.624  0.0443  2.2234 -0.1700
15181TIP3   OH267033   4.791   4.638   6.325  0.2375 -0.0556  0.4613
15181TIP3    H167034   4.757   4.697   6.392 -0.5388 -0.9029  0.8251
15181TIP3    H267035   4.802   4.554   6.369  2.2439  0.0104  0.1878
15182TIP3   OH267036   3.999   5.137   3.356  0.3894 -0.5915  0.2921
15182TIP3    H167037   4.013   5.191   3.279  0.5369 -1.0787 -0.0314
15182TIP3    H267038   4.065   5.068   3.350  1.1645  0.0230  1.4770
15183TIP3   OH267039   3.920   0.552  15.695 -0.1170 -0.1139  0.0925
15183TIP3    H167040   3.981   0.536  15.622 -1.6546 -1.4086 -0.9637
15183TIP3    H267041   3.975   0.589  15.764  1.6419 -0.1132 -1.2356
15184TIP3   OH267042   6.593   1.719  15.129 -0.3244  0.0923  0.2805
15184TIP3    H167043   6.671   1.672  15.101 -0.3453  0.4013 -0.2988
15184TIP3    H267044   6.626   1.800  15.166 -0.2511 -0.5821  1.7669
15185TIP3   OH267045   5.967   0.634  11.793 -0.5103 -0.4306 -0.3479
15185TIP3    H167046   5.917   0.636  11.711 -1.8779 -1.2144  0.4377
15185TIP3    H267047   5.902   0.642  11.862  0.2393 -2.7450  0.7542
15186TIP3   OH267048   1.596   5.533   0.432 -0.1391  0.3770  0.3702
15186TIP3    H167049   1.617   5.513   0.341 -0.8855  1.3077 -0.0124
15186TIP3    H267050   1.501   5.522   0.438 -0.1566  0.7997  0.9052
15187TIP3   OH267051   6.179   3.442   0.529 -0.2772 -0.4398  0.1114
15187TIP3    H167052   6.265   3.413   0.560 -0.5523 -1.2084  0.1927
15187TIP3    H267053   6.182   3.537   0.534  1.0774 -0.3754 -1.2695
15188TIP3   OH267054   1.195   2.310  11.724  0.2668 -0.5343 -0.0088
15188TIP3    H167055   1.215   2.360  11.644 -1.1148  1.5908  0.8627
15188TIP3    H267056   1.277   2.267  11.746  0.8778 -0.6276 -2.1831
15189TIP3   OH267057   5.486   4.028   3.134  0.2834  0.2364 -0.5847
15189TIP3    H167058   5.577   4.001   3.146 -0.3534 -3.6479 -2.7359
15189TIP3    H267059   5.442   4.002   3.215  0.0765 -4.2672 -1.8711
15190TIP3   OH267060   3.268   5.247   1.200  0.4808  0.0502  0.5180
15190TIP3    H167061   3.301   5.183   1.264  0.8781 -0.2415  0.0288
15190TIP3    H267062   3.345   5.297   1.175  0.6238 -0.7992 -0.8258
15191TIP3   OH267063   6.404   2.922   5.125  0.0796 -0.2252 -0.0801
15191TIP3    H167064   6.481   2.925   5.068  0.6954 -2.1233  0.5550
15191TIP3    H267065   6.357   2.844   5.096 -0.8884  0.1544  0.4303
15192TIP3   OH267066   0.529   0.250  14.294  0.3752 -0.3182  0.2589
15192TIP3    H167067   0.599   0.186  14.305 -1.3312 -2.3034  0.1240
15192TIP3    H267068   0.477   0.216  14.221  0.7289  2.5064 -1.4388
15193TIP3   OH267069   0.529   2.643  12.973 -0.0614 -0.4474 -0.0536
15193TIP3    H167070   0.570   2.576  13.029 -1.0750 -0.9454  0.1246
15193TIP3    H267071   0.527   2.722  13.027  1.0686 -0.2924 -0.2312
15194TIP3   OH267072   2.054   5.098   2.501  0.2999  0.3191 -0.0739
15194TIP3    H167073   2.027   5.010   2.528  1.6263  0.1290  0.7303
15194TIP3    H267074   2.121   5.082   2.434 -0.9535  0.7671 -1.4915
15195TIP3   OH267075   3.112   2.433  13.976  0.1910  0.4025 -0.0904
15195TIP3    H167076   3.174   2.381  13.925 -0.0196 -0.0923  0.1434
15195TIP3    H267077   3.043   2.456  13.914 -1.1299 -1.9410  0.3784
15196TIP3   OH267078   1.355   1.095   2.304  0.0079  0.0103  0.1548
15196TIP3    H167079   1.309   1.045   2.237 -0.7488 -0.0635  0.7098
15196TIP3    H267080   1.352   1.186   2.273 -0.5453  0.0085  0.2033
15197TIP3   OH267081   3.854   0.185   6.583  0.1244 -0.2657 -0.0942
15197TIP3    H167082   3.902   0.114   6.626 -0.4430 -1.1811 -0.9364
15197TIP3    H267083   3.905   0.203   6.504  0.1532  0.1392  0.0141
15198TIP3   OH267084   5.764   2.376  16.633 -0.6754  0.2434 -0.5499
15198TIP3    H167085   5.780   2.382  16.727 -1.3565 -0.7087 -0.3667
15198TIP3    H267086   5.697   2.442  16.616 -1.2619 -0.2586 -0.1972
15199TIP3   OH267087   6.525   4.293   2.123 -0.7671  0.7052 -0.2566
15199TIP3    H167088   6.555   4.261   2.038 -1.4542  1.3474 -0.7571
15199TIP3    H267089   6.529   4.216   2.180  1.9831  0.8033 -0.2162
15200TIP3   OH267090   3.784   1.678   0.213  0.1842 -0.4813 -0.5037
15200TIP3    H167091   3.766   1.742   0.144 -2.3167 -0.0721  0.4123
15200TIP3    H267092   3.788   1.730   0.294  2.6551 -0.9970 -0.2000
15201TIP3   OH267093   1.600   1.969   0.762 -0.5143 -0.1805 -0.8804
15201TIP3    H167094   1.579   2.047   0.709  0.8570 -0.2320 -1.5420
15201TIP3    H267095   1.588   1.896   0.702 -1.2643 -0.4559 -0.4122
15202TIP3   OH267096   5.926   5.598  14.996  0.3508 -0.2827 -0.9507
15202TIP3    H167097   5.876   5.537  14.942  0.9026 -3.5015  1.7692
15202TIP3    H267098   5.881   5.598  15.080  3.4839 -1.5958  0.9179
15203TIP3   OH267099   4.000   3.371  12.765  0.7212 -0.0952 -0.5019
15203TIP3    H167100   3.926   3.398  12.711  1.3065  1.6434 -0.4911
15203TIP3    H267101   4.076   3.412  12.724  1.2805  0.6183  1.1765
15204TIP3   OH267102   6.679   2.525  16.187  0.6003  0.0207 -0.0872
15204TIP3    H167103   6.739   2.594  16.212  1.9972 -0.4745 -1.8162
15204TIP3    H267104   6.641   2.555  16.104 -0.0984 -0.5239  0.0228
15205TIP3   OH267105   2.120   6.480  10.518  0.1959 -0.1287  0.4253
15205TIP3    H167106   2.046   6.522  10.473  0.6438 -1.0524 -1.2607
15205TIP3    H267107   2.195   6.494  10.460  0.5007 -2.6201  0.0906
15206TIP3   OH267108   4.109   4.469  14.212 -0.0246  0.1445 -0.0196
15206TIP3    H167109   4.107   4.403  14.143  1.7413  0.5733 -0.5266
15206TIP3    H267110   4.069   4.426  14.287 -2.3259 -0.2137 -1.3516
15207TIP3   OH267111   0.456   4.653  17.294 -0.1027  0.0044  0.1802
15207TIP3    H167112   0.463   4.748  17.303 -0.1292  0.0430 -0.1934
15207TIP3    H267113   0.428   4.639  17.204 -0.0373 -0.3639  0.2141
15208TIP3   OH267114   5.913   4.143  12.301 -0.1042  0.4976 -0.2656
15208TIP3    H167115   5.921   4.054  12.266  0.2308 -0.0310  1.1172
15208TIP3    H267116   5.957   4.198  12.235  0.1515 -0.4119 -0.8747
15209TIP3   OH267117   5.262   5.390  15.741 -0.0278  0.6146 -0.2225
15209TIP3    H167118   5.298   5.478  15.731  0.4336  0.7317  1.9101
15209TIP3    H267119   5.329   5.342  15.789 -0.7561 -0.5764 -0.3541
15210TIP3   OH267120   4.934   2.318   4.827 -0.4654  0.1774 -0.7684
15210TIP3    H167121   5.014   2.323   4.775  0.4056 -0.7362  0.4508
15210TIP3    H267122   4.949   2.246   4.888 -2.9698 -1.2964 -1.7511
15211TIP3   OH267123   5.893   2.640  14.430  0.4850 -0.2056 -0.2086
15211TIP3    H167124   5.838   2.561  14.436 -0.9933  0.6849 -1.3393
15211TIP3    H267125   5.900   2.657  14.336 -0.5768  1.8745  0.0320
15212TIP3   OH267126   1.139   2.043   0.980 -0.2406 -0.9943  0.5083
15212TIP3    H167127   1.077   2.049   1.053 -1.2906 -1.5924 -0.2976
15212TIP3    H267128   1.219   2.085   1.012 -1.3243  0.5707  1.2905
15213TIP3   OH267129   1.093   6.522   0.682 -0.3208  0.0382 -0.7570
15213TIP3    H167130   1.006   6.559   0.698 -0.6304 -0.6327 -0.8194
15213TIP3    H267131   1.077   6.427   0.677  0.5365 -0.1631  0.0561
15214TIP3   OH267132   4.761   6.558  11.870 -0.5224  0.3412  0.3257
15214TIP3    H167133   4.683   6.546  11.924 -0.5127  3.4032  1.2483
15214TIP3    H267134   4.771   6.653  11.864  0.9379  0.1150 -3.0559
15215TIP3   OH267135   4.166   6.008  13.384 -0.1240 -0.7808 -0.4212
15215TIP3    H167136   4.219   6.053  13.449  0.1061 -3.4161  1.3394
15215TIP3    H267137   4.229   5.972  13.322 -0.0386 -1.5027  0.0744
15216TIP3   OH267138   1.898   4.890  16.787 -0.3813  0.1296  0.2793
15216TIP3    H167139   1.857   4.902  16.702 -1.3116 -0.5608  0.6071
15216TIP3    H267140   1.984   4.854  16.768  0.1380  1.6852 -0.4341
15217TIP3   OH267141   5.830   4.125  13.703  0.0270  0.0540 -0.2367
15217TIP3    H167142   5.817   4.065  13.776 -0.9780  0.1850 -0.3006
15217TIP3    H267143   5.923   4.146  13.706 -0.0357  0.2279  1.1332
15218TIP3   OH267144   1.360   1.849  15.859 -0.4584 -0.1974 -0.4946
15218TIP3    H167145   1.390   1.841  15.950 -2.7930 -0.3549  0.3374
15218TIP3    H267146   1.399   1.930  15.828  0.2624 -0.0547  0.6980
15219TIP3   OH267147   4.024   5.027   4.289 -0.4679  0.1608  0.1522
15219TIP3    H167148   4.011   5.006   4.196  1.4660 -1.1741  0.1138
15219TIP3    H267149   4.021   5.123   4.292  1.4161  0.3610 -1.7052
15220TIP3   OH267150   5.424   3.256  10.955 -0.6466  0.0350  0.2637
15220TIP3    H167151   5.366   3.229  11.026  0.7858 -0.4011  1.3343
15220TIP3    H267152   5.381   3.228  10.875 -1.7013 -0.6197  1.0467
15221TIP3   OH267153   3.960   2.810  16.413  0.2504 -0.2496  0.0652
15221TIP3    H167154   4.002   2.726  16.396 -1.2661 -0.9199 -0.5934
15221TIP3    H267155   3.986   2.865  16.339 -1.0300 -1.0791 -1.0542
15222TIP3   OH267156   6.047   4.664  13.067  0.1549  0.3879  0.0736
15222TIP3    H167157   6.048   4.749  13.024 -0.4846  0.0343 -0.6671
15222TIP3    H267158   6.020   4.603  12.998 -1.2379 -0.1451  1.0527
15223TIP3   OH267159   4.181   5.604  12.306  0.2273  0.2251  0.1913
15223TIP3    H167160   4.160   5.558  12.387 -1.3121 -0.2513 -0.4524
15223TIP3    H267161   4.229   5.682  12.335  1.5472 -0.9605  1.4090
15224TIP3   OH267162   4.388   4.168  15.762  0.5597 -0.2227 -0.2921
15224TIP3    H167163   4.440   4.100  15.719 -1.0112 -0.7098 -1.5354
15224TIP3    H267164   4.408   4.248  15.713  0.8313 -0.2040 -0.1556
15225TIP3   OH267165   1.223   4.821  13.777 -0.2371 -0.2274 -0.1913
15225TIP3    H167166   1.183   4.736  13.762 -0.1634 -0.3582  0.3461
15225TIP3    H267167   1.171   4.881  13.723  1.1075 -0.9112 -2.4003
15226TIP3   OH267168   0.711   6.789  12.264  0.1728  0.4040  0.5608
15226TIP3    H167169   0.760   6.739  12.199 -0.5966  0.6061 -0.1949
15226TIP3    H267170   0.689   6.726  12.333 -1.6537 -0.5937 -0.8460
15227TIP3   OH267171   0.165   5.323   4.706  0.0639 -0.4738 -0.3728
15227TIP3    H167172   0.206   5.378   4.772 -0.5756 -0.3838 -0.0367
15227TIP3    H267173   0.074   5.314   4.736  0.1135 -1.5681 -0.5104
15228TIP3   OH267174   5.021   6.012  14.930 -0.4554  0.1271  0.5933
15228TIP3    H167175   4.960   5.947  14.965  0.2628 -0.0085  1.6514
15228TIP3    H267176   4.971   6.094  14.927 -0.3140  0.3636  2.8741
15229TIP3   OH267177   0.185   3.077  12.150 -0.3995 -0.9304  0.1333
15229TIP3    H167178   0.201   3.008  12.086 -0.9988 -1.1718  0.2375
15229TIP3    H267179   0.265   3.082  12.201 -0.2337 -1.3253 -0.0834
15230TIP3   OH267180   2.797   4.543   2.075  0.1722 -0.2873  0.0628
15230TIP3    H167181   2.772   4.498   2.155  0.8415  0.2747  0.6070
15230TIP3    H267182   2.878   4.500   2.047  0.7520  0.4690  0.5230
15231TIP3   OH267183   1.067   2.755  17.245  0.0994  0.0593  0.2259
15231TIP3    H167184   1.125   2.687  17.277 -0.0777  0.8273  2.2903
15231TIP3    H267185   1.125   2.817  17.200  0.7675  0.2735  1.3397
15232TIP3   OH267186   4.638   4.672   0.332 -0.0340  0.0976  0.0467
15232TIP3    H167187   4.652   4.721   0.251  2.0025  0.4931  0.5760
15232TIP3    H267188   4.667   4.732   0.401 -1.4931 -0.3325  1.0676
15233TIP3   OH267189   6.705   0.923  14.526 -0.0208  0.0898 -0.5450
15233TIP3    H167190   6.769   0.852  14.532  0.1800  0.2807 -0.3840
15233TIP3    H267191   6.641   0.893  14.462 -0.9083 -0.9918  0.8008
15234TIP3   OH267192   2.208   6.661   2.454 -0.2346 -0.2195 -0.2348
15234TIP3    H167193   2.142   6.712   2.502  1.6040  1.6222  0.5174
15234TIP3    H267194   2.248   6.606   2.521  2.6818  2.7186  0.6710
15235TIP3   OH267195   6.174   1.612   1.854 -0.1877 -0.0101 -0.1266
15235TIP3    H167196   6.091   1.640   1.893 -0.1726  0.7359 -0.6096
15235TIP3    H267197   6.172   1.648   1.765 -0.4398 -2.0592 -1.0016
15236TIP3   OH267198   0.807   2.785  11.475 -0.6903  0.3795  0.5981
15236TIP3    H167199   0.848   2.784  11.388 -0.7816 -0.9921  0.5507
15236TIP3    H267200   0.775   2.875  11.485  0.4231  0.8961 -0.2579
15237TIP3   OH267201   0.051   6.266   2.057  0.0319 -0.1877  0.1176
15237TIP3    H167202   0.036   6.356   2.085  2.2023 -0.1356  1.3128
15237TIP3    H267203   0.128   6.272   1.999 -0.9423 -1.0573 -1.3340
15238TIP3   OH267204   5.926   5.833  13.882 -0.2633  0.4161  0.1179
15238TIP3    H167205   6.019   5.838  13.903 -0.7268  1.7045  2.1784
15238TIP3    H267206   5.892   5.920  13.906 -1.7125  0.5747 -2.2079
15239TIP3   OH267207   5.485   1.571   5.236 -0.0584 -0.6731  0.0199
15239TIP3    H167208   5.479   1.544   5.328 -0.1432 -1.0971 -0.1115
15239TIP3    H267209   5.401   1.545   5.198 -0.9826  1.5720  0.3638
15240TIP3   OH267210   6.243   0.248   3.352 -0.1681 -0.5260 -0.1944
15240TIP3    H167211   6.256   0.343   3.353 -0.1948 -0.4491 -2.3428
15240TIP3    H267212   6.153   0.236   3.323 -0.1555 -1.2127  0.0267
15241TIP3   OH267213   5.952   5.080   1.340  0.0029  0.5709 -0.1353
15241TIP3    H167214   5.961   5.049   1.250  1.7017 -0.8374  0.4653
15241TIP3    H267215   5.914   5.006   1.388  0.9047  0.5956  0.6577
15242TIP3   OH267216   3.270   6.449  13.199 -0.2045 -0.3531 -0.2617
15242TIP3    H167217   3.322   6.410  13.270 -1.9602 -0.4549  1.0161
15242TIP3    H267218   3.231   6.374  13.154 -1.7078 -0.1914  0.7346
15243TIP3   OH267219   3.424   0.054   3.930 -0.4454 -0.2124  0.3132
15243TIP3    H167220   3.449   0.103   4.009  0.6041  0.6091 -0.5050
15243TIP3    H267221   3.352   0.104   3.892 -0.1774  0.0257  0.1225
15244TIP3   OH267222   5.057   1.780  12.086 -0.4264  0.4028  0.6210
15244TIP3    H167223   5.051   1.828  12.003  1.3078 -1.0895 -0.4533
15244TIP3    H267224   5.013   1.696  12.069  0.7698 -0.3038  0.8487
15245TIP3   OH267225   5.557   4.900   0.736 -0.1032 -0.5517 -0.2176
15245TIP3    H167226   5.469   4.929   0.712 -0.4427 -1.1462  0.2705
15245TIP3    H267227   5.612   4.929   0.664 -0.8340 -0.9115 -0.9399
15246TIP3   OH267228   2.301   6.281   2.245  0.1801 -0.3032  0.0993
15246TIP3    H167229   2.336   6.193   2.234  1.3707  0.3648 -1.9902
15246TIP3    H267230   2.377   6.334   2.267 -0.4070  0.3370  0.6361
15247TIP3   OH267231   0.433   3.231   5.761  0.1823 -0.0017  1.0049
15247TIP3    H167232   0.407   3.213   5.671  0.9765  1.4741  0.4596
15247TIP3    H267233   0.525   3.207   5.766  0.0529 -0.4288  1.5445
15248TIP3   OH267234   1.917   1.488  14.060  0.3659  0.1267 -0.1083
15248TIP3    H167235   1.868   1.407  14.046  1.1954 -0.5979  1.0263
15248TIP3    H267236   1.964   1.474  14.143  0.8173  1.6217 -0.0809
15249TIP3   OH267237   0.617   0.996   2.029 -0.2343 -0.0674  0.5906
15249TIP3    H167238   0.691   0.955   1.985  0.1611  0.1716  1.0313
15249TIP3    H267239   0.542   0.941   2.006 -0.0492  0.0955 -0.4358
15250TIP3   OH267240   3.061   6.367   2.892  0.1867  0.2194  0.4166
15250TIP3    H167241   3.097   6.360   2.803 -0.8057  1.6437 -0.1384
15250TIP3    H267242   3.138   6.365   2.949  0.8890 -0.1485 -0.5179
15251TIP3   OH267243   1.820   5.903   0.535  0.4613  0.4695 -0.5112
15251TIP3    H167244   1.738   5.947   0.553 -2.7753 -4.4645 -1.1563
15251TIP3    H267245   1.813   5.875   0.443  1.3998 -2.4153  0.1677
15252TIP3   OH267246   0.748   0.513   4.839 -0.4076  0.5988  0.1611
15252TIP3    H167247   0.780   0.486   4.753 -1.0312  0.9147 -0.1759
15252TIP3    H267248   0.656   0.485   4.841 -0.2749  0.1735  0.9106
15253TIP3   OH267249   3.921   2.020   4.816  0.2311 -0.5877  0.0682
15253TIP3    H167250   3.994   1.965   4.845  0.0717 -1.3837 -1.0120
15253TIP3    H267251   3.963   2.099   4.782  0.4939 -0.3030  1.0221
15254TIP3   OH267252   4.733   0.916  17.176  0.0518  0.6547  0.3598
15254TIP3    H167253   4.715   0.945  17.266  0.2800  0.2016  0.5537
15254TIP3    H267254   4.701   0.826  17.173  0.4059  0.5363  0.1019
15255TIP3   OH267255   3.759   1.106  15.809  0.3987  0.0834 -0.2270
15255TIP3    H167256   3.730   1.191  15.774 -0.8761  0.2993  1.2269
15255TIP3    H267257   3.690   1.045  15.783  0.1781 -0.0428  0.6300
15256TIP3   OH267258   3.950   0.211  16.562  0.0840  0.7432 -0.1124
15256TIP3    H167259   3.969   0.184  16.473 -0.8854 -0.8337  0.1312
15256TIP3    H267260   4.030   0.256  16.591  0.6861  0.6035 -1.4883
15257TIP3   OH267261   4.762   1.794  11.086  0.4574 -0.0793  0.1732
15257TIP3    H167262   4.746   1.709  11.046  0.5265 -0.1552  0.3068
15257TIP3    H267263   4.847   1.822  11.051  0.5122 -0.1403  0.2579
15258TIP3   OH267264   0.294   3.392  16.187  1.1379 -0.3754  0.2108
15258TIP3    H167265   0.238   3.466  16.164 -0.2901 -1.8675 -1.3990
15258TIP3    H267266   0.339   3.370  16.105 -0.8854 -3.2011 -0.2820
15259TIP3   OH267267   4.940   1.348   0.681 -0.7836 -0.7162 -0.3145
15259TIP3    H167268   4.890   1.347   0.599  0.2741 -1.7762 -0.9833
15259TIP3    H267269   5.031   1.358   0.653 -0.4510 -0.6105  0.7703
15260TIP3   OH267270   0.636   2.695   1.113 -0.1273 -0.1243  0.6626
15260TIP3    H167271   0.670   2.623   1.059  0.8641  1.2109 -0.5632
15260TIP3    H267272   0.705   2.761   1.111 -0.7990  0.6763  2.1899
15261TIP3   OH267273   1.754   3.386  14.699  0.2003 -0.7169  0.4730
15261TIP3    H167274   1.823   3.320  14.702  1.3503  0.4155 -0.4044
15261TIP3    H267275   1.737   3.399  14.606 -0.4843 -0.2366  0.6566
15262TIP3   OH267276   0.318   1.379  13.055 -0.2911 -0.6505 -0.0320
15262TIP3    H167277   0.252   1.405  13.120  0.0741 -3.2688  1.5327
15262TIP3    H267278   0.375   1.455  13.047 -1.2861  0.3211  1.5055
15263TIP3   OH267279   3.482   2.470   0.275 -0.0175  0.5736  0.4697
15263TIP3    H167280   3.553   2.418   0.237 -1.0372 -0.1636 -0.4993
15263TIP3    H267281   3.521   2.513   0.351  0.7788 -1.8907  1.5515
15264TIP3   OH267282   6.268   6.658  16.665  0.5162  0.2704  0.1547
15264TIP3    H167283   6.296   6.620  16.748 -0.9830 -0.7649  0.2221
15264TIP3    H267284   6.231   6.585  16.616 -1.2347  1.3821 -0.2698
15265TIP3   OH267285   0.421   1.124  13.656  1.1219  0.0764 -0.8965
15265TIP3    H167286   0.332   1.107  13.688  0.7050  1.2428 -1.4047
15265TIP3    H267287   0.442   1.046  13.603  0.5072 -0.3208 -0.5754
15266TIP3   OH267288   3.184   4.799   1.819  0.0418  0.3105  0.4568
15266TIP3    H167289   3.185   4.783   1.913 -0.1751  0.1387  0.4317
15266TIP3    H267290   3.236   4.878   1.807  1.0091 -0.2915  0.6035
15267TIP3   OH267291   5.189   3.122  12.748  0.2636  0.2568 -0.1215
15267TIP3    H167292   5.135   3.157  12.676  0.8677  0.7567 -0.3452
15267TIP3    H267293   5.240   3.052  12.708 -0.2095 -0.2070  0.0871
15268TIP3   OH267294   3.842   5.071  13.996 -0.0023 -0.3116  0.8219
15268TIP3    H167295   3.796   5.026  14.067 -0.1787  0.5911  1.2896
15268TIP3    H267296   3.866   5.156  14.033 -2.1523  1.1404 -0.9261
15269TIP3   OH267297   1.758   5.320  13.472  0.5039  0.1531  0.2442
15269TIP3    H167298   1.754   5.228  13.497 -1.9194  0.3841  1.0463
15269TIP3    H267299   1.833   5.327  13.414  0.4580 -2.4235 -0.2146
15270TIP3   OH267300   2.925   0.950   0.555  0.0630 -0.7790  0.6485
15270TIP3    H167301   2.842   0.965   0.600  0.8627  3.0324  1.1863
15270TIP3    H267302   2.980   0.907   0.620 -0.7413 -1.1685  1.0899
15271TIP3   OH267303   3.790   1.152  14.911  0.1352 -0.7113 -0.1753
15271TIP3    H167304   3.774   1.203  14.832  2.1433  2.3214  1.1709
15271TIP3    H267305   3.877   1.113  14.897  1.8439  2.1880  1.4605
15272TIP3   OH267306   5.305   1.589  15.315 -0.0966 -0.4509 -0.7932
15272TIP3    H167307   5.391   1.610  15.278  0.9400  0.3691  1.8845
15272TIP3    H267308   5.308   1.622  15.405 -3.6311  0.6526 -0.9085
15273TIP3   OH267309   2.441   4.441   0.895 -0.5729  0.4631  0.2266
15273TIP3    H167310   2.486   4.474   0.817  0.4795 -1.4967 -0.0560
15273TIP3    H267311   2.458   4.507   0.962  1.4123  0.5774 -0.3231
15274TIP3   OH267312   2.792   3.896   2.698  0.2553  0.1545  0.2485
15274TIP3    H167313   2.797   3.946   2.616  1.9360  0.3310  0.4341
15274TIP3    H267314   2.806   3.805   2.671 -0.9467 -0.0143  0.1434
15275TIP3   OH267315   2.578   2.982  16.984 -0.2679 -0.1273 -0.3817
15275TIP3    H167316   2.495   2.966  16.939 -0.5744 -0.2065  0.1954
15275TIP3    H267317   2.561   3.060  17.038 -0.0666 -0.3342 -0.0150
15276TIP3   OH267318   3.294   5.044  14.915  0.2351  0.6458  0.2140
15276TIP3    H167319   3.221   5.102  14.892 -0.0948  0.6868  1.3140
15276TIP3    H267320   3.292   4.976  14.848 -1.5343  0.0269  0.8192
15277TIP3   OH267321   3.072   2.495  15.163  0.2043  0.1956 -0.1304
15277TIP3    H167322   3.006   2.561  15.185  0.0637  0.1511 -0.4163
15277TIP3    H267323   3.063   2.482  15.069  0.9776  0.5726 -0.2662
15278TIP3   OH267324   4.953   0.939   4.436  0.6822  0.4867  0.3753
15278TIP3    H167325   4.930   0.891   4.357 -0.6840  0.0782  0.9920
15278TIP3    H267326   5.043   0.911   4.455  0.5727 -0.3920 -0.3148
15279TIP3   OH267327   4.276   0.149   0.351 -0.3614 -0.3231  0.1782
15279TIP3    H167328   4.365   0.127   0.375 -0.1436  1.1803  0.8958
15279TIP3    H267329   4.285   0.203   0.272 -0.6900 -0.6805 -0.1101
15280TIP3   OH267330   2.601   1.518  11.573  0.3714 -0.3744  0.3704
15280TIP3    H167331   2.596   1.464  11.494 -1.6460  0.0021  0.1930
15280TIP3    H267332   2.529   1.581  11.564  0.1453 -0.2630  2.4531
15281TIP3   OH267333   5.150   5.583   1.352  0.1118 -0.6597  0.2354
15281TIP3    H167334   5.059   5.605   1.337  0.6464  1.5268 -0.1034
15281TIP3    H267335   5.181   5.649   1.413  1.6271 -0.9874 -0.1357
15282TIP3   OH267336   2.351   6.806  12.932 -0.3048  0.6788  0.2583
15282TIP3    H167337   2.405   6.818  13.010 -1.4967  1.1325  1.0392
15282TIP3    H267338   2.304   6.889  12.921 -0.4872  0.4720 -0.6893
15283TIP3   OH267339   6.066   0.315   2.385 -0.5082  0.2412 -0.4238
15283TIP3    H167340   6.126   0.359   2.325  1.1088 -0.0727  0.8624
15283TIP3    H267341   6.027   0.385   2.436 -0.4192  0.3923 -0.5647
15284TIP3   OH267342   5.075   6.025  12.514  0.4839  0.1407 -0.0378
15284TIP3    H167343   4.995   6.039  12.565 -0.4372  1.4205 -1.7241
15284TIP3    H267344   5.085   5.930  12.511  1.4471 -0.0468  3.7058
15285TIP3   OH267345   1.626   4.843  12.999  0.4015  0.4016  0.3849
15285TIP3    H167346   1.560   4.822  13.065  0.7381  0.0831  0.6194
15285TIP3    H267347   1.613   4.937  12.982  1.0873  0.7765  1.7647
15286TIP3   OH267348   0.601   6.224  17.020 -0.0414 -0.7835  0.2712
15286TIP3    H167349   0.595   6.266  17.106 -1.5271 -0.4399  0.0332
15286TIP3    H267350   0.688   6.183  17.018  0.4528  0.1631  1.4851
15287TIP3   OH267351   0.242   3.857  11.675  0.3316 -0.5341 -0.5597
15287TIP3    H167352   0.240   3.944  11.714  0.4576 -0.4926 -0.6436
15287TIP3    H267353   0.328   3.852  11.632  0.0820 -0.4712 -1.0779
15288TIP3   OH267354   6.761   1.203  13.424  0.0742  0.1698  0.2321
15288TIP3    H167355   6.698   1.163  13.364  0.7007 -1.2969  0.4973
15288TIP3    H267356   6.837   1.145  13.421  1.1458  1.5217  0.4502
15289TIP3   OH267357   3.879   2.452  13.980  0.0394  0.1870  0.0221
15289TIP3    H167358   3.858   2.392  14.052 -1.8015  1.2538  0.4308
15289TIP3    H267359   3.844   2.409  13.902  0.3495 -0.0889  0.0300
15290TIP3   OH267360   0.993   2.617   0.492 -0.0256 -0.9029  0.0114
15290TIP3    H167361   0.981   2.710   0.512  1.4839 -0.4627 -0.9871
15290TIP3    H267362   0.960   2.608   0.402  1.2558 -0.9805 -0.4685
15291TIP3   OH267363   2.232   3.956  13.867  0.3466  0.2040 -0.0700
15291TIP3    H167364   2.185   3.895  13.923  1.0731 -1.7031 -1.4258
15291TIP3    H267365   2.202   3.935  13.778  4.6104 -2.2407 -1.2466
15292TIP3   OH267366   1.124   3.884  16.052 -0.5268  0.5203 -0.1203
15292TIP3    H167367   1.042   3.911  16.010 -1.9846 -0.6341  1.8391
15292TIP3    H267368   1.136   3.946  16.124 -0.4579 -0.1535  0.4630
15293TIP3   OH267369   3.373   3.216  14.939 -0.3072  0.1605 -0.7569
15293TIP3    H167370   3.313   3.172  15.000  1.5361  0.4468  1.3730
15293TIP3    H267371   3.385   3.303  14.975 -0.0047  0.7342 -2.1737
15294TIP3   OH267372   0.425   1.694   4.776  0.0503  0.0904 -0.2843
15294TIP3    H167373   0.427   1.599   4.778  1.6542  0.0992 -0.7439
15294TIP3    H267374   0.449   1.717   4.686 -0.5874  0.9385 -0.2557
15295TIP3   OH267375   6.023   1.151   3.213  0.3929  0.8765 -0.2286
15295TIP3    H167376   5.976   1.086   3.265  2.2991 -0.8625 -0.5362
15295TIP3    H267377   6.090   1.185   3.272  0.4420  1.3596 -0.5622
15296TIP3   OH267378   5.647   5.607  10.510 -0.1142 -0.0457 -0.3615
15296TIP3    H167379   5.662   5.562  10.426 -1.6689 -0.1267 -0.6204
15296TIP3    H267380   5.612   5.692  10.485 -1.0771 -0.2631  0.2028
15297TIP3   OH267381   0.384   5.604   2.162  0.7271 -0.1130 -0.4810
15297TIP3    H167382   0.341   5.690   2.165 -1.5119 -1.0517 -2.4652
15297TIP3    H267383   0.361   5.569   2.077  2.4372 -2.3113 -0.1217
15298TIP3   OH267384   5.622   5.929   0.339 -0.1305  0.0627 -0.3968
15298TIP3    H167385   5.592   6.020   0.345 -0.3998  0.0384 -1.2036
15298TIP3    H267386   5.558   5.887   0.281  2.0719  0.3271 -3.2630
15299TIP3   OH267387   5.897   6.391  10.670  0.0550 -0.3817 -0.2010
15299TIP3    H167388   5.809   6.356  10.653  0.1301  0.2183 -2.1007
15299TIP3    H267389   5.936   6.402  10.583  1.6532  0.2915  0.5505
15300TIP3   OH267390   1.271   1.129   3.306  0.1068  0.5544  0.8555
15300TIP3    H167391   1.323   1.100   3.381  0.7924 -1.4547 -0.3273
15300TIP3    H267392   1.206   1.188   3.344  0.2762 -0.5594  3.0611
15301TIP3   OH267393   0.017   3.071   5.996  0.2925  0.2259 -0.0210
15301TIP3    H167394   0.104   3.030   6.002  0.0918 -0.0986  0.7402
15301TIP3    H267395   0.031   3.161   6.026  0.3582  0.1618  0.1411
15302TIP3   OH267396   1.174   4.438  13.423 -0.6279 -0.1791  0.0979
15302TIP3    H167397   1.255   4.398  13.390 -1.6626 -1.9067 -0.5108
15302TIP3    H267398   1.117   4.444  13.346 -1.8094 -0.9333  0.8779
15303TIP3   OH267399   2.514   0.882   0.398 -0.3612 -0.1152 -0.2677
15303TIP3    H167400   2.457   0.956   0.417 -0.7746 -0.5914  0.3930
15303TIP3    H267401   2.600   0.921   0.384 -0.1519  0.3463  1.9782
15304TIP3   OH267402   3.896   5.742  16.797  0.8858 -0.1119  0.6327
15304TIP3    H167403   3.950   5.728  16.719 -1.8116  1.5097 -1.7673
15304TIP3    H267404   3.909   5.664  16.850  2.4973 -1.5581 -1.7038
15305TIP3   OH267405   5.125   5.327   4.210 -0.4309 -0.5344 -0.5280
15305TIP3    H167406   5.106   5.355   4.299 -0.0742 -1.2211 -0.2227
15305TIP3    H267407   5.135   5.232   4.217  0.5541 -0.4936 -1.1168
15306TIP3   OH267408   1.616   1.235   5.952  0.5898  0.3580 -0.0465
15306TIP3    H167409   1.688   1.177   5.931 -0.4169 -1.0977  0.3831
15306TIP3    H267410   1.545   1.177   5.980 -0.6658  1.7463 -0.2018
15307TIP3   OH267411   1.198   1.737   5.132  0.3763 -0.2793  0.1790
15307TIP3    H167412   1.131   1.771   5.073  0.9821 -0.7366 -0.8001
15307TIP3    H267413   1.208   1.645   5.107  1.3841 -0.2106  0.2800
15308TIP3   OH267414   0.973   1.653   0.787  0.2289  0.1989 -0.2080
15308TIP3    H167415   0.923   1.636   0.707  0.4090  0.3269 -0.3507
15308TIP3    H267416   0.975   1.749   0.793  1.1587  0.2228 -0.6582
15309TIP3   OH267417   1.356   6.713   3.148 -0.4634 -0.1786  0.0313
15309TIP3    H167418   1.345   6.653   3.222 -1.5013 -0.2592 -0.1740
15309TIP3    H267419   1.267   6.735   3.122 -0.1268  1.8658  0.4139
15310TIP3   OH267420   1.510   2.838   3.601  0.0666  0.1096 -0.5181
15310TIP3    H167421   1.562   2.759   3.617  0.2336  0.4958  1.0492
15310TIP3    H267422   1.480   2.865   3.688  0.6861  2.2270 -0.9050
15311TIP3   OH267423   3.428   6.304   0.313 -0.2343 -0.0163  0.2169
15311TIP3    H167424   3.389   6.217   0.316 -0.3163 -0.0240 -0.8132
15311TIP3    H267425   3.477   6.306   0.231 -1.6778  1.4930 -0.6683
15312TIP3   OH267426   3.658   1.408   3.135 -0.0645 -0.4235 -0.3213
15312TIP3    H167427   3.594   1.350   3.177  0.3856 -0.4881  0.3055
15312TIP3    H267428   3.670   1.371   3.048  0.9924 -1.9411  0.4151
15313TIP3   OH267429   0.552   0.661   0.682 -0.1049  0.0895  0.4734
15313TIP3    H167430   0.457   0.650   0.681 -0.1998  0.8566  0.3849
15313TIP3    H267431   0.576   0.673   0.590  0.1037 -0.2820  0.4771
15314TIP3   OH267432   3.686   4.309   5.856  0.1019  0.1575  0.0540
15314TIP3    H167433   3.692   4.393   5.811 -1.9948  0.5817  0.4193
15314TIP3    H267434   3.683   4.332   5.949  0.2394 -0.3757  0.1943
15315TIP3   OH267435   3.534   2.698  13.157 -0.3520 -0.1581 -0.3543
15315TIP3    H167436   3.470   2.765  13.180  0.7424  1.2694 -1.2418
15315TIP3    H267437   3.610   2.717  13.212 -0.2721 -1.1051 -0.1232
15316TIP3   OH267438   6.205   4.990   1.787  0.1530  0.1552  0.4389
15316TIP3    H167439   6.122   4.947   1.810  0.1083  0.4226  0.7846
15316TIP3    H267440   6.197   5.009   1.694  0.1066 -0.4395  0.3179
15317TIP3   OH267441   2.624   2.990   5.575  0.1776 -0.0515  0.2338
15317TIP3    H167442   2.690   2.948   5.630 -0.3738  0.3155  1.2055
15317TIP3    H267443   2.617   3.079   5.611  0.2088  0.3758 -0.7975
15318TIP3   OH267444   0.742   0.948   4.504 -0.0873  0.0685  0.2559
15318TIP3    H167445   0.787   1.010   4.562  2.1064 -1.4675  0.3128
15318TIP3    H267446   0.710   0.879   4.562 -1.8199  0.6685  0.0925
15319TIP3   OH267447   1.359   2.460   0.178  0.1988 -0.6138  0.2262
15319TIP3    H167448   1.398   2.373   0.171  1.5785  0.1343 -2.9514
15319TIP3    H267449   1.412   2.503   0.246  2.0407 -1.0816 -0.8298
15320TIP3   OH267450   2.654   4.964   4.853  0.1068 -0.3055  0.1122
15320TIP3    H167451   2.689   5.024   4.787 -0.1624  0.3427  0.5395
15320TIP3    H267452   2.685   5.001   4.937  0.3125 -1.0235  0.3582
15321TIP3   OH267453   0.428   2.810   1.262 -0.1795 -0.2524  0.6154
15321TIP3    H167454   0.486   2.866   1.313 -0.6518  2.4611 -1.5664
15321TIP3    H267455   0.486   2.747   1.219  1.1074  1.6932 -0.6550
15322TIP3   OH267456   0.442   6.602  13.631 -0.7264  0.1494  0.5712
15322TIP3    H167457   0.514   6.599  13.568 -0.2475  2.9041  0.8915
15322TIP3    H267458   0.484   6.591  13.716 -0.8917  0.1947  0.6590
15323TIP3   OH267459   2.922   0.508  11.092  0.1426 -0.1558 -0.0034
15323TIP3    H167460   2.888   0.423  11.064 -0.9847  0.2594  0.0321
15323TIP3    H267461   2.894   0.569  11.023  1.4224  0.1112 -0.3159
15324TIP3   OH267462   3.871   5.427   1.744  0.0448  0.5541 -0.3190
15324TIP3    H167463   3.824   5.508   1.761 -1.7296 -0.5224  0.1004
15324TIP3    H267464   3.861   5.413   1.649 -0.1478  0.5177 -0.2929
15325TIP3   OH267465   1.939   1.303   5.764  0.1715 -0.5218  0.3389
15325TIP3    H167466   1.908   1.229   5.817  3.2146 -1.0161  1.6801
15325TIP3    H267467   1.942   1.377   5.825 -0.8295  0.1772 -0.4396
15326TIP3   OH267468   6.791   4.641   4.317 -0.0290  0.1697 -0.9284
15326TIP3    H167469   6.824   4.719   4.360  0.4160 -0.8788  0.7081
15326TIP3    H267470   6.803   4.571   4.381  0.9826 -1.5400 -2.8697
15327TIP3   OH267471   2.183   3.675  17.168  0.4513  0.3649  0.5488
15327TIP3    H167472   2.215   3.603  17.221  1.5117  0.9118  0.6852
15327TIP3    H267473   2.093   3.689  17.197  0.5178 -0.3521  1.1059
15328TIP3   OH267474   4.641   2.958   1.914  0.3598  0.5185 -0.0672
15328TIP3    H167475   4.692   2.923   1.987  0.4496  2.5442  0.8999
15328TIP3    H267476   4.553   2.924   1.927  0.3535  0.9481  1.0358
15329TIP3   OH267477   6.155   1.534  10.321 -0.6047  0.5248  0.2279
15329TIP3    H167478   6.192   1.591  10.253  0.9007  1.5469  1.8248
15329TIP3    H267479   6.210   1.550  10.398 -1.6884 -1.2812  1.4381
15330TIP3   OH267480   3.176   1.469  16.542 -0.4563 -0.3529 -0.2503
15330TIP3    H167481   3.107   1.420  16.496 -2.0372 -0.2467  1.8294
15330TIP3    H267482   3.143   1.477  16.632  0.9384  2.2687  0.1274
15331TIP3   OH267483   2.217   2.049  10.772 -0.1980 -0.1435 -0.2392
15331TIP3    H167484   2.301   2.063  10.728 -1.4187  0.6765 -2.4684
15331TIP3    H267485   2.186   2.137  10.793 -1.7227 -0.1995 -2.0061
15332TIP3   OH267486   5.779   4.456   0.361  0.4049 -0.1052  0.0659
15332TIP3    H167487   5.691   4.418   0.369 -0.6971  1.9528 -1.3014
15332TIP3    H267488   5.790   4.509   0.440  1.1245 -1.5802  1.0031
15333TIP3   OH267489   5.224   1.027   0.790 -0.6867  0.0862 -0.5668
15333TIP3    H167490   5.318   1.018   0.773 -0.2519  0.8098  1.2236
15333TIP3    H267491   5.204   1.117   0.763 -0.7793  0.0584 -0.5896
15334TIP3   OH267492   4.868   3.227  15.621 -0.3746  0.0674  0.2594
15334TIP3    H167493   4.909   3.210  15.537  0.0045  0.7931  0.2889
15334TIP3    H267494   4.903   3.160  15.679  1.2017  0.9808  0.4168
15335TIP3   OH267495   4.970   5.702   6.435  0.3732 -0.4582 -0.0672
15335TIP3    H167496   4.966   5.797   6.449 -0.3032 -0.4983  0.0553
15335TIP3    H267497   5.055   5.677   6.470 -0.3000 -0.1980  1.8703
15336TIP3   OH267498   6.046   1.521  16.829  0.1910  0.2619  0.0223
15336TIP3    H167499   6.130   1.476  16.833  0.3847  0.6270  0.0472
15336TIP3    H267500   5.994   1.468  16.768  0.3087 -0.1717  0.2914
15337TIP3   OH267501   0.935   3.838   5.728 -0.1349  0.3370 -0.5145
15337TIP3    H167502   0.878   3.905   5.765  0.3813  0.4283  0.1359
15337TIP3    H267503   0.883   3.797   5.659 -0.3393  1.5997 -1.1203
15338TIP3   OH267504   2.743   5.126   3.229  0.5104 -0.7350 -0.7450
15338TIP3    H167505   2.790   5.149   3.148  2.5591 -1.7688  0.0593
15338TIP3    H267506   2.773   5.192   3.293  0.3919 -1.0386 -0.3733
15339TIP3   OH267507   0.425   5.836   2.694  0.0847 -0.4827  0.2319
15339TIP3    H167508   0.368   5.764   2.721  0.1660 -0.8757 -0.6012
15339TIP3    H267509   0.432   5.826   2.599  1.3184 -0.2792  0.2845
15340TIP3   OH267510   3.933   3.797  16.332  0.1484 -0.3189  0.6451
15340TIP3    H167511   3.842   3.820  16.353  0.2554  0.0306  0.7277
15340TIP3    H267512   3.926   3.712  16.289 -0.3381  0.2039 -0.3606
15341TIP3   OH267513   4.794   1.357  14.281 -0.0050 -0.3219 -0.5269
15341TIP3    H167514   4.839   1.442  14.275  0.7682 -0.7225 -0.5841
15341TIP3    H267515   4.864   1.295  14.303 -0.5647 -0.9441 -0.4732
15342TIP3   OH267516   6.766   5.384  16.925 -0.1278 -0.1630  0.0469
15342TIP3    H167517   6.829   5.360  16.857 -0.0017  0.4666 -0.0632
15342TIP3    H267518   6.741   5.473  16.904 -1.5730 -0.6187 -0.2970
15343TIP3   OH267519   0.168   3.938  13.529 -0.0096  0.4859  0.1802
15343TIP3    H167520   0.191   3.847  13.507 -0.8763  0.1136  0.7380
15343TIP3    H267521   0.074   3.943  13.512 -0.0296  1.1754  0.4907
15344TIP3   OH267522   1.792   5.422   1.194  0.3114 -0.1513 -0.3599
15344TIP3    H167523   1.864   5.474   1.231 -0.1109  0.8294 -0.8788
15344TIP3    H267524   1.835   5.357   1.139  0.8535 -0.3691  0.3151
15345TIP3   OH267525   2.706   4.447   2.311  0.3622  0.1079  0.0668
15345TIP3    H167526   2.629   4.503   2.310 -0.1360 -0.4558  2.0430
15345TIP3    H267527   2.686   4.380   2.376  0.9186 -2.4462 -2.2165
15346TIP3   OH267528   6.475   1.401   2.804  0.4125  0.6239 -0.0691
15346TIP3    H167529   6.386   1.425   2.829  0.2074  0.2034 -0.3914
15346TIP3    H267530   6.465   1.345   2.727  0.8072 -1.5698  1.3909
15347TIP3   OH267531   1.988   4.261  12.287 -0.0726  0.4246 -0.2201
15347TIP3    H167532   2.066   4.290  12.334  1.2337 -0.6375 -1.6324
15347TIP3    H267533   1.933   4.220  12.354  0.4064  1.4825  0.8545
15348TIP3   OH267534   3.551   0.882  13.490 -0.1687 -0.1916 -0.1734
15348TIP3    H167535   3.603   0.807  13.462 -1.1701 -0.7092 -0.6837
15348TIP3    H267536   3.542   0.871  13.585  3.0135  1.4310  0.4451
15349TIP3   OH267537   4.359   2.981   1.587  0.5426 -0.6316  0.1929
15349TIP3    H167538   4.400   3.065   1.607  0.6848 -0.7413  0.3776
15349TIP3    H267539   4.426   2.916   1.610  0.0082 -0.8527  1.2227
15350TIP3   OH267540   0.165   2.897  12.537  0.4615  0.3039  0.2955
15350TIP3    H167541   0.189   2.804  12.539 -0.1379  0.0965 -0.8194
15350TIP3    H267542   0.087   2.900  12.481 -0.6746  1.2479  1.8352
15351TIP3   OH267543   3.163   6.598  17.117 -0.1491  0.6417  0.4046
15351TIP3    H167544   3.243   6.621  17.070 -0.3873  1.4452  0.3715
15351TIP3    H267545   3.158   6.503  17.112  1.1097  0.5256  0.8910
15352TIP3   OH267546   3.376   1.168   3.741 -0.7808 -0.0425 -1.0764
15352TIP3    H167547   3.464   1.142   3.770 -0.7800  1.1007  0.0403
15352TIP3    H267548   3.390   1.213   3.658 -0.4550 -0.8871 -1.4910
15353TIP3   OH267549   4.345   0.643  16.426 -0.4136 -0.1997  0.1291
15353TIP3    H167550   4.382   0.709  16.484  0.2012  0.3806 -0.8930
15353TIP3    H267551   4.255   0.671  16.412 -0.5574 -0.3290  0.7718
15354TIP3   OH267552   1.595   2.477  13.147 -0.0024 -0.1449  0.7792
15354TIP3    H167553   1.682   2.438  13.134  0.1394 -0.0563  1.3849
15354TIP3    H267554   1.542   2.406  13.184  0.1754  0.1327  1.6105
15355TIP3   OH267555   4.973   0.630   4.932  0.3908 -0.0914 -0.1835
15355TIP3    H167556   5.033   0.704   4.921 -2.0559  2.2879  1.2311
15355TIP3    H267557   4.918   0.632   4.854 -0.9284  0.8996  0.7305
15356TIP3   OH267558   1.567   1.333   6.451  0.3212  0.1093  0.0676
15356TIP3    H167559   1.501   1.403   6.449 -0.3721 -0.5293  0.1936
15356TIP3    H267560   1.517   1.254   6.470  1.1817 -0.3248  0.5916
15357TIP3   OH267561   2.174   5.516   2.599 -0.4193 -0.1945 -0.0507
15357TIP3    H167562   2.206   5.429   2.625 -0.3787  0.2571  1.5118
15357TIP3    H267563   2.082   5.502   2.578 -0.1266 -0.8217 -0.9814
15358TIP3   OH267564   5.373   2.083   2.591  0.5943 -0.1316 -0.5922
15358TIP3    H167565   5.362   2.172   2.556  1.4136 -0.4684 -1.7550
15358TIP3    H267566   5.419   2.036   2.522  0.2283 -1.4541  0.0451
15359TIP3   OH267567   4.399   4.418   3.608 -0.2710 -0.0199 -0.0840
15359TIP3    H167568   4.359   4.337   3.640 -0.9304  0.2303 -0.2667
15359TIP3    H267569   4.326   4.479   3.597  0.2342  0.6507  0.1915
15360TIP3   OH267570   2.515   1.189   4.617 -0.1543  0.2087  0.1425
15360TIP3    H167571   2.431   1.234   4.604 -0.8704 -0.9635  0.6031
15360TIP3    H267572   2.526   1.187   4.712  0.0024 -0.3577  0.1133
15361TIP3   OH267573   1.082   5.868   5.609 -0.2040  0.0229  0.1753
15361TIP3    H167574   1.015   5.866   5.677 -0.8270 -0.1400 -0.4338
15361TIP3    H267575   1.165   5.863   5.657 -0.6494 -1.5953  0.8651
15362TIP3   OH267576   0.942   1.557  13.877 -0.6732 -0.5049 -0.0646
15362TIP3    H167577   0.967   1.527  13.789  0.1802  1.7060 -0.6377
15362TIP3    H267578   0.846   1.560  13.875 -0.7109  3.1744 -2.3684
15363TIP3   OH267579   1.339   6.390  16.362 -0.0648 -0.0088 -0.3167
15363TIP3    H167580   1.382   6.332  16.425  1.4988  0.5623 -0.8057
15363TIP3    H267581   1.250   6.400  16.395  0.7634  0.4856  1.9513
15364TIP3   OH267582   0.472   5.100   5.318  0.3484 -0.2951 -0.4554
15364TIP3    H167583   0.421   5.096   5.236 -0.2278 -0.9831 -0.0708
15364TIP3    H267584   0.520   5.183   5.312  0.8317 -0.6480 -1.7897
15365TIP3   OH267585   2.226   5.505   1.885 -0.7271 -0.5779 -0.6900
15365TIP3    H167586   2.263   5.429   1.840  4.9313  1.1294  0.3369
15365TIP3    H267587   2.272   5.580   1.847 -1.7217  1.7556  2.3279
15366TIP3   OH267588   2.243   6.782   5.817 -0.7534 -0.0565 -0.1937
15366TIP3    H167589   2.279   6.803   5.903  0.2668 -1.1696 -0.3338
15366TIP3    H267590   2.216   6.867   5.782  0.2443  0.6054  0.5862
15367TIP3   OH267591   2.424   5.533   2.769 -0.1953  0.0375  0.0354
15367TIP3    H167592   2.345   5.584   2.747  0.1702  0.5454 -0.1375
15367TIP3    H267593   2.468   5.521   2.685 -0.2007 -0.4459  0.0983
15368TIP3   OH267594   4.492   4.972   5.244 -0.4958 -0.1488 -0.0297
15368TIP3    H167595   4.524   5.003   5.160 -2.7334  0.4447 -0.7030
15368TIP3    H267596   4.431   4.901   5.223  0.6325 -1.5951  1.2477
15369TIP3   OH267597   3.682   2.665   0.866 -0.1613  0.2290  0.2456
15369TIP3    H167598   3.681   2.573   0.892 -1.5271 -0.2143 -1.2254
15369TIP3    H267599   3.612   2.673   0.802  0.6287  2.0778 -0.4681
15370TIP3   OH267600   3.142   0.673  13.971  0.4299  0.4667  0.5136
15370TIP3    H167601   3.120   0.581  13.959  2.1461  0.1464 -0.7625
15370TIP3    H267602   3.225   0.672  14.020  1.1255  1.2291 -0.5781
15371TIP3   OH267603   3.151   3.113   5.506  0.8388 -0.2801  0.4046
15371TIP3    H167604   3.233   3.067   5.489  0.8105  0.0329 -0.6508
15371TIP3    H267605   3.102   3.107   5.423  1.0214  1.9950  0.0721
15372TIP3   OH267606   3.889   0.428   2.393  0.7572  0.4116  0.4455
15372TIP3    H167607   3.963   0.372   2.415  1.1195  0.9911  0.7263
15372TIP3    H267608   3.814   0.388   2.437  1.2307  0.8236  1.6721
15373TIP3   OH267609   1.779   6.294   0.125  0.7213  0.2740 -0.6536
15373TIP3    H167610   1.820   6.372   0.163 -1.2255  0.5642  1.0123
15373TIP3    H267611   1.792   6.226   0.191  1.0523 -0.4233 -1.4204
15374TIP3   OH267612   1.837   1.350   1.517  0.3951 -0.1986 -0.0912
15374TIP3    H167613   1.903   1.408   1.554 -0.4701 -1.2089  3.4201
15374TIP3    H267614   1.754   1.380   1.556 -1.0027 -0.1648 -2.8620
15375TIP3   OH267615   1.876   6.774  13.186 -0.3339 -0.3600 -0.6536
15375TIP3    H167616   1.878   6.704  13.252  1.1293 -0.0306 -0.3190
15375TIP3    H267617   1.948   6.832  13.211 -0.5508  0.4353 -1.8361
15376TIP3   OH267618   4.025   0.610   3.183  0.2753  0.0698  0.3110
15376TIP3    H167619   4.107   0.641   3.144  0.6514 -0.3274  0.7790
15376TIP3    H267620   4.000   0.535   3.129  0.2150  0.2024  0.1566
15377TIP3   OH267621   6.572   5.041  11.095  0.0972 -0.5487  0.0006
15377TIP3    H167622   6.641   5.090  11.139 -0.0447 -1.6945  1.5783
15377TIP3    H267623   6.552   5.093  11.017  1.0845  1.0237  0.7446
15378TIP3   OH267624   2.557   1.216   0.178 -0.6027  1.2477 -0.1878
15378TIP3    H167625   2.587   1.174   0.097  0.3428  0.3504  0.5969
15378TIP3    H267626   2.515   1.297   0.149 -3.7055 -0.7741 -1.8766
15379TIP3   OH267627   6.088   0.959   4.402  0.1495  0.6736  0.4087
15379TIP3    H167628   6.127   1.034   4.447  0.7937  0.4218  0.2758
15379TIP3    H267629   6.001   0.950   4.442  0.1232  1.3991  0.5238
15380TIP3   OH267630   4.743   5.478   3.991  0.0264 -0.7803 -0.5318
15380TIP3    H167631   4.705   5.497   4.077 -0.6969 -0.8762 -0.8221
15380TIP3    H267632   4.762   5.565   3.955  3.3591 -0.7172  0.9864
15381TIP3   OH267633   2.425   4.737  14.887 -0.3971  0.1834  0.6310
15381TIP3    H167634   2.391   4.681  14.818  1.1888 -0.1319  0.0573
15381TIP3    H267635   2.361   4.730  14.958 -0.8280 -1.4387  0.1229
15382TIP3   OH267636   2.025   6.647   4.366 -0.1997  0.2477  0.4975
15382TIP3    H167637   2.024   6.734   4.326 -0.0949  0.2041  0.4010
15382TIP3    H267638   2.009   6.586   4.294 -0.9456  0.2263  0.6727
15383TIP3   OH267639   6.553   2.414  14.369  0.0792 -0.3917  0.5350
15383TIP3    H167640   6.459   2.407  14.357  0.0243 -0.6412  1.0936
15383TIP3    H267641   6.591   2.370  14.292 -0.2377  1.2277 -0.6094
15384TIP3   OH267642   4.381   5.042   4.489 -0.2218  0.0598  0.0483
15384TIP3    H167643   4.376   5.052   4.394  1.2713 -2.1406 -0.3539
15384TIP3    H267644   4.293   5.016   4.515 -0.4242 -0.2556 -0.9033
15385TIP3   OH267645   2.479   3.622  15.471 -0.1586 -0.2609 -0.4373
15385TIP3    H167646   2.390   3.654  15.460  0.7336  2.6733  0.1635
15385TIP3    H267647   2.490   3.615  15.566 -0.3351 -2.6885 -0.5180
15386TIP3   OH267648   5.137   6.164   1.529  0.3950  0.5291  0.4668
15386TIP3    H167649   5.215   6.137   1.479 -0.3259 -2.6590  0.8379
15386TIP3    H267650   5.120   6.091   1.588 -2.7100  1.2578  0.6328
15387TIP3   OH267651   0.557   6.240  12.803  0.1445 -0.0261  0.3277
15387TIP3    H167652   0.650   6.247  12.828  0.5288 -1.9718 -0.3419
15387TIP3    H267653   0.559   6.212  12.712 -0.9907 -2.8043  1.0554
15388TIP3   OH267654   2.822   6.305  15.594  0.1934 -0.1374 -0.2511
15388TIP3    H167655   2.790   6.367  15.660  1.9110 -0.8326  1.2963
15388TIP3    H267656   2.809   6.219  15.633 -0.0022 -0.6475 -1.4050
15389TIP3   OH267657   2.741   6.546   0.289  0.1448 -0.3351  0.0616
15389TIP3    H167658   2.716   6.507   0.205  0.1550 -0.1618 -0.0240
15389TIP3    H267659   2.818   6.599   0.268 -0.4890  0.5707 -0.0407
15390TIP3   OH267660   5.249   5.317  10.940  0.4695  0.3128 -0.4320
15390TIP3    H167661   5.222   5.233  10.901 -1.0440  1.4433 -1.9498
15390TIP3    H267662   5.292   5.363  10.869 -0.1112  1.4454 -0.0654
15391TIP3   OH267663   2.778   1.667   3.680 -0.3881  0.1469 -0.1005
15391TIP3    H167664   2.787   1.623   3.764 -0.0601 -2.0756 -1.2142
15391TIP3    H267665   2.708   1.731   3.693 -0.2931 -0.1037  1.8569
15392TIP3   OH267666   3.615   4.821  17.050  0.4149 -0.3712 -0.4207
15392TIP3    H167667   3.662   4.791  16.972  0.7102  0.0751 -0.4188
15392TIP3    H267668   3.533   4.858  17.017  1.0853  0.9657 -0.6507
15393TIP3   OH267669   3.888   6.252  11.289 -0.6836 -0.6781 -0.2996
15393TIP3    H167670   3.891   6.213  11.202 -0.8527  0.1180 -0.6766
15393TIP3    H267671   3.813   6.211  11.332 -2.7218  1.2960 -1.7292
15394TIP3   OH267672   5.636   3.545   1.427  0.2060  0.2154  0.0454
15394TIP3    H167673   5.618   3.503   1.511 -0.4373  0.2128 -0.0938
15394TIP3    H267674   5.581   3.623   1.427 -2.0358 -1.2508 -1.5845
15395TIP3   OH267675   4.090   2.575   1.776  0.7361  0.1223  1.0046
15395TIP3    H167676   4.163   2.522   1.808  1.4551  0.2203 -0.4004
15395TIP3    H267677   4.122   2.665   1.780  0.5188  0.2079  0.8174
15396TIP3   OH267678   0.043   0.025   4.921  0.0811 -0.3180  0.2613
15396TIP3    H167679   0.020  -0.038   4.990  1.8776 -0.4059  0.8323
15396TIP3    H267680   0.053   0.108   4.967  0.3703 -0.1744 -0.0595
15397TIP3   OH267681   0.213   3.762   5.967 -0.4034  0.4906 -0.5967
15397TIP3    H167682   0.175   3.847   5.991  1.8234  1.4273 -0.1476
15397TIP3    H267683   0.199   3.707   6.043 -1.3070  0.6369 -0.6458
15398TIP3   OH267684   4.796   4.740  16.336 -0.4365  0.7029 -0.6267
15398TIP3    H167685   4.768   4.830  16.316 -0.3131  0.7960 -0.3781
15398TIP3    H267686   4.732   4.685  16.291 -0.2238  0.9113 -1.1994
15399TIP3   OH267687   3.576   0.819  11.765  0.1805 -0.2492 -0.0391
15399TIP3    H167688   3.643   0.812  11.698 -0.3363 -1.2695 -0.4825
15399TIP3    H267689   3.611   0.882  11.828  1.0114  0.1437 -0.8643
15400TIP3   OH267690   5.162   4.099   0.795 -0.4092 -0.2890 -0.0072
15400TIP3    H167691   5.079   4.146   0.791 -0.1379  0.1185 -1.2888
15400TIP3    H267692   5.211   4.145   0.863 -0.0603  1.5160 -1.3862
15401TIP3   OH267693   3.405   6.314  15.486  0.0237  0.5311 -0.1873
15401TIP3    H167694   3.408   6.395  15.537  0.1872 -0.1907  0.9846
15401TIP3    H267695   3.313   6.303  15.463 -0.1979  0.4054  0.7299
15402TIP3   OH267696   4.646   3.292  11.733  0.0572  0.3919  0.3028
15402TIP3    H167697   4.620   3.366  11.788  0.7615  0.1013  1.0340
15402TIP3    H267698   4.676   3.225  11.794 -1.0018 -0.6941 -0.3165
15403TIP3   OH267699   4.634   4.991  16.235 -0.2414  0.1179 -0.0254
15403TIP3    H167700   4.637   5.085  16.218 -2.5711  0.4578  1.0911
15403TIP3    H267701   4.543   4.967  16.221 -0.2262 -1.4859  2.1331
15404TIP3   OH267702   2.155   5.555  14.525 -0.1805 -0.3533  0.0528
15404TIP3    H167703   2.153   5.642  14.565 -1.1113  0.9064 -2.4572
15404TIP3    H267704   2.238   5.518  14.552  0.5295  1.5826  0.7264
15405TIP3   OH267705   2.926   1.524  15.679  0.1932  0.4678 -0.3357
15405TIP3    H167706   2.953   1.451  15.735  0.3292  1.5762  1.1145
15405TIP3    H267707   2.878   1.483  15.607  1.6442 -1.1625 -0.4407
15406TIP3   OH267708   2.833   3.994   2.438 -0.2183 -0.6094  0.1620
15406TIP3    H167709   2.878   4.020   2.358  0.5919 -0.8296  0.5381
15406TIP3    H267710   2.834   3.898   2.436 -1.5004 -0.6342 -0.2775
15407TIP3   OH267711   1.821   3.729  11.862  0.0271  0.7001 -0.6284
15407TIP3    H167712   1.737   3.721  11.907 -0.5975  0.4864 -1.7877
15407TIP3    H267713   1.852   3.639  11.854  0.7725  0.8368  0.4998
15408TIP3   OH267714   3.949   0.392  11.742  0.0961 -0.3111  0.1154
15408TIP3    H167715   4.041   0.416  11.754  0.3068 -1.1754  0.3393
15408TIP3    H267716   3.900   0.460  11.788  0.6624 -0.2523  0.6428
15409TIP3   OH267717   2.014   5.248   4.385 -0.0960 -0.4600 -0.7093
15409TIP3    H167718   2.012   5.158   4.415 -2.0389 -0.1938  0.0515
15409TIP3    H267719   2.014   5.301   4.465  0.9204  0.2425 -1.1448
15410TIP3   OH267720   3.051   6.360  16.033 -0.2664 -0.6125 -0.0689
15410TIP3    H167721   3.041   6.428  15.966  1.0191  0.4944  0.8067
15410TIP3    H267722   3.132   6.383  16.078 -0.2667 -2.2490  0.8354
15411TIP3   OH267723   4.816   4.923  17.017  0.0348  0.1730 -0.5359
15411TIP3    H167724   4.798   5.012  17.048 -1.4645  0.0930 -1.0965
15411TIP3    H267725   4.844   4.876  17.096  1.9852  1.3953 -0.4469
15412TIP3   OH267726   0.290   5.358   3.199  0.0895 -0.2201  0.0980
15412TIP3    H167727   0.353   5.427   3.182 -0.4441  0.4547  0.8273
15412TIP3    H267728   0.323   5.283   3.148 -0.2217  1.0299 -2.0662
15413TIP3   OH267729   2.915   0.873   4.041  0.1947  0.0921 -0.0021
15413TIP3    H167730   2.944   0.858   3.951  0.1251  1.1066 -0.2146
15413TIP3    H267731   2.877   0.790   4.069  0.2742 -0.2508 -0.8896
15414TIP3   OH267732   2.796   0.221  12.958 -0.1470 -0.1407  0.3427
15414TIP3    H167733   2.879   0.251  12.994  0.2942 -1.6462  0.6695
15414TIP3    H267734   2.820   0.172  12.879 -0.7907  0.1010 -0.0098
15415TIP3   OH267735   1.372   2.183  13.224  0.3005  0.1685 -0.1163
15415TIP3    H167736   1.425   2.110  13.256 -0.5882 -1.6901 -2.5632
15415TIP3    H267737   1.285   2.167  13.260  0.3359  0.7061  0.2365
15416TIP3   OH267738   5.484   1.930   4.365 -0.0484 -0.3250  0.2249
15416TIP3    H167739   5.530   2.014   4.359 -0.7203  0.3987  3.2406
15416TIP3    H267740   5.431   1.926   4.285  2.7599  0.2893 -1.8075
15417TIP3   OH267741   1.696   6.564  15.652  0.0024  0.5922  0.0078
15417TIP3    H167742   1.606   6.589  15.632  0.4731  1.7120 -0.8476
15417TIP3    H267743   1.749   6.632  15.611  1.2907 -0.7554 -0.6400
15418TIP3   OH267744   3.336   2.905   0.010 -0.0505  0.4625 -0.6896
15418TIP3    H167745   3.358   2.993   0.041 -0.3050  0.1558  0.4237
15418TIP3    H267746   3.417   2.872  -0.029  0.1369  1.0714 -0.8131
15419TIP3   OH267747   6.117   4.073  14.150  0.6917  0.6402 -0.2041
15419TIP3    H167748   6.029   4.087  14.117  0.7893  0.0250 -0.7449
15419TIP3    H267749   6.174   4.117  14.087  0.8849 -0.6221 -0.9439
15420TIP3   OH267750   3.138   5.018   4.144  0.0166 -0.0525 -0.3045
15420TIP3    H167751   3.136   4.958   4.070  0.7584 -0.4742 -0.0048
15420TIP3    H267752   3.175   4.965   4.215 -4.4336 -1.0568  1.6504
15421TIP3   OH267753   5.713   0.679  14.416 -0.1196  0.3499  0.0957
15421TIP3    H167754   5.760   0.690  14.334 -0.4091  1.4810  0.0629
15421TIP3    H267755   5.636   0.736  14.408  1.1368  2.5414  2.1085
15422TIP3   OH267756   3.944   0.434  14.958  0.1719 -0.1261 -0.6182
15422TIP3    H167757   3.936   0.518  15.002  0.1634 -0.2940 -0.2957
15422TIP3    H267758   3.958   0.371  15.029  0.1636 -0.3976 -0.8553
15423TIP3   OH267759   1.561   1.504   0.569  0.0308  0.5104 -0.6037
15423TIP3    H167760   1.518   1.457   0.498  0.9196 -0.1064 -0.7553
15423TIP3    H267761   1.646   1.460   0.579 -0.2283  0.3209  1.0927
15424TIP3   OH267762   1.168   2.268  14.172 -0.4680  0.0370  0.4253
15424TIP3    H167763   1.104   2.234  14.109  1.0555 -0.4381 -0.9290
15424TIP3    H267764   1.166   2.363  14.158  0.3339 -0.1050 -0.8874
15425TIP3   OH267765   3.650   4.003  11.143  0.2668  0.1450 -0.6596
15425TIP3    H167766   3.641   4.097  11.128  3.0783  0.5520 -0.3342
15425TIP3    H267767   3.736   3.993  11.185  0.3822 -2.6289 -1.3395
15426TIP3   OH267768   0.144   0.437  17.246 -0.1842  0.2523  0.0559
15426TIP3    H167769   0.223   0.492  17.248  0.4852 -0.6103 -1.4784
15426TIP3    H267770   0.075   0.495  17.277  0.8144  1.4248  0.1942
15427TIP3   OH267771   5.616   3.890   1.673  0.0408 -0.2727 -0.1586
15427TIP3    H167772   5.702   3.915   1.708  0.3118 -1.1229 -0.1907
15427TIP3    H267773   5.623   3.906   1.579  0.3886 -0.9146 -0.2522
15428TIP3   OH267774   1.011   6.276   0.601  0.3178 -0.2750 -0.5438
15428TIP3    H167775   0.998   6.259   0.508 -2.5281 -1.3397 -0.0612
15428TIP3    H267776   1.045   6.193   0.636 -0.7820 -0.6392 -0.3063
15429TIP3   OH267777   3.841   4.054  10.943  0.2517  0.1855  0.7339
15429TIP3    H167778   3.795   4.064  11.027  0.9641  0.6096  1.0815
15429TIP3    H267779   3.897   3.978  10.956  0.3853  0.2702  0.6485
15430TIP3   OH267780   1.394   1.481  14.068  0.1582 -0.2934 -0.0646
15430TIP3    H167781   1.324   1.478  14.134  1.0618  0.3247  0.9700
15430TIP3    H267782   1.429   1.392  14.066  0.3613 -0.2390  0.5920
15431TIP3   OH267783   3.652   3.452   4.175 -0.4358 -0.3172 -0.6469
15431TIP3    H167784   3.597   3.441   4.097  0.3118 -1.0924 -1.0833
15431TIP3    H267785   3.670   3.362   4.204 -0.1600 -0.0452  0.0317
15432TIP3   OH267786   2.830   0.934  16.357 -0.3671 -0.1418  0.0766
15432TIP3    H167787   2.865   1.019  16.329 -0.7118  0.1578  0.5323
15432TIP3    H267788   2.751   0.923  16.304  0.4673 -0.8943 -1.0693
15433TIP3   OH267789   6.527   4.066  11.994 -0.1040  0.3434  0.6946
15433TIP3    H167790   6.511   3.984  12.041  1.7763 -0.0080  0.8053
15433TIP3    H267791   6.606   4.050  11.944 -0.5421  1.6239 -0.4765
15434TIP3   OH267792   1.537   4.114   4.547 -0.4916  0.2622  0.2603
15434TIP3    H167793   1.585   4.109   4.630  0.6496  1.4807 -0.2882
15434TIP3    H267794   1.504   4.025   4.533  2.0615 -0.8165  0.4353
15435TIP3   OH267795   2.660   2.185   1.806 -0.6231 -0.4077 -0.5138
15435TIP3    H167796   2.702   2.207   1.723  0.7850  0.7729  0.4362
15435TIP3    H267797   2.720   2.122   1.847  1.2414  2.4160  1.5193
15436TIP3   OH267798   2.612   4.218   4.451  0.0114  1.0855  0.0562
15436TIP3    H167799   2.563   4.300   4.453  0.6130  1.4640 -0.3474
15436TIP3    H267800   2.601   4.186   4.361  1.3332  1.7127 -0.3689
15437TIP3   OH267801   0.853   4.127   3.541  0.4034  0.2216  0.2603
15437TIP3    H167802   0.809   4.150   3.623  0.7022  0.6756  0.2996
15437TIP3    H267803   0.837   4.201   3.483 -1.1237 -0.7636 -0.6480
15438TIP3   OH267804   2.644   0.763   1.752 -0.1309 -0.1001 -0.0946
15438TIP3    H167805   2.653   0.767   1.847  1.4207  1.1875 -0.2689
15438TIP3    H267806   2.549   0.763   1.738 -0.3934  0.4732  1.4305
15439TIP3   OH267807   3.074   3.564  15.233  0.0145  0.1489  0.1436
15439TIP3    H167808   3.101   3.505  15.303  3.2072 -0.3821 -1.3333
15439TIP3    H267809   3.029   3.508  15.170  0.7233 -0.2042 -0.0563
15440TIP3   OH267810   5.964   3.503   4.287 -0.1969 -0.8999  0.8614
15440TIP3    H167811   6.034   3.499   4.352  0.6529  0.5052  0.0722
15440TIP3    H267812   5.986   3.434   4.223 -0.8431 -2.0411  1.8258
15441TIP3   OH267813   1.261   4.179   4.696 -0.3587 -0.1483 -0.8044
15441TIP3    H167814   1.223   4.200   4.611 -0.5245  1.1522 -0.4252
15441TIP3    H267815   1.334   4.120   4.676 -0.0523  0.5686 -1.8929
15442TIP3   OH267816   1.928   3.161  11.412  0.0874 -0.2869 -0.1673
15442TIP3    H167817   1.876   3.081  11.418 -0.8780  0.3844  0.7516
15442TIP3    H267818   1.894   3.206  11.334  0.8858 -0.9174 -0.9046
15443TIP3   OH267819   6.272   6.554   4.275  0.1153 -0.3179  0.6921
15443TIP3    H167820   6.219   6.546   4.196  0.4143  0.8832  0.3487
15443TIP3    H267821   6.220   6.608   4.334  0.1170 -0.7822  1.1369
15444TIP3   OH267822   4.365   6.419  12.789 -1.0077 -0.7016 -0.3465
15444TIP3    H167823   4.431   6.386  12.728 -2.4221 -0.8400 -1.8375
15444TIP3    H267824   4.365   6.514  12.776 -1.3946 -0.7427 -0.6490
15445TIP3   OH267825   4.989   4.783  12.239  0.5182 -0.1520 -0.4611
15445TIP3    H167826   4.984   4.693  12.208 -1.5135 -0.3733  0.3768
15445TIP3    H267827   4.990   4.776  12.335  1.9122  0.6945 -0.3725
15446TIP3   OH267828   4.854   3.137   2.290  0.4195  0.0458 -0.0479
15446TIP3    H167829   4.842   3.094   2.375  0.2255 -0.3662 -0.2835
15446TIP3    H267830   4.801   3.086   2.229  0.1270  0.6621 -0.3168
15447TIP3   OH267831   4.158   3.326   4.836  0.5087 -0.7178 -0.0987
15447TIP3    H167832   4.113   3.402   4.801  0.2793 -1.0389 -0.5013
15447TIP3    H267833   4.210   3.360   4.909  1.8872  0.1641 -1.4294
15448TIP3   OH267834   3.517   3.936  15.727 -0.4532  0.0588 -0.7594
15448TIP3    H167835   3.427   3.954  15.754 -0.4620  1.0235 -1.4065
15448TIP3    H267836   3.555   3.889  15.802 -2.4267 -3.3857 -1.7173
15449TIP3   OH267837   0.851   2.679  14.370 -0.1357 -0.2919  0.0804
15449TIP3    H167838   0.850   2.771  14.343  2.4295 -0.1552  0.2487
15449TIP3    H267839   0.801   2.634  14.301  0.7146  0.9072 -1.3875
15450TIP3   OH267840   5.660   5.087  13.343  0.8133  0.3656  0.5639
15450TIP3    H167841   5.708   5.008  13.319 -0.3746 -0.0680 -0.4576
15450TIP3    H267842   5.572   5.073  13.310  0.5827  2.1411  0.3296
15451TIP3   OH267843   3.642   6.725   1.089  0.6014 -0.4523 -0.0186
15451TIP3    H167844   3.723   6.775   1.080  0.4333  0.0990  1.3438
15451TIP3    H267845   3.583   6.783   1.136  0.2636 -1.7495  1.2227
15452TIP3   OH267846   6.181   6.262  12.001 -0.7043 -0.2764  0.0172
15452TIP3    H167847   6.090   6.289  12.008 -1.3695 -2.3568  0.3135
15452TIP3    H267848   6.224   6.300  12.077 -1.9691 -1.3983  1.3482
15453TIP3   OH267849   1.927   5.702  14.410  0.5135  0.2370  1.0891
15453TIP3    H167850   1.988   5.645  14.457 -0.4211 -1.0610  0.7659
15453TIP3    H267851   1.892   5.648  14.339  0.4444  1.5680  0.0543
15454TIP3   OH267852   0.463   0.757   0.093  0.6962 -0.1814 -0.0528
15454TIP3    H167853   0.436   0.790   0.007 -0.2912  1.3585  0.7889
15454TIP3    H267854   0.382   0.727   0.134  1.1902 -1.1280  0.2670
15455TIP3   OH267855   3.561   0.994  14.974  0.2796 -0.2474 -0.4378
15455TIP3    H167856   3.644   1.037  14.952 -0.8844  1.4144 -1.7806
15455TIP3    H267857   3.542   1.023  15.063 -0.8709  2.8867 -1.5549
15456TIP3   OH267858   1.913   2.408   2.373 -0.2691  0.0249  0.0969
15456TIP3    H167859   1.868   2.488   2.347  0.9495  1.6088  2.5572
15456TIP3    H267860   2.005   2.433   2.381  0.1636 -1.6463  0.8663
15457TIP3   OH267861   5.071   1.724   4.767 -0.2419  0.4571 -0.2898
15457TIP3    H167862   5.112   1.790   4.823  0.8922 -0.6049  0.1812
15457TIP3    H267863   5.143   1.690   4.714 -0.0146 -2.6935  1.7639
15458TIP3   OH267864   3.520   1.731   5.607  0.0435 -0.3504  0.3691
15458TIP3    H167865   3.512   1.636   5.614  1.1148 -0.3887  1.4562
15458TIP3    H267866   3.561   1.746   5.523 -0.0075 -0.8595  0.2483
15459TIP3   OH267867   1.508   4.467   6.206  0.2364 -0.0531 -0.0068
15459TIP3    H167868   1.457   4.537   6.167 -1.4199 -1.0897  0.2268
15459TIP3    H267869   1.446   4.419   6.261  1.1940 -1.9959 -0.5328
15460TIP3   OH267870   2.692   4.718  14.829  0.2957  0.4321 -0.3111
15460TIP3    H167871   2.598   4.728  14.814 -0.3812 -1.7526  1.8641
15460TIP3    H267872   2.703   4.734  14.923  1.3276 -3.3594  0.3689
15461TIP3   OH267873   5.873   5.239  15.360  0.2574 -0.7153  0.4255
15461TIP3    H167874   5.853   5.169  15.422 -0.9098 -1.5123 -0.8024
15461TIP3    H267875   5.802   5.236  15.295  0.8835  0.7512 -0.3937
15462TIP3   OH267876   0.166   3.415   2.587  0.6653 -0.3066  0.6583
15462TIP3    H167877   0.234   3.427   2.653  1.3834  0.9662 -0.2579
15462TIP3    H267878   0.215   3.405   2.505 -0.2306  1.0174 -0.0686
15463TIP3   OH267879   3.628   3.735   3.912 -0.5756  0.2523  0.4457
15463TIP3    H167880   3.706   3.738   3.855 -0.8256 -0.5555  0.0466
15463TIP3    H267881   3.567   3.796   3.871 -0.4762  0.2350  0.2676
15464TIP3   OH267882   5.172   6.362   4.061  0.0412 -0.1939 -0.0899
15464TIP3    H167883   5.250   6.324   4.022  1.2980  0.9239  1.2420
15464TIP3    H267884   5.119   6.286   4.086  0.7784 -0.9722 -0.8354
15465TIP3   OH267885   1.847   1.714   0.542 -0.1023 -0.4422  0.6166
15465TIP3    H167886   1.866   1.620   0.551 -0.3257 -0.4626  0.9260
15465TIP3    H267887   1.752   1.718   0.530 -0.1052 -0.2485  0.6974
15466TIP3   OH267888   1.246   1.132   2.637 -0.0953 -0.0889  0.1446
15466TIP3    H167889   1.178   1.167   2.581 -0.0636 -1.1812 -0.5979
15466TIP3    H267890   1.280   1.055   2.591  1.2407  0.0833  0.7641
15467TIP3   OH267891   5.061   4.190  11.291 -0.6189  0.2726  0.3787
15467TIP3    H167892   5.117   4.173  11.366  0.7600  0.4480 -0.5684
15467TIP3    H267893   5.030   4.280  11.302 -0.9431  0.0809  1.0451
15468TIP3   OH267894   1.117   0.979  10.947  0.6545 -0.3430 -0.4001
15468TIP3    H167895   1.062   0.914  10.904  0.3087 -0.7490  0.6340
15468TIP3    H267896   1.149   0.936  11.026  1.0534  0.4835 -0.0975
15469TIP3   OH267897   6.276   2.113   4.804 -0.2117  0.0615 -0.2078
15469TIP3    H167898   6.338   2.052   4.844  0.5064  0.1280 -1.1799
15469TIP3    H267899   6.222   2.059   4.747 -1.6940 -0.1436  1.3176
15470TIP3   OH267900   3.472   0.004  17.236  0.1340 -0.0904 -0.0771
15470TIP3    H167901   3.554   0.053  17.238  0.1936 -0.1969  0.9446
15470TIP3    H267902   3.492  -0.078  17.282 -0.3901 -0.3663 -0.3284
15471TIP3   OH267903   6.128   0.072  16.570 -0.0990  0.5097 -0.5263
15471TIP3    H167904   6.078   0.054  16.490  0.0511  1.6483 -0.8909
15471TIP3    H267905   6.177  -0.009  16.586 -2.3994 -0.8663  0.1333
15472TIP3   OH267906   3.359   0.622  17.084 -0.3119  0.4458 -0.3693
15472TIP3    H167907   3.265   0.605  17.090  0.1153 -2.2814 -0.1007
15472TIP3    H267908   3.368   0.680  17.008 -2.2447  1.6029  0.2010
15473TIP3   OH267909   1.958   2.069   2.572  0.3228  0.2161  0.1566
15473TIP3    H167910   1.908   2.120   2.509 -0.1617  0.4828  0.7442
15473TIP3    H267911   2.043   2.112   2.576  0.2676  0.3521 -0.1213
15474TIP3   OH267912   6.431   3.261   0.070  0.5701  0.1132  0.8555
15474TIP3    H167913   6.489   3.248  -0.005 -0.6234 -1.8641  0.1923
15474TIP3    H267914   6.412   3.172   0.100 -2.4410  0.6344  0.7459
15475TIP3   OH267915   5.775   3.843  11.532  0.3657  0.3881  0.0021
15475TIP3    H167916   5.809   3.867  11.619  2.0873 -1.7783  0.0350
15475TIP3    H267917   5.850   3.853  11.474 -0.0156 -0.7709 -0.7120
15476TIP3   OH267918   4.426   3.261   2.856  0.3039  0.2492  0.4994
15476TIP3    H167919   4.435   3.274   2.950 -0.7962 -1.2882  0.8565
15476TIP3    H267920   4.385   3.341   2.824  0.3066  0.6165  1.3897
15477TIP3   OH267921   0.714   0.219  11.141 -0.5996  0.2413  0.7587
15477TIP3    H167922   0.670   0.136  11.161  0.5027 -0.2919  1.0053
15477TIP3    H267923   0.807   0.197  11.134 -0.1116  1.6760  2.1248
15478TIP3   OH267924   0.006   0.258   5.445  0.3979  0.1621 -0.0982
15478TIP3    H167925  -0.002   0.337   5.500 -1.3768 -0.4023  0.5376
15478TIP3    H267926   0.100   0.242   5.440  0.7775  2.0391  0.1617
15479TIP3   OH267927   5.052   6.638  12.315 -0.3480 -0.4112 -0.4449
15479TIP3    H167928   5.000   6.684  12.380  1.2611 -0.1226  0.6957
15479TIP3    H267929   5.061   6.701  12.243  0.7306  0.6403  0.5495
15480TIP3   OH267930   4.234   5.808  14.417  0.5812 -0.0534 -0.1100
15480TIP3    H167931   4.156   5.789  14.366  0.3600 -0.7533  0.4660
15480TIP3    H267932   4.206   5.873  14.482  0.2181 -1.0049  0.7100
15481TIP3   OH267933   6.241   5.273  14.022  0.3555  0.5018 -0.3451
15481TIP3    H167934   6.224   5.366  14.036 -0.2755  0.4113 -0.4789
15481TIP3    H267935   6.285   5.269  13.937  0.8675  0.7226 -0.0946
15482TIP3   OH267936   4.946   1.516  16.050 -0.2898 -0.1264 -0.1980
15482TIP3    H167937   4.940   1.420  16.049  1.5321 -0.2858 -1.1337
15482TIP3    H267938   4.974   1.537  16.139 -2.5604 -0.2487  0.6130
15483TIP3   OH267939   1.425   3.877   0.225 -0.2410 -0.3929  0.0714
15483TIP3    H167940   1.418   3.846   0.135 -0.1347  1.1300 -0.5038
15483TIP3    H267941   1.344   3.925   0.241 -0.5152 -1.1353  1.0060
15484TIP3   OH267942   6.282   5.912   0.217  0.1539 -0.0297  0.3494
15484TIP3    H167943   6.290   5.817   0.209 -2.8205 -0.3316 -0.3280
15484TIP3    H267944   6.280   5.927   0.312 -0.5458 -0.8121  0.4781
15485TIP3   OH267945   2.754   6.120  15.758  0.0216  0.2840 -0.3204
15485TIP3    H167946   2.762   6.172  15.837 -2.6987 -0.8743  0.8660
15485TIP3    H267947   2.808   6.042  15.774  0.4062  0.5915 -0.1148
15486TIP3   OH267948   6.455   2.141  16.859  0.0403 -0.0128 -0.3672
15486TIP3    H167949   6.425   2.141  16.768  1.7063 -0.1722 -0.9611
15486TIP3    H267950   6.395   2.081  16.904 -1.0173  0.3317 -1.2678
15487TIP3   OH267951   5.579   3.801   4.609 -0.5019 -0.0494 -0.2945
15487TIP3    H167952   5.564   3.754   4.691 -2.5016  2.2247  0.7236
15487TIP3    H267953   5.527   3.753   4.544 -0.8165 -0.4700  0.2601
15488TIP3   OH267954   0.496   0.290   3.884 -0.3459  0.0643 -0.3777
15488TIP3    H167955   0.494   0.195   3.897 -4.7077  0.1506  1.3379
15488TIP3    H267956   0.458   0.327   3.964 -0.6193  3.1227 -1.7537
15489TIP3   OH267957   1.954   0.326   5.418 -0.3875  0.3251  0.2393
15489TIP3    H167958   1.955   0.315   5.323  0.9721  0.2701  0.2423
15489TIP3    H267959   2.019   0.393   5.435  1.0179 -1.2405  1.2931
15490TIP3   OH267960   6.127   3.927  11.192  0.3936  0.1770  0.0485
15490TIP3    H167961   6.046   3.949  11.146  1.1897  2.0204 -0.5243
15490TIP3    H267962   6.157   4.009  11.230  1.7920 -0.5541  0.6131
15491TIP3   OH267963   2.210   3.325   3.878 -0.3258  0.0019 -0.0882
15491TIP3    H167964   2.256   3.384   3.936  0.1139 -1.3728  0.9991
15491TIP3    H267965   2.223   3.362   3.790  1.2151  0.6709  0.4034
15492TIP3   OH267966   0.449   5.506   0.890  0.0882  0.2995 -0.4075
15492TIP3    H167967   0.448   5.545   0.802 -1.6651 -1.1710 -1.0967
15492TIP3    H267968   0.489   5.420   0.877  0.7216  0.4583  0.4398
15493TIP3   OH267969   6.179   4.926  11.912 -1.2209 -0.5294 -0.7772
15493TIP3    H167970   6.196   4.991  11.980  0.2898 -0.8792 -0.7842
15493TIP3    H267971   6.242   4.856  11.929 -0.5801 -0.4858 -2.7094
15494TIP3   OH267972   4.189   0.799  17.252 -0.1858 -0.3371  0.1572
15494TIP3    H167973   4.146   0.788  17.337 -1.0372 -1.0508 -0.3443
15494TIP3    H267974   4.277   0.763  17.265  0.3982  1.3715  1.2637
15495TIP3   OH267975   1.386   6.174  13.864  0.0943  0.2972 -1.0443
15495TIP3    H167976   1.430   6.231  13.928 -0.5535  0.3525 -0.6292
15495TIP3    H267977   1.303   6.152  13.906  0.3033 -0.9124 -1.2243
15496TIP3   OH267978   3.509   2.587  16.927  0.8162  0.4783  0.0422
15496TIP3    H167979   3.449   2.649  16.969  1.4380  0.5847  0.7879
15496TIP3    H267980   3.581   2.577  16.989  0.8347 -0.8286 -0.1663
15497TIP3   OH267981   1.179   2.495  11.438  0.2406  0.5465  0.6121
15497TIP3    H167982   1.189   2.581  11.398 -1.1950  0.5770  0.2706
15497TIP3    H267983   1.098   2.460  11.400  0.8327 -0.9828  0.7010
15498TIP3   OH267984   2.128   5.711  15.176 -0.1255  0.0747  0.4177
15498TIP3    H167985   2.156   5.796  15.143 -0.2413 -0.0124  0.0903
15498TIP3    H267986   2.115   5.725  15.270 -0.3553  0.4732  0.3301
15499TIP3   OH267987   0.086   6.336  14.348  0.5201  0.1171  0.2889
15499TIP3    H167988   0.100   6.314  14.256 -1.5643  0.1029 -0.0592
15499TIP3    H267989   0.002   6.295  14.370  0.9122  0.2337  2.1689
15500TIP3   OH267990   2.040   5.656   5.922 -0.1163  0.1966  0.3832
15500TIP3    H167991   2.102   5.717   5.880  0.4003  0.2548  1.2148
15500TIP3    H267992   1.954   5.686   5.893  0.2342  0.1136 -0.7963
15501TIP3   OH267993   6.700   6.727   0.000  0.8013 -0.0185 -0.0594
15501TIP3    H167994   6.734   6.663   0.063  1.9403  0.0400 -0.5798
15501TIP3    H267995   6.700   6.680  -0.083  1.9389  0.7307 -0.5033
15502TIP3   OH267996   0.577   2.177  15.562 -0.1957 -0.6799 -0.2117
15502TIP3    H167997   0.493   2.145  15.530  0.9246 -1.4039 -2.7137
15502TIP3    H267998   0.633   2.099  15.565  0.8875  0.0621 -0.3958
15503TIP3   OH267999   6.487   1.080  13.832 -0.2659  0.0455  0.0458
15503TIP3    H168000   6.571   1.105  13.795 -0.5879  0.9753 -0.0973
15503TIP3    H268001   6.467   0.996  13.792 -0.1725  0.6000 -1.2145
15504TIP3   OH268002   5.864   5.776  13.577  0.5449  1.2551 -0.4370
15504TIP3    H168003   5.793   5.714  13.561  1.0667  1.1238 -2.6651
15504TIP3    H268004   5.877   5.775  13.672 -0.4878 -0.8908 -0.2652
15505TIP3   OH268005   0.417   0.621  11.187  0.5117  0.4430  0.3952
15505TIP3    H168006   0.395   0.603  11.278  0.3756 -0.1285  0.2554
15505TIP3    H268007   0.339   0.663  11.151  0.0838 -0.4714  0.2206
15506TIP3   OH268008   0.702   5.895   2.549  0.2272  0.0608  0.1424
15506TIP3    H168009   0.738   5.980   2.527 -0.3806  0.5783  1.0662
15506TIP3    H268010   0.663   5.862   2.468  1.2993  0.2263 -0.4498
15507TIP3   OH268011   3.923   5.066  12.928  0.1606 -1.0143 -0.4089
15507TIP3    H168012   4.006   5.075  12.974  0.5672 -2.2047 -0.8731
15507TIP3    H268013   3.947   5.028  12.843 -0.8237 -1.1074 -0.6521
15508TIP3   OH268014   1.889   4.838   4.782  0.1278 -0.2792 -0.1817
15508TIP3    H168015   1.802   4.874   4.796 -0.9379 -2.1662 -1.5710
15508TIP3    H268016   1.875   4.745   4.767  2.5166 -0.8681  0.6889
15509TIP3   OH268017   0.023   1.526   4.305 -0.3262 -0.6358  0.1123
15509TIP3    H168018   0.021   1.506   4.398  1.6438 -0.1962  0.2885
15509TIP3    H268019  -0.057   1.575   4.289 -0.1068  0.3370  1.8306
15510TIP3   OH268020   5.376   6.661  16.108 -0.1533  0.2395 -0.1651
15510TIP3    H168021   5.346   6.684  16.020  0.7815 -0.2017 -0.6093
15510TIP3    H268022   5.426   6.581  16.096 -2.3561 -1.4738  1.1822
15511TIP3   OH268023   1.884   1.696  11.461  0.1400  0.6239  0.0064
15511TIP3    H168024   1.897   1.790  11.472  1.1853  0.4962 -0.0542
15511TIP3    H268025   1.970   1.658  11.477 -0.2350 -0.3079 -0.1468
15512TIP3   OH268026   1.025   0.264   3.857 -0.1307  0.6954  0.3934
15512TIP3    H168027   1.018   0.335   3.794 -0.4517  1.6665  1.4894
15512TIP3    H268028   1.086   0.297   3.924  0.8587 -0.6280  0.1970
15513TIP3   OH268029   2.505   2.416   5.751  0.1457 -0.2115  0.1766
15513TIP3    H168030   2.460   2.332   5.760 -2.2417  1.0605  0.6448
15513TIP3    H268031   2.517   2.448   5.840 -0.4800  0.7030 -0.0525
15514TIP3   OH268032   3.334   4.269  15.372 -0.5563 -0.2775  0.2291
15514TIP3    H168033   3.273   4.285  15.300 -0.1289 -0.3439 -0.1608
15514TIP3    H268034   3.365   4.179  15.357  0.8279  0.2920 -0.5105
15515TIP3   OH268035   0.982   2.069  16.418 -0.1302 -0.8555  0.0226
15515TIP3    H168036   0.953   1.984  16.384  0.2003  0.3774 -3.8604
15515TIP3    H268037   1.051   2.047  16.481 -1.0507 -3.4796  0.2451
15516TIP3   OH268038   6.533   4.932  14.883  0.0829  0.3311 -0.0475
15516TIP3    H168039   6.605   4.958  14.825  0.1011 -0.1513 -0.2456
15516TIP3    H268040   6.570   4.861  14.936 -0.2865 -0.0071 -0.2432
15517TIP3   OH268041   5.968   2.090  14.816 -0.2679  0.0095 -0.6762
15517TIP3    H168042   6.000   2.042  14.740 -0.6501 -1.0912 -0.1589
15517TIP3    H268043   5.940   2.174  14.781  0.8136  0.0421 -1.5386
15518TIP3   OH268044   6.229   2.343  16.673  0.2686  0.5079  0.3799
15518TIP3    H168045   6.292   2.404  16.634  1.9066 -2.0663 -1.3088
15518TIP3    H268046   6.147   2.361  16.628  0.4994  1.9604  0.4975
15519TIP3   OH268047   2.053   0.067  15.044  0.2699  0.4037 -0.5386
15519TIP3    H168048   2.076   0.138  14.984  0.0439 -0.0666 -1.1849
15519TIP3    H268049   2.024  -0.004  14.988 -0.3994  0.1157  0.1441
15520TIP3   OH268050   2.833   6.648  11.715 -0.4321 -0.2207  0.2305
15520TIP3    H168051   2.834   6.585  11.643 -0.8244 -0.8665  0.7819
15520TIP3    H268052   2.869   6.600  11.789 -0.2649  0.3666  0.5307
15521TIP3   OH268053   3.001   1.131  12.311 -0.1050 -0.2234  0.2368
15521TIP3    H168054   2.918   1.142  12.264 -0.1734 -3.8116 -0.7586
15521TIP3    H268055   2.978   1.076  12.386  1.2334 -0.5767  0.4014
15522TIP3   OH268056   0.337   4.632   5.249  0.2153  0.2313 -0.0567
15522TIP3    H168057   0.416   4.681   5.224  0.5428 -0.3759 -0.2410
15522TIP3    H268058   0.367   4.573   5.319 -0.2009  0.3852  0.2489
15523TIP3   OH268059   3.318   5.117  16.533  0.2780 -0.2661 -0.1828
15523TIP3    H168060   3.284   5.206  16.548  1.5400 -0.1231  2.3844
15523TIP3    H268061   3.246   5.059  16.560  0.3618  0.0227  0.7214
15524TIP3   OH268062   5.374   1.894   0.935  0.0247  0.2134 -0.2829
15524TIP3    H168063   5.331   1.814   0.904 -0.3323 -0.3654  1.6121
15524TIP3    H268064   5.363   1.956   0.863 -0.9242 -0.9980 -1.2295
15525TIP3   OH268065   1.909   2.770  12.298  0.1529  0.0923 -0.3297
15525TIP3    H168066   1.860   2.700  12.342 -0.1594 -1.2999 -2.6948
15525TIP3    H268067   1.853   2.794  12.223  0.3118  2.8505  0.3253
15526TIP3   OH268068   0.869   3.121   4.497 -0.3806  0.6570 -0.5234
15526TIP3    H168069   0.861   3.176   4.575  0.5480  0.5257 -0.3269
15526TIP3    H268070   0.823   3.040   4.520  0.0488  0.5470 -0.0334
15527TIP3   OH268071   3.037   2.752   5.316 -0.1278  0.5219  0.0766
15527TIP3    H168072   2.971   2.683   5.323 -0.5508  0.7755 -1.1687
15527TIP3    H268073   3.076   2.757   5.403 -0.7839 -0.5956  0.4503
15528TIP3   OH268074   4.345   4.707  16.351  0.1219  0.0072  0.1430
15528TIP3    H168075   4.353   4.645  16.279 -0.8196 -0.9688  0.8451
15528TIP3    H268076   4.367   4.791  16.312 -0.8022 -0.4144 -1.4161
15529TIP3   OH268077   5.761   5.025  14.533  0.2252  0.1276  0.4249
15529TIP3    H168078   5.673   5.013  14.569 -0.3527  2.5142  0.0211
15529TIP3    H268079   5.764   5.118  14.510  2.2154 -0.2966 -1.2953
15530TIP3   OH268080   6.206   5.121  15.479 -0.1200 -0.2818  0.3687
15530TIP3    H168081   6.279   5.175  15.509 -1.2712  0.8666  1.2027
15530TIP3    H268082   6.207   5.130  15.383  0.0163  0.8039  0.4656
15531TIP3   OH268083   0.409   2.548  14.112 -0.7074 -0.2432 -0.0084
15531TIP3    H168084   0.494   2.531  14.151 -0.3253  0.5211 -0.4695
15531TIP3    H268085   0.393   2.474  14.054  1.1240  1.0425 -2.3509
15532TIP3   OH268086   1.458   4.526   2.920 -0.6094 -0.3301  0.1806
15532TIP3    H168087   1.553   4.534   2.919 -0.5864 -0.5795  0.2075
15532TIP3    H268088   1.427   4.596   2.862 -0.3157 -1.4266 -1.3723
15533TIP3   OH268089   5.307   4.069   6.095  0.0349  0.2108 -0.0482
15533TIP3    H168090   5.300   4.038   6.185  0.4185  0.7568  0.1743
15533TIP3    H268091   5.367   4.008   6.053 -0.8483 -0.5842 -0.1865
15534TIP3   OH268092   0.983   0.615   1.346 -0.4556  0.1921  0.7373
15534TIP3    H168093   0.907   0.629   1.290 -0.4232 -2.4305 -0.0995
15534TIP3    H268094   0.975   0.524   1.375 -0.3196  1.2671  4.8342
15535TIP3   OH268095   4.123   3.098  12.896  0.4787 -0.0318 -0.0113
15535TIP3    H168096   4.042   3.131  12.932  0.4604 -2.1579  2.1137
15535TIP3    H268097   4.107   3.092  12.801 -1.1232  1.3338  0.1415
15536TIP3   OH268098   3.927   6.178   0.038 -0.6306 -0.1066  0.2412
15536TIP3    H168099   3.919   6.154   0.130 -0.7827 -2.5354 -0.3447
15536TIP3    H268100   4.021   6.182   0.022 -0.6021 -0.2755  0.3640
15537TIP3   OH268101   5.958   2.568   5.145 -0.2849  0.6176  0.2973
15537TIP3    H168102   5.950   2.576   5.240 -1.7248 -0.0709  0.2611
15537TIP3    H268103   5.880   2.520   5.118  0.8509 -0.5814 -1.0657
15538TIP3   OH268104   1.291   1.062  16.345 -0.5185  0.5826  0.1560
15538TIP3    H168105   1.198   1.042  16.334 -0.3263  0.2187 -0.8881
15538TIP3    H268106   1.302   1.147  16.303  0.1096 -0.5612 -2.1684
15539TIP3   OH268107   2.340   1.753   1.238 -0.1191 -0.1697  0.3453
15539TIP3    H168108   2.342   1.753   1.142 -2.1792 -1.0458  0.2391
15539TIP3    H268109   2.270   1.692   1.260 -0.7466  1.1805  2.3846
15540TIP3   OH268110   1.193   5.195   4.475 -0.2146 -0.2961 -0.0069
15540TIP3    H168111   1.281   5.230   4.466  0.4713 -2.3560 -2.3337
15540TIP3    H268112   1.172   5.207   4.568  2.0212  1.2517  0.3863
15541TIP3   OH268113   2.328   5.430   5.859 -0.4551  0.3294  0.1216
15541TIP3    H168114   2.235   5.446   5.843 -0.7931 -1.7470 -0.2891
15541TIP3    H268115   2.340   5.447   5.952 -1.1932  0.7860  0.1435
15542TIP3   OH268116   1.824   0.958   5.107  0.0949 -0.2512  0.3239
15542TIP3    H168117   1.809   0.881   5.162 -1.3559  0.3908  0.8715
15542TIP3    H268118   1.843   1.029   5.169 -0.6886  0.2880 -0.0388
15543TIP3   OH268119   6.431   0.561   4.892 -0.6638  0.3031 -0.0715
15543TIP3    H168120   6.417   0.502   4.818  0.4859 -1.4020  1.0208
15543TIP3    H268121   6.372   0.635   4.874 -1.4999 -0.7293 -1.9216
15544TIP3   OH268122   0.546   0.237   2.026  0.2018  0.1607 -0.5056
15544TIP3    H168123   0.605   0.162   2.016  1.8430  1.2915  0.1998
15544TIP3    H268124   0.493   0.237   1.946 -0.1567 -1.9624 -0.3361
15545TIP3   OH268125   3.835   2.989   2.159 -0.1742 -0.2042  0.1852
15545TIP3    H168126   3.918   2.959   2.121  0.5722  0.7874  0.9825
15545TIP3    H268127   3.821   3.076   2.122  0.0892  0.3858  1.4010
15546TIP3   OH268128   1.075   0.287   4.786  0.8034 -0.0953 -0.2714
15546TIP3    H168129   1.091   0.303   4.879 -1.3996 -0.7282  0.2766
15546TIP3    H268130   1.046   0.371   4.752 -0.9767 -0.4275  0.2875
15547TIP3   OH268131   5.452   2.952  13.770  0.3797 -0.2202 -0.1108
15547TIP3    H168132   5.405   2.897  13.833 -1.4187  0.1666 -1.0723
15547TIP3    H268133   5.545   2.937  13.791 -0.1249 -0.0056  2.7092
15548TIP3   OH268134   1.637   5.339   3.498 -0.2253  0.3037 -0.0549
15548TIP3    H168135   1.560   5.383   3.532  1.3516  1.6863  1.9664
15548TIP3    H268136   1.638   5.254   3.541 -0.4681  0.3759  0.0939
15549TIP3   OH268137   1.537   5.010   0.436  0.0083  0.3286  0.1437
15549TIP3    H168138   1.523   4.923   0.398  0.7036 -0.0208  0.6718
15549TIP3    H268139   1.462   5.061   0.405 -0.0594 -0.2648 -0.7323
15550TIP3   OH268140   2.704   3.951   2.097 -0.1703  0.0973 -0.0435
15550TIP3    H168141   2.792   3.978   2.125  0.3044 -1.1837 -0.2224
15550TIP3    H268142   2.645   4.011   2.143  0.7699  0.6248  0.5199
15551TIP3   OH268143   0.907   6.118  10.211 -0.6705 -0.0499  0.4500
15551TIP3    H168144   0.987   6.110  10.159 -1.0534 -0.6454 -0.0573
15551TIP3    H268145   0.900   6.035  10.257 -0.7472  0.1827  0.8667
15552TIP3   OH268146   1.344   3.406   0.880 -0.1257  0.2032 -0.1910
15552TIP3    H168147   1.291   3.328   0.861  1.9385 -1.0879 -1.0164
15552TIP3    H268148   1.404   3.412   0.805  1.0286  1.4651  0.7948
15553TIP3   OH268149   3.940   1.445   0.324 -0.2611  0.0402 -0.1059
15553TIP3    H168150   3.898   1.521   0.281 -1.0170 -0.2862  0.0351
15553TIP3    H268151   3.947   1.380   0.255  0.6754  0.3369 -0.3049
15554TIP3   OH268152   6.196   2.312   1.943  0.5693 -0.2152  0.0563
15554TIP3    H168153   6.131   2.316   1.873  0.6874 -0.5273 -0.0693
15554TIP3    H268154   6.146   2.333   2.023  0.8191  2.3121 -0.3523
15555TIP3   OH268155   6.128   0.874  15.190  0.5962  0.0479 -0.4825
15555TIP3    H168156   6.121   0.785  15.157  0.7454 -0.3934  0.6468
15555TIP3    H268157   6.038   0.908  15.187  0.2819 -0.6648  0.4946
15556TIP3   OH268158   5.826   2.144  14.511 -0.0523  0.2843 -0.0355
15556TIP3    H168159   5.803   2.080  14.579  0.4634 -0.1009 -0.2126
15556TIP3    H268160   5.919   2.129  14.495  0.5501  2.3107  1.2000
15557TIP3   OH268161   5.613   0.279  13.584  0.4712 -0.1783  0.6123
15557TIP3    H168162   5.567   0.362  13.592  2.3638  0.9602  0.2639
15557TIP3    H268163   5.550   0.220  13.543 -0.6696  1.2947  0.1912
15558TIP3   OH268164   1.521   4.117   3.748  0.5130 -0.4144 -0.0527
15558TIP3    H168165   1.614   4.107   3.770  0.5407  0.4092  0.2523
15558TIP3    H268166   1.485   4.028   3.754  1.6038 -1.0268 -1.7518
15559TIP3   OH268167   2.156   2.624   2.336  0.7134 -0.0135 -0.1317
15559TIP3    H168168   2.140   2.695   2.398  1.0967 -1.3132  1.5501
15559TIP3    H268169   2.075   2.617   2.285 -0.1540  0.2075  1.1796
15560TIP3   OH268170   2.073   5.069   5.453 -0.8734  0.5718 -0.1647
15560TIP3    H168171   2.159   5.086   5.414 -1.0142  0.2633 -0.6138
15560TIP3    H268172   2.082   5.099   5.544  0.0263 -0.4202  0.0937
15561TIP3   OH268173   0.158   0.244  12.761 -0.0698 -0.2732  0.6546
15561TIP3    H168174   0.223   0.230  12.830  0.0749 -0.9791  0.3899
15561TIP3    H268175   0.163   0.164  12.708 -0.2737  0.2004 -0.0921
15562TIP3   OH268176   0.006   5.214  17.121 -0.1384  1.0264  0.0671
15562TIP3    H168177  -0.005   5.122  17.096  0.6996  0.7693  0.5836
15562TIP3    H268178  -0.030   5.263  17.048 -1.3850  0.2905  0.1624
15563TIP3   OH268179   5.217   5.528   1.743  0.0885  0.0757 -0.1149
15563TIP3    H168180   5.218   5.578   1.825 -0.0772 -0.1707  0.0404
15563TIP3    H268181   5.278   5.574   1.686  2.7576 -1.5424  1.2166
15564TIP3   OH268182   5.702   4.828   5.846 -0.2088 -0.1330  0.3418
15564TIP3    H168183   5.665   4.830   5.758  0.4926  1.0510  0.0536
15564TIP3    H268184   5.627   4.834   5.904 -0.6279 -0.2561 -0.1787
15565TIP3   OH268185   5.589   6.713   0.442 -0.5675 -0.3038  0.0205
15565TIP3    H168186   5.559   6.713   0.533  0.6170 -1.3275  0.4458
15565TIP3    H268187   5.517   6.671   0.394 -1.2985  0.4409  0.4211
15566TIP3   OH268188   2.902   5.799   2.026 -0.3849 -0.5079  0.0515
15566TIP3    H168189   2.831   5.798   1.961 -0.0470  1.6345 -0.4517
15566TIP3    H268190   2.963   5.732   1.996 -0.9885 -0.6197 -0.9756
15567TIP3   OH268191   2.266   4.961   3.181 -0.0672 -0.3203 -0.1417
15567TIP3    H168192   2.186   4.939   3.133 -0.9825  1.6714  0.3695
15567TIP3    H268193   2.335   4.911   3.137 -1.4659 -1.5103 -1.0626
15568TIP3   OH268194   5.938   4.372   1.781  0.2606 -0.0952 -0.0706
15568TIP3    H168195   5.997   4.372   1.706 -1.7218 -0.8929 -1.7541
15568TIP3    H268196   5.956   4.290   1.826  0.7155 -0.1348 -0.3184
15569TIP3   OH268197   6.707   3.899   6.251  0.5018  0.0289  1.0717
15569TIP3    H168198   6.700   3.807   6.277 -1.4729  0.9720  4.4849
15569TIP3    H268199   6.707   3.948   6.333  0.7078  3.1739 -0.6300
15570TIP3   OH268200   1.945   4.954   2.044  0.7540  0.1911 -0.4283
15570TIP3    H168201   1.958   5.021   2.111 -1.8445  1.9284 -1.4714
15570TIP3    H268202   1.949   5.001   1.961 -3.6732 -0.2335 -1.1331
15571TIP3   OH268203   4.050   5.273  17.122  0.0206 -0.1235 -0.0625
15571TIP3    H168204   4.039   5.181  17.146 -0.1311  0.1045  0.7475
15571TIP3    H268205   4.067   5.271  17.027 -0.5081 -0.9441 -0.1447
15572TIP3   OH268206   1.151   4.966   3.948  0.6730 -0.4780  0.0315
15572TIP3    H168207   1.061   4.996   3.953  0.7847  0.1305 -1.1939
15572TIP3    H268208   1.199   5.024   4.007  0.5029  0.2135 -0.4998
15573TIP3   OH268209   0.065   1.732   3.969  0.4423  0.0357  0.1517
15573TIP3    H168210   0.007   1.684   4.027  0.3346 -1.0443 -0.8003
15573TIP3    H268211   0.069   1.820   4.005 -1.0700 -0.1117  0.7370
15574TIP3   OH268212   0.748   6.215   4.950  0.3821 -0.2431  0.2674
15574TIP3    H168213   0.664   6.257   4.966 -0.4495 -1.3521 -0.9723
15574TIP3    H268214   0.755   6.210   4.855  1.9484 -0.0338  0.3342
15575TIP3   OH268215   6.420   0.389  14.724  0.7653 -0.2272  0.0060
15575TIP3    H168216   6.370   0.453  14.775  1.3479  0.6022 -0.4507
15575TIP3    H268217   6.494   0.366  14.780 -0.4580 -2.0192  1.0017
15576TIP3   OH268218   2.583   1.180   3.026  0.3111 -0.3152 -0.0696
15576TIP3    H168219   2.604   1.196   2.934  0.7148 -0.3001  0.0196
15576TIP3    H268220   2.513   1.242   3.047  1.4485  0.9599  0.1138
15577TIP3   OH268221   0.009   4.366   4.925 -0.8690 -0.3327 -0.3122
15577TIP3    H168222   0.095   4.407   4.926 -1.0624  0.2352 -2.3778
15577TIP3    H268223   0.018   4.289   4.980  1.1686 -0.6599 -1.0367
15578TIP3   OH268224   6.162   4.236   0.483 -0.0369  0.4224 -0.1098
15578TIP3    H168225   6.200   4.321   0.503 -0.0503  0.1759  1.0545
15578TIP3    H268226   6.152   4.193   0.568 -0.7849 -0.4262 -0.5961
15579TIP3   OH268227   4.979   6.386   1.536 -0.6569  0.3433  0.3438
15579TIP3    H168228   5.034   6.441   1.592 -1.0997  0.0701  1.0620
15579TIP3    H268229   5.028   6.305   1.526 -0.7988  0.2021  0.7612
15580TIP3   OH268230   2.935   2.927  12.390  0.1066  0.7374  0.3302
15580TIP3    H168231   2.940   2.840  12.429  0.8518  0.1640 -0.9679
15580TIP3    H268232   2.959   2.987  12.460  1.7412 -0.2820  0.6919
15581TIP3   OH268233   4.397   0.994  11.475  0.6192  0.2535  0.4933
15581TIP3    H168234   4.463   0.940  11.431 -1.0040 -1.9529  0.6266
15581TIP3    H268235   4.399   1.077  11.428  1.5121 -0.7344 -1.3210
15582TIP3   OH268236   4.793   2.369  16.912 -0.4883  0.4529  0.5844
15582TIP3    H168237   4.886   2.377  16.893 -0.7179 -0.4610 -1.2142
15582TIP3    H268238   4.756   2.334  16.831 -2.5773  1.8602  0.8496
15583TIP3   OH268239   2.477   0.097   3.582 -0.3012  0.0748 -0.5661
15583TIP3    H168240   2.431   0.167   3.536 -0.8069 -0.6984 -1.2672
15583TIP3    H268241   2.489   0.130   3.671 -1.0618  0.8079 -0.7289
15584TIP3   OH268242   0.615   4.260  14.097  0.1797  0.0379 -0.0968
15584TIP3    H168243   0.668   4.208  14.158 -1.1423 -0.3818  0.7410
15584TIP3    H268244   0.558   4.197  14.054  0.2138  0.5080 -0.8522
15585TIP3   OH268245   5.147   3.387   4.996 -0.2001 -0.4349  0.2556
15585TIP3    H168246   5.092   3.369   4.920 -0.7917  1.1809  0.2771
15585TIP3    H268247   5.154   3.302   5.040 -2.6110 -0.7449  0.2000
15586TIP3   OH268248   4.301   4.161  16.900  0.3542  0.0851 -0.7352
15586TIP3    H168249   4.364   4.107  16.947  1.6289  1.6848 -0.5055
15586TIP3    H268250   4.224   4.106  16.890  1.1814 -1.3506  0.4874
15587TIP3   OH268251   1.564   1.613   3.984 -0.2650  0.2281  0.0318
15587TIP3    H168252   1.511   1.548   3.938 -1.3877  1.9527 -1.2457
15587TIP3    H268253   1.645   1.618   3.933 -1.0778  1.3615 -1.2356
15588TIP3   OH268254   6.471   3.230   1.617 -0.0781 -0.4160  0.5337
15588TIP3    H168255   6.396   3.172   1.603 -0.1711 -0.3774  0.8663
15588TIP3    H268256   6.547   3.174   1.602 -0.1560 -0.9213  1.9550
15589TIP3   OH268257   2.381   1.272   6.179  0.1513  0.3253  0.3547
15589TIP3    H168258   2.325   1.196   6.168 -0.0690  0.7478 -1.9458
15589TIP3    H268259   2.321   1.347   6.173  0.7916  0.7494 -1.0983
15590TIP3   OH268260   5.632   2.495   1.873 -0.6227 -0.5670 -0.1469
15590TIP3    H168261   5.578   2.444   1.812 -0.4324  0.7997 -1.5125
15590TIP3    H268262   5.708   2.521   1.821 -1.9923  3.4717 -0.5178
15591TIP3   OH268263   4.557   0.787  12.897  0.1128 -0.2227 -0.2548
15591TIP3    H168264   4.616   0.718  12.926  1.5925  1.4197  0.9088
15591TIP3    H268265   4.571   0.793  12.803  1.3556 -0.3231 -0.0987
15592TIP3   OH268266   5.718   1.744   4.289 -0.6374  0.2660 -0.8026
15592TIP3    H168267   5.637   1.796   4.283  0.1581  1.5426 -0.7655
15592TIP3    H268268   5.775   1.782   4.222  1.6521  2.5683  2.1675
15593TIP3   OH268269   0.924   5.492  12.177 -0.0607 -0.4068  0.2482
15593TIP3    H168270   0.887   5.436  12.108 -0.9100  1.2167 -0.6818
15593TIP3    H268271   0.848   5.518  12.229  0.5144 -1.2255  1.5187
15594TIP3   OH268272   0.872   0.480   6.519 -0.0521 -1.0228  0.4016
15594TIP3    H168273   0.844   0.394   6.489 -0.6257 -0.6139 -0.2561
15594TIP3    H268274   0.968   0.477   6.514 -0.0647 -1.6300  0.4284
15595TIP3   OH268275   5.950   4.700   0.415 -0.2127  0.0201 -0.4567
15595TIP3    H168276   5.876   4.741   0.371 -0.0234  1.2424  0.3035
15595TIP3    H268277   6.026   4.751   0.387  0.1925 -0.5439 -0.3936
15596TIP3   OH268278   4.648   0.851  11.386  0.1892  0.2964 -0.1756
15596TIP3    H168279   4.688   0.798  11.454  0.0438 -0.5364 -0.7255
15596TIP3    H268280   4.687   0.938  11.397 -0.2810  0.3465  1.3352
15597TIP3   OH268281   2.208   3.478  12.262  0.2507  0.1569 -0.0130
15597TIP3    H168282   2.187   3.510  12.350 -0.0643  1.7091 -0.6170
15597TIP3    H268283   2.125   3.485  12.214  0.9892  1.8689 -1.1359
15598TIP3   OH268284   1.021   5.655   0.016  0.0424 -0.0034  0.2287
15598TIP3    H168285   1.060   5.573  -0.015  1.8268  0.8464  0.1529
15598TIP3    H268286   1.094   5.706   0.050 -0.7610  2.2314 -1.1779
15599TIP3   OH268287   3.791   2.125   4.437 -0.0719 -0.0355  0.6227
15599TIP3    H168288   3.780   2.048   4.492  0.0789  1.2502  2.5573
15599TIP3    H268289   3.706   2.139   4.396 -0.1697 -1.0470  0.4597
15600TIP3   OH268290   4.183   2.699   4.045 -0.1047 -0.0385  0.3290
15600TIP3    H168291   4.235   2.746   3.980  0.7623 -1.6506 -0.1984
15600TIP3    H268292   4.243   2.632   4.080 -1.7804 -1.9962 -0.3394
15601TIP3   OH268293   4.113   2.461  13.813 -0.3050  0.4988 -0.3624
15601TIP3    H168294   4.167   2.383  13.825 -1.5948 -0.6480 -1.7653
15601TIP3    H268295   4.056   2.463  13.890 -1.9721 -1.4069 -1.4639
15602TIP3   OH268296   2.471   5.318   5.435  0.0159 -0.6151 -0.1270
15602TIP3    H168297   2.420   5.240   5.412 -0.7159 -0.1953  0.0150
15602TIP3    H268298   2.523   5.337   5.357  1.2802 -2.0572  0.3297
15603TIP3   OH268299   6.017   4.447  11.752  0.1514 -0.2537 -0.3365
15603TIP3    H168300   6.035   4.428  11.660  0.4867 -0.8079 -0.1601
15603TIP3    H268301   6.065   4.528  11.769  0.2945 -0.2865 -0.5819
15604TIP3   OH268302   4.017   5.792  14.184  1.1561  0.1553  0.5666
15604TIP3    H168303   3.964   5.713  14.180 -0.3700  1.1626 -1.7882
15604TIP3    H268304   3.961   5.857  14.226  2.1652  0.1695  1.9374
15605TIP3   OH268305   1.228   1.144   3.730  0.3308 -0.3361  0.7759
15605TIP3    H168306   1.288   1.215   3.708 -0.0064 -0.4395 -0.5669
15605TIP3    H268307   1.233   1.137   3.825  1.0912  0.8425  0.8435
15606TIP3   OH268308   4.680   6.057  14.176  0.2268 -0.4635  0.2435
15606TIP3    H168309   4.625   6.111  14.119  0.4349 -0.0923  0.3869
15606TIP3    H268310   4.621   6.029  14.246  0.3661  0.5040  0.7724
15607TIP3   OH268311   6.451   0.999   2.254  0.2379 -0.1929  0.0064
15607TIP3    H168312   6.412   0.998   2.167 -0.3596  1.9315  0.2152
15607TIP3    H268313   6.400   0.934   2.303 -1.7510  1.0757 -0.2814
15608TIP3   OH268314   3.876   2.755  15.397 -0.5556 -0.3255 -0.7762
15608TIP3    H168315   3.788   2.791  15.388 -0.5645 -0.5192 -1.5238
15608TIP3    H268316   3.874   2.707  15.480 -0.7348  0.8206 -0.1027
15609TIP3   OH268317   4.162   0.818  11.961  0.0383 -0.0902 -0.0453
15609TIP3    H168318   4.211   0.900  11.970  0.6635 -0.4403 -0.2110
15609TIP3    H268319   4.073   0.846  11.937 -0.1145  0.5960  1.1986
15610TIP3   OH268320   4.422   3.269  11.562 -0.5539  0.0526 -1.0257
15610TIP3    H168321   4.381   3.353  11.540 -1.3837 -0.3147 -0.8881
15610TIP3    H268322   4.512   3.293  11.586 -0.4282  0.7674 -2.1126
15611TIP3   OH268323   3.961   1.476   5.305 -0.6439  0.2791  0.1313
15611TIP3    H168324   3.930   1.446   5.220 -1.0609  0.8292  0.0867
15611TIP3    H268325   3.882   1.497   5.354 -0.3630  1.1756  0.2106
15612TIP3   OH268326   1.723   1.264  12.058 -0.6381 -0.2712 -0.0192
15612TIP3    H168327   1.724   1.269  12.154 -0.6783  0.5692 -0.0509
15612TIP3    H268328   1.639   1.223  12.037 -0.3695 -1.0147  0.3187
15613TIP3   OH268329   1.203   5.792  12.188  0.3405  0.6903 -0.1509
15613TIP3    H168330   1.122   5.756  12.153 -1.5751  1.0217  3.3740
15613TIP3    H268331   1.243   5.839  12.115 -2.2706 -0.1057 -2.2314
15614TIP3   OH268332   3.725   5.875   5.707 -0.4265  0.4930  0.1309
15614TIP3    H168333   3.722   5.797   5.762  0.3212  0.1362 -0.3204
15614TIP3    H268334   3.640   5.917   5.719 -1.1796 -0.8740 -0.3136
15615TIP3   OH268335   3.204   2.490   1.093 -0.4333  0.4238  0.0999
15615TIP3    H168336   3.111   2.479   1.071 -0.4114  0.8354 -0.2083
15615TIP3    H268337   3.204   2.513   1.185 -0.7329  1.8006 -0.2250
15616TIP3   OH268338   1.908   3.470   0.852  0.1860 -0.3206  0.5827
15616TIP3    H168339   1.974   3.535   0.876  2.2589 -1.4476 -1.5737
15616TIP3    H268340   1.904   3.474   0.756 -3.0553 -0.2418  0.6164
15617TIP3   OH268341   5.644   5.612  11.974  0.1291  0.1544  0.0848
15617TIP3    H168342   5.652   5.584  12.066  0.3121  1.2565  0.4165
15617TIP3    H268343   5.707   5.684  11.966  0.5276 -0.3103 -1.0632
15618TIP3   OH268344   0.914   6.633  13.767 -0.1112 -0.3923 -0.2718
15618TIP3    H168345   0.820   6.625  13.750 -0.5102  0.6087  1.2541
15618TIP3    H268346   0.920   6.699  13.836  1.6669 -1.0801  0.2745
15619TIP3   OH268347   4.337   1.034   1.713  0.1967  0.3862  0.2358
15619TIP3    H168348   4.329   1.087   1.792 -1.8896  0.3845  0.0877
15619TIP3    H268349   4.246   1.016   1.687  0.8260  0.0884 -1.9652
15620TIP3   OH268350   3.132   4.097   6.107  0.0724 -0.4655  0.0313
15620TIP3    H168351   3.058   4.039   6.125  1.0162 -1.0182  2.5539
15620TIP3    H268352   3.205   4.037   6.088  0.6441 -0.0871  0.9395
15621TIP3   OH268353   6.232   3.734  16.752 -0.5404  0.0382 -0.4108
15621TIP3    H168354   6.188   3.787  16.819  1.1136  1.1371 -0.1315
15621TIP3    H268355   6.237   3.791  16.676 -1.6502 -0.9113 -1.2318
15622TIP3   OH268356   4.233   4.562  12.059  0.6586  0.3996 -0.1172
15622TIP3    H168357   4.138   4.577  12.056  0.6486  0.3812  0.1247
15622TIP3    H268358   4.259   4.561  11.967  0.0785 -1.6827 -0.3097
15623TIP3   OH268359   2.058   6.583  15.216 -0.6052  0.2360  0.2783
15623TIP3    H168360   2.015   6.654  15.264 -0.5437 -0.0557  0.7763
15623TIP3    H268361   2.008   6.505  15.240  0.4510 -0.1762  1.1971
15624TIP3   OH268362   6.115   1.843  16.300  0.1717 -0.7380  0.0203
15624TIP3    H168363   6.161   1.924  16.322 -0.6995 -0.8564  2.7032
15624TIP3    H268364   6.163   1.807  16.227  3.4361 -0.0965  1.6760
15625TIP3   OH268365   5.273   2.746  12.384 -0.0444  0.6917  0.4063
15625TIP3    H168366   5.205   2.760  12.318 -1.3845 -0.8525  1.3783
15625TIP3    H268367   5.297   2.654  12.375  2.4072  1.3164 -0.2837
15626TIP3   OH268368   4.571   4.918   3.923 -0.3955  0.0271  0.5932
15626TIP3    H168369   4.649   4.862   3.930  0.0553  0.2920 -1.4122
15626TIP3    H268370   4.600   4.990   3.867 -1.3862  1.5228  1.9440
15627TIP3   OH268371   6.559   3.593   1.301  0.0726  0.0675 -0.3558
15627TIP3    H168372   6.486   3.650   1.324 -0.6452  0.1259 -2.5164
15627TIP3    H268373   6.518   3.511   1.275  1.0417 -1.2087  1.8260
15628TIP3   OH268374   3.923   5.372  14.411  0.1364 -0.3045 -0.1101
15628TIP3    H168375   3.869   5.293  14.404  0.2540 -0.4721  0.6881
15628TIP3    H268376   3.887   5.418  14.487  0.2267  0.2826 -0.4271
15629TIP3   OH268377   1.647   0.592  13.040 -0.0694 -0.0511  0.4185
15629TIP3    H168378   1.656   0.559  12.951  0.9295 -2.8291  1.4570
15629TIP3    H268379   1.574   0.543  13.077  0.2390  0.2661  1.4722
15630TIP3   OH268380   0.737   3.412   3.698  0.5967  0.2585  0.4310
15630TIP3    H168381   0.736   3.479   3.766  0.2204 -2.0102  2.8403
15630TIP3    H268382   0.657   3.361   3.713 -0.2329  0.4494 -2.6701
15631TIP3   OH268383   4.860   1.851  16.559  0.0598  0.2643 -0.7226
15631TIP3    H168384   4.799   1.882  16.626  0.3180 -2.5185  0.9636
15631TIP3    H268385   4.947   1.872  16.595  0.1786 -0.2034 -0.7295
15632TIP3   OH268386   0.436   5.617   5.105  0.0052  0.4349 -0.2394
15632TIP3    H168387   0.528   5.616   5.077  0.4937 -1.1187  1.1872
15632TIP3    H268388   0.392   5.555   5.046  0.6978 -1.6128  1.2545
15633TIP3   OH268389   2.825   2.578  15.504 -0.4826 -0.4066 -0.2654
15633TIP3    H168390   2.867   2.521  15.569 -1.4686 -2.5036 -1.3401
15633TIP3    H268391   2.751   2.526  15.472 -0.7117  1.0263 -2.2206
15634TIP3   OH268392   1.566   2.843   5.797 -0.4842 -0.1476  0.7723
15634TIP3    H168393   1.532   2.840   5.887 -2.0159 -1.7309  0.1890
15634TIP3    H268394   1.558   2.935   5.772 -1.0601  0.1266  1.8770
15635TIP3   OH268395   3.702   1.661   3.568 -0.0342  0.0651  0.2065
15635TIP3    H168396   3.626   1.670   3.511 -0.2808  1.2400  0.6796
15635TIP3    H268397   3.707   1.745   3.615 -0.5065 -1.1939  2.7069
15636TIP3   OH268398   6.778   5.276   2.489 -0.2827 -0.4358  0.4507
15636TIP3    H168399   6.701   5.293   2.435  0.0099  2.4395  0.7534
15636TIP3    H268400   6.743   5.239   2.570 -1.0814 -1.3265 -0.2830
15637TIP3   OH268401   1.112   5.421  16.057 -0.2116 -0.4693  0.0044
15637TIP3    H168402   1.143   5.511  16.070  0.6155 -0.6798 -0.4230
15637TIP3    H268403   1.101   5.386  16.145 -0.4465  0.0136  0.1735
15638TIP3   OH268404   5.057   3.245   2.516  0.0825  0.2170 -0.1976
15638TIP3    H168405   5.028   3.157   2.493 -2.5036  0.8586  0.2130
15638TIP3    H268406   5.076   3.241   2.609 -0.3225  0.1286 -0.1141
15639TIP3   OH268407   4.995   5.947   4.987 -0.4474 -0.1663 -0.6362
15639TIP3    H168408   4.994   5.854   4.963  0.7752 -0.6822  1.0808
15639TIP3    H268409   5.076   5.980   4.950 -0.6302  0.0984 -0.8027
15640TIP3   OH268410   6.663   4.209   0.523 -0.3956  0.2167 -0.0982
15640TIP3    H168411   6.616   4.137   0.481 -2.2397  2.0009 -1.3029
15640TIP3    H268412   6.685   4.176   0.610  0.4585 -2.4065 -1.1995
15641TIP3   OH268413   1.204   5.826  11.096 -0.5101  0.0380  0.0458
15641TIP3    H168414   1.221   5.882  11.020 -1.5374 -1.1899 -1.1452
15641TIP3    H268415   1.125   5.864  11.136  0.5207  1.2093  1.0845
15642TIP3   OH268416   1.128   0.185  14.785  0.1768  0.1032  0.3531
15642TIP3    H168417   1.216   0.222  14.788 -0.7181  2.5988 -1.0846
15642TIP3    H268418   1.135   0.109  14.728  1.2212  0.9661 -0.7072
15643TIP3   OH268419   2.078   0.629  13.843  0.2954  0.0748  0.0687
15643TIP3    H168420   2.150   0.651  13.783  1.0168  0.3043  0.9997
15643TIP3    H268421   2.052   0.712  13.881  0.7733 -0.2345  1.0961
15644TIP3   OH268422   4.815   0.035   1.351 -0.5671  0.0532 -0.3866
15644TIP3    H168423   4.861  -0.022   1.290 -2.1992 -1.2702 -0.4637
15644TIP3    H268424   4.763   0.093   1.296 -0.7021  0.0244 -0.2925
15645TIP3   OH268425   6.401   4.660   6.614 -0.1055  0.1075  0.0276
15645TIP3    H168426   6.420   4.737   6.560  1.0789 -0.3704 -0.2715
15645TIP3    H268427   6.311   4.636   6.590 -0.0368  0.6399 -0.8214
15646TIP3   OH268428   0.600   2.579  15.435  0.0721  0.4818  0.1189
15646TIP3    H168429   0.668   2.516  15.409  2.2147  3.1852 -1.3899
15646TIP3    H268430   0.620   2.599  15.526 -0.0582 -0.2982  0.3277
15647TIP3   OH268431   6.418   3.108   5.732 -0.5741  0.3427  0.4582
15647TIP3    H168432   6.421   3.039   5.799  1.9119  0.8209  0.9276
15647TIP3    H268433   6.441   3.188   5.778  0.8002  0.7571 -0.8658
15648TIP3   OH268434   1.218   1.077  16.925 -0.3916 -0.3706 -0.1923
15648TIP3    H168435   1.269   1.018  16.869  0.3151 -0.2542  0.3148
15648TIP3    H268436   1.131   1.077  16.886 -1.5419 -4.6228  1.7742
15649TIP3   OH268437   5.116   5.189   6.780  0.3216 -0.3987 -0.3577
15649TIP3    H168438   5.159   5.248   6.719 -0.1361  0.2648 -0.0490
15649TIP3    H268439   5.173   5.189   6.857  1.6179 -2.2880 -1.2504
15650TIP3   OH268440   4.544   5.232   0.790 -0.0206 -0.1016  0.5182
15650TIP3    H168441   4.561   5.315   0.747 -1.1670 -0.2464 -0.2500
15650TIP3    H268442   4.464   5.199   0.749 -0.2239 -1.0386  1.6031
15651TIP3   OH268443   5.372   1.986  15.177  0.1151 -0.6951 -0.8270
15651TIP3    H168444   5.466   1.994  15.160  0.2278 -0.2053 -0.0145
15651TIP3    H268445   5.341   1.926  15.109  0.7603  0.1934 -1.9491
15652TIP3   OH268446   2.785   3.246   1.934 -0.8110 -0.4383 -0.1332
15652TIP3    H168447   2.750   3.217   1.849 -1.8529  0.6070 -0.0787
15652TIP3    H268448   2.879   3.228   1.928 -0.9064 -0.6310 -1.4105
15653TIP3   OH268449   4.842   5.956  15.410 -0.3113 -0.0812  0.2921
15653TIP3    H168450   4.811   5.923  15.325 -0.7273 -1.8086  1.0642
15653TIP3    H268451   4.872   6.045  15.392 -0.2806 -0.4461 -1.6834
15654TIP3   OH268452   5.346   0.534   2.104 -0.2290  0.0605  0.1483
15654TIP3    H168453   5.432   0.498   2.122 -0.3693 -0.3704 -0.0268
15654TIP3    H268454   5.352   0.569   2.015 -0.1006  0.4474  0.3079
15655TIP3   OH268455   6.383   0.795   5.182 -0.3844 -0.1288  0.1279
15655TIP3    H168456   6.388   0.805   5.087  1.4338 -0.6129  0.1314
15655TIP3    H268457   6.474   0.795   5.211 -0.7707 -2.4212  1.6081
15656TIP3   OH268458   5.923   1.998  16.808 -0.3044  0.4505  0.1846
15656TIP3    H168459   5.947   1.958  16.725  0.9333  0.0863  0.6814
15656TIP3    H268460   5.963   1.941  16.874 -1.4457  0.6072  1.0399
15657TIP3   OH268461   5.664   1.236  11.672  0.2535 -0.0317 -0.5376
15657TIP3    H168462   5.584   1.219  11.622  0.4108  0.2664 -0.8925
15657TIP3    H268463   5.735   1.225  11.609  0.4876 -0.1489 -0.2590
15658TIP3   OH268464   5.718   2.083  10.393 -0.1175  0.1977  0.1305
15658TIP3    H168465   5.810   2.061  10.402 -0.4250 -1.0398  0.3989
15658TIP3    H268466   5.680   2.008  10.346 -1.1539  0.2621  0.8342
15659TIP3   OH268467   4.266   5.473   2.119 -0.3524  0.2089  0.2036
15659TIP3    H168468   4.276   5.526   2.039 -0.3981 -0.2370 -0.1031
15659TIP3    H268469   4.311   5.522   2.187  2.3266 -0.8116 -0.7191
15660TIP3   OH268470   3.555   6.563   3.189  0.0883  0.1955 -0.1452
15660TIP3    H168471   3.540   6.484   3.241  1.5109  0.5342  0.8499
15660TIP3    H268472   3.470   6.584   3.151 -0.6922 -0.8441  0.9654
15661TIP3   OH268473   1.878   0.941  11.293  0.3476 -0.1517 -0.7709
15661TIP3    H168474   1.925   1.024  11.303  2.9971 -1.5398 -0.8953
15661TIP3    H268475   1.812   0.960  11.226  0.4891  1.9917 -0.3867
15662TIP3   OH268476   1.792   0.742   3.042 -0.0504  0.5582  0.2921
15662TIP3    H168477   1.769   0.746   2.950  0.7983  3.2809  0.1148
15662TIP3    H268478   1.856   0.812   3.054  0.0932  0.0900  2.8950
15663TIP3   OH268479   1.287   5.398   5.944 -0.0993  0.7073 -0.1139
15663TIP3    H168480   1.226   5.324   5.942  0.0326  0.6205 -0.9678
15663TIP3    H268481   1.250   5.457   6.010 -1.8010  1.2406 -1.4656
15664TIP3   OH268482   6.803   6.556   2.810 -0.8309  0.3848  0.3920
15664TIP3    H168483   6.793   6.650   2.827  1.7567  0.8208 -0.1132
15664TIP3    H268484   6.777   6.546   2.718  2.1668  1.3531 -0.6918
15665TIP3   OH268485   0.200   0.572  13.693  0.3123 -0.3412 -0.2552
15665TIP3    H168486   0.112   0.610  13.685 -0.0104 -0.5901  1.6812
15665TIP3    H268487   0.248   0.610  13.620 -1.1807  0.4554 -0.8807
15666TIP3   OH268488   2.542   5.689   3.014 -0.3494  0.3875 -0.0186
15666TIP3    H168489   2.568   5.716   3.102 -0.0639  0.3249 -0.0821
15666TIP3    H268490   2.535   5.771   2.964 -0.0999  0.3962 -0.0450
15667TIP3   OH268491   6.732   5.214  15.639  0.1286 -0.2474 -0.2926
15667TIP3    H168492   6.700   5.218  15.548  2.7346  1.7498 -1.2509
15667TIP3    H268493   6.742   5.121  15.657 -0.9552 -0.7148 -1.8435
15668TIP3   OH268494   3.616   4.146  12.436 -0.3300  0.5205 -0.0249
15668TIP3    H168495   3.585   4.065  12.477 -1.1307  0.3071 -1.0098
15668TIP3    H268496   3.589   4.215  12.496  1.3005  0.0104  1.3684
15669TIP3   OH268497   1.366   1.413   3.975  0.5755  0.0538 -0.0268
15669TIP3    H168498   1.304   1.341   3.986 -0.0758  0.6721  0.4664
15669TIP3    H268499   1.314   1.492   3.992  1.3741  0.6168 -0.1388
15670TIP3   OH268500   5.472   1.835  14.770  0.3278 -0.8886 -0.3230
15670TIP3    H168501   5.560   1.799  14.776  0.4321 -0.6592 -0.4537
15670TIP3    H268502   5.483   1.928  14.792 -0.3544 -1.4498  3.0215
15671TIP3   OH268503   2.589   6.669   2.181 -0.3374  0.0385 -0.3416
15671TIP3    H168504   2.518   6.711   2.231  0.9252  0.1526  1.4421
15671TIP3    H268505   2.563   6.680   2.090 -2.8884 -0.4061  0.2464
15672TIP3   OH268506   2.857   4.920  13.261 -0.4049 -0.2329 -0.1030
15672TIP3    H168507   2.807   4.847  13.298 -1.8867  1.8172  2.3464
15672TIP3    H268508   2.917   4.946  13.331  0.4820  0.5551 -1.1148
15673TIP3   OH268509   2.263   2.425  14.045  0.0540 -0.3417 -0.0744
15673TIP3    H168510   2.294   2.456  13.961 -0.8946  0.4993 -0.1343
15673TIP3    H268511   2.335   2.443  14.106  0.9320 -1.3910 -0.7697
15674TIP3   OH268512   6.796   3.972   1.271 -0.2000 -0.0357  0.0002
15674TIP3    H168513   6.779   4.019   1.189  0.6043 -0.4686 -0.4366
15674TIP3    H268514   6.891   3.970   1.278 -0.2629  0.2520  1.1158
15675TIP3   OH268515   3.029   1.906  11.230 -0.3083  0.7039  0.5278
15675TIP3    H168516   3.049   1.987  11.184 -0.0190  2.0919  2.9372
15675TIP3    H268517   3.114   1.861  11.236 -0.3747  0.4339 -0.3568
15676TIP3   OH268518   0.933   2.556   1.431  0.5809  0.1602  0.3032
15676TIP3    H168519   0.958   2.595   1.348 -0.1857  0.3162  0.1443
15676TIP3    H268520   1.008   2.573   1.489  2.3132 -2.2718 -1.0475
15677TIP3   OH268521   3.577   0.433   3.507 -0.4771  0.2694  0.0768
15677TIP3    H168522   3.626   0.446   3.588  0.4342 -3.2756  0.2718
15677TIP3    H268523   3.505   0.375   3.531 -0.9579  0.1859 -1.4221
15678TIP3   OH268524   3.566   4.188  13.924  0.2538  0.1542  0.4300
15678TIP3    H168525   3.524   4.255  13.870  0.1460 -0.4730 -0.2854
15678TIP3    H268526   3.494   4.132  13.953  0.0860  1.3563  2.5542
15679TIP3   OH268527   2.641   5.186  16.749 -0.4324 -0.4439  0.6420
15679TIP3    H168528   2.617   5.095  16.731  1.4216 -1.2722  1.9602
15679TIP3    H268529   2.608   5.202  16.838 -1.3109  0.4041  0.1701
15680TIP3   OH268530   1.527   3.765   3.450  0.7920  0.4608 -0.3032
15680TIP3    H168531   1.498   3.831   3.387 -1.3956  1.6406  1.7860
15680TIP3    H268532   1.485   3.684   3.421  1.8699  0.3613 -1.7249
15681TIP3   OH268533   1.059   5.719  13.720  0.2412  0.3194  0.0014
15681TIP3    H168534   1.153   5.701  13.712  0.4400  1.4329 -0.3545
15681TIP3    H268535   1.043   5.790  13.658 -1.3748 -1.5501 -1.9019
15682TIP3   OH268536   2.139   5.337   6.312 -0.4115  0.3830  0.5314
15682TIP3    H168537   2.229   5.360   6.287  0.1130 -1.3117  0.7194
15682TIP3    H268538   2.088   5.356   6.234  0.1198  1.3013  0.3924
15683TIP3   OH268539   5.330   2.527   5.416  0.1541 -0.0966  0.1206
15683TIP3    H168540   5.296   2.593   5.475 -1.3948  1.0325 -1.8882
15683TIP3    H268541   5.326   2.445   5.465 -1.1718  0.7594  1.5078
15684TIP3   OH268542   4.566   1.730  15.668  0.2665  0.4282 -0.0419
15684TIP3    H168543   4.650   1.726  15.622  0.2826  0.3926 -0.0090
15684TIP3    H268544   4.563   1.819  15.705  2.2688 -0.8178  3.6831
15685TIP3   OH268545   2.219   5.931  15.032 -0.4446  0.2699 -0.6415
15685TIP3    H168546   2.126   5.925  15.010 -0.5093 -0.2439 -0.2624
15685TIP3    H268547   2.242   6.022  15.016 -1.1636  0.5418 -0.1917
15686TIP3   OH268548   4.306   2.424   3.856 -0.0481 -0.1625  0.4200
15686TIP3    H168549   4.359   2.490   3.811 -1.2532  1.6493  1.5457
15686TIP3    H268550   4.359   2.344   3.851  1.3425  0.7811 -1.2309
15687TIP3   OH268551   0.089   3.406  13.335 -0.0951 -0.5731 -0.3808
15687TIP3    H168552   0.048   3.338  13.388  0.3892  0.4806  1.4400
15687TIP3    H268553   0.025   3.424  13.267 -1.1197 -1.4214  0.3160
15688TIP3   OH268554   5.919   1.871  13.188 -0.2415  0.5934 -0.4450
15688TIP3    H168555   5.890   1.957  13.218 -1.1115  0.3899 -0.6883
15688TIP3    H268556   5.886   1.810  13.254 -1.2410  0.2546 -1.2379
15689TIP3   OH268557   3.907   5.750  14.882  0.2302  0.2149 -0.9673
15689TIP3    H168558   3.828   5.704  14.854  0.2246  0.0557 -0.6995
15689TIP3    H268559   3.876   5.820  14.939  0.3071 -0.1420 -0.4768
15690TIP3   OH268560   6.113   0.468   4.503 -0.2300 -0.4847  0.0061
15690TIP3    H168561   6.119   0.493   4.411  3.0003 -1.1044 -0.0664
15690TIP3    H268562   6.079   0.379   4.502 -3.0051  0.4984 -0.3188
15691TIP3   OH268563   2.010   3.600  12.950 -0.1738  0.2736  0.0434
15691TIP3    H168564   1.988   3.692  12.966 -1.3788  0.4085 -2.0179
15691TIP3    H268565   1.940   3.569  12.892 -0.9372 -2.5433  2.2541
15692TIP3   OH268566   6.606   4.350   5.766  0.1716 -0.1834 -0.2536
15692TIP3    H168567   6.685   4.396   5.739 -0.8429  2.3649  0.8815
15692TIP3    H268568   6.599   4.367   5.859 -1.5654 -0.5940 -0.2796
15693TIP3   OH268569   1.184   6.204   0.171  0.3322 -0.8666  0.2595
15693TIP3    H168570   1.147   6.284   0.210  2.0202 -0.1948  0.5727
15693TIP3    H268571   1.206   6.229   0.082 -0.4051 -1.4215 -0.0940
15694TIP3   OH268572   2.572   1.505  14.527 -0.2242 -0.1100 -0.0609
15694TIP3    H168573   2.634   1.568  14.490 -0.5506  1.3023  1.6587
15694TIP3    H268574   2.609   1.419  14.506  1.5142  0.6777 -0.3670
15695TIP3   OH268575   4.590   3.341  12.776 -0.0924 -0.1985  0.1958
15695TIP3    H168576   4.605   3.355  12.869  0.1728 -0.0219  0.1278
15695TIP3    H268577   4.506   3.295  12.772  1.4082 -3.1938  0.6977
15696TIP3   OH268578   4.176   5.892  16.876 -0.4290  0.5304 -0.3627
15696TIP3    H168579   4.087   5.860  16.864  0.2083 -1.7377  0.4216
15696TIP3    H268580   4.231   5.825  16.834  0.9799  0.8180  0.9551
15697TIP3   OH268581   1.424   4.347   1.464  0.2540 -0.3423 -0.0381
15697TIP3    H168582   1.475   4.428   1.465  0.8566 -0.6987 -0.4755
15697TIP3    H268583   1.485   4.282   1.429 -0.2838 -0.9387  0.1191
15698TIP3   OH268584   1.392   2.748   5.023  0.3194 -0.5166 -0.1156
15698TIP3    H168585   1.430   2.660   5.023  0.4328 -0.4683  0.0305
15698TIP3    H268586   1.463   2.805   5.051  0.7947 -0.1273 -1.9981
15699TIP3   OH268587   2.410   0.422  12.367 -0.2728 -0.0624  0.1217
15699TIP3    H168588   2.475   0.364  12.327 -0.6767 -1.3369  1.2492
15699TIP3    H268589   2.407   0.498  12.309  1.4259 -0.4559 -0.5348
15700TIP3   OH268590   4.001   3.318   4.142  0.7721 -0.2856  0.9699
15700TIP3    H168591   3.995   3.268   4.224  0.7057  1.0481  1.8179
15700TIP3    H268592   3.977   3.407   4.168 -0.5960 -0.0921 -0.7801
15701TIP3   OH268593   2.181   1.541   2.359 -0.1238  0.3353 -0.4630
15701TIP3    H168594   2.096   1.520   2.321 -0.1904 -1.1509  0.4427
15701TIP3    H268595   2.232   1.460   2.351  0.5659  0.6313  0.6990
15702TIP3   OH268596   0.174   1.274   1.119 -0.2195  0.6975  0.1325
15702TIP3    H168597   0.219   1.237   1.194  1.2101 -0.8501 -1.3920
15702TIP3    H268598   0.084   1.286   1.148  0.2135 -0.1555  1.9683
15703TIP3   OH268599   0.999   4.285   1.552 -0.6856 -0.5598 -0.3384
15703TIP3    H168600   1.037   4.208   1.594 -0.5611 -0.9565 -1.1637
15703TIP3    H268601   1.062   4.308   1.484  0.4490  1.6415  1.2934
15704TIP3   OH268602   1.442   0.288  13.431 -0.2990 -0.2187 -0.5207
15704TIP3    H168603   1.384   0.255  13.500  1.4373 -0.9104  0.6955
15704TIP3    H268604   1.422   0.234  13.355 -0.5728 -1.1105  0.1652
15705TIP3   OH268605   1.128   6.059   0.747  0.1543 -0.0032 -0.2962
15705TIP3    H168606   1.079   5.995   0.798 -0.5657  1.6356  1.1704
15705TIP3    H268607   1.199   6.008   0.707  0.8347 -1.3921  2.4145
15706TIP3   OH268608   5.511   0.401   4.034 -0.1788  0.1454 -0.0138
15706TIP3    H168609   5.605   0.403   4.052 -0.2996  1.3095  0.6205
15706TIP3    H268610   5.505   0.375   3.942  0.7696  0.1559 -0.0886
15707TIP3   OH268611   6.505   0.626  12.166 -0.0914 -0.1517  0.3382
15707TIP3    H168612   6.600   0.624  12.168 -0.0687  0.8016  0.6682
15707TIP3    H268613   6.478   0.602  12.255 -0.1851 -0.9715  0.1010
15708TIP3   OH268614   4.610   5.962  11.776 -0.4097  0.0449  0.1358
15708TIP3    H168615   4.526   5.930  11.742  0.0248 -2.9273  1.5916
15708TIP3    H268616   4.673   5.944  11.706 -0.6777  0.9178 -0.3605
15709TIP3   OH268617   2.547   4.141   0.579 -0.2134  0.8036 -0.1344
15709TIP3    H168618   2.559   4.167   0.670 -1.4646  1.0488 -0.0282
15709TIP3    H268619   2.531   4.223   0.532  0.0626  0.6417 -0.5176
15710TIP3   OH268620   0.297   1.605  16.955 -0.5773 -0.1813 -0.2280
15710TIP3    H168621   0.367   1.647  16.905  0.7835 -3.3992 -1.3263
15710TIP3    H268622   0.302   1.646  17.042  2.0550  0.4311 -0.5648
15711TIP3   OH268623   3.326   0.378  11.230  0.6528  0.3687 -0.0664
15711TIP3    H168624   3.361   0.348  11.146  0.3234  0.4683 -0.2424
15711TIP3    H268625   3.378   0.455  11.252  1.4602 -0.2805  0.3572
15712TIP3   OH268626   6.479   2.005  11.886  0.0311 -0.2104  0.3164
15712TIP3    H168627   6.504   2.005  11.794  0.9677  0.2101  0.5640
15712TIP3    H268628   6.524   1.929  11.923  0.0262 -0.1098  0.5304
15713TIP3   OH268629   4.519   3.844  13.373  0.2067 -0.1456  0.0558
15713TIP3    H168630   4.458   3.772  13.356  0.5310 -0.5619  0.5915
15713TIP3    H268631   4.474   3.922  13.341  0.5551 -0.7845 -2.1181
15714TIP3   OH268632   1.861   3.408   5.708  0.2307  0.1268 -0.0379
15714TIP3    H168633   1.917   3.475   5.748  0.6660 -1.0817  1.4452
15714TIP3    H268634   1.923   3.342   5.675 -0.1215  0.9570 -2.5796
15715TIP3   OH268635   4.601   3.765   2.377 -0.6016  0.3975 -0.0168
15715TIP3    H168636   4.690   3.791   2.400 -0.5388  1.7122 -1.5929
15715TIP3    H268637   4.610   3.681   2.333 -0.1075  0.6649 -0.4290
15716TIP3   OH268638   6.438   6.545  12.792  0.1924 -0.7257 -0.3113
15716TIP3    H168639   6.424   6.463  12.839  0.8951 -1.1308 -0.7894
15716TIP3    H268640   6.530   6.542  12.766 -0.4279 -1.0030 -2.6247
15717TIP3   OH268641   6.479   4.566   1.507 -0.1327 -0.3505 -0.1046
15717TIP3    H168642   6.535   4.636   1.474  2.8389 -2.2125  0.6174
15717TIP3    H268643   6.449   4.520   1.428 -0.4156  0.4687 -0.4887
15718TIP3   OH268644   2.004   3.809   3.924 -0.2964  0.6448  0.7773
15718TIP3    H168645   2.026   3.845   4.010  0.4407 -0.5230  1.1087
15718TIP3    H268646   1.924   3.759   3.939  0.8686 -1.1826  1.2855
15719TIP3   OH268647   3.010   3.908   6.416 -0.1613  0.0949 -0.3676
15719TIP3    H168648   3.017   3.850   6.340  2.9784 -1.5006  0.9445
15719TIP3    H268649   3.073   3.873   6.479 -0.0545  3.3869  1.6170
15720TIP3   OH268650   1.447   5.361  15.284 -0.2973 -0.1419 -0.4217
15720TIP3    H168651   1.518   5.298  15.294 -0.7473 -0.9668 -1.9759
15720TIP3    H268652   1.378   5.330  15.342  0.1082 -0.1120  0.0767
15721TIP3   OH268653   1.952   3.447   0.164  0.3326  0.0377 -0.1027
15721TIP3    H168654   1.974   3.410   0.079  0.6459  0.2851 -0.1278
15721TIP3    H268655   1.910   3.530   0.145  0.3861  0.0852 -0.0174
15722TIP3   OH268656   5.137   4.011   1.525  0.0135  0.0945  0.1284
15722TIP3    H168657   5.087   4.076   1.476 -2.2754  0.9218  3.2478
15722TIP3    H268658   5.228   4.040   1.516 -0.2453  0.3274 -3.1936
15723TIP3   OH268659   0.429   5.976   1.002 -0.0724  0.5431 -0.4949
15723TIP3    H168660   0.512   6.020   1.019  0.8109 -0.8278 -1.1864
15723TIP3    H268661   0.382   5.983   1.086  1.0977  0.5276  0.1880
15724TIP3   OH268662   4.199   3.120  15.032 -0.0003  0.0506  0.4046
15724TIP3    H168663   4.146   3.105  15.110 -0.8234 -0.8687 -0.3036
15724TIP3    H268664   4.210   3.033  14.994  2.2878  0.1536  0.6700
15725TIP3   OH268665   0.732   0.892   4.792  0.2189 -0.2545 -0.2400
15725TIP3    H168666   0.690   0.978   4.791  2.5578  0.9978  0.6057
15725TIP3    H268667   0.708   0.854   4.876 -0.9430 -0.5314 -0.6775
15726TIP3   OH268668   2.149   0.394   5.166 -0.2735  0.1708  0.4120
15726TIP3    H168669   2.243   0.383   5.181 -0.0389  1.9983  0.5033
15726TIP3    H268670   2.109   0.313   5.199  1.2692 -0.6933  0.2340
15727TIP3   OH268671   4.059   0.612  13.023 -0.0384  0.4326 -0.2899
15727TIP3    H168672   4.120   0.569  13.082 -1.2564  3.5771  3.6733
15727TIP3    H268673   4.105   0.691  12.993  0.1013 -0.4855 -2.7124
15728TIP3   OH268674   4.905   3.856   0.934  0.2328 -0.1651  0.0894
15728TIP3    H168675   4.836   3.807   0.978 -0.5538 -1.0894 -2.0360
15728TIP3    H268676   4.901   3.944   0.972 -0.3709 -0.8896  1.7973
15729TIP3   OH268677   6.587   2.337   4.068 -0.5207 -0.3365 -0.1207
15729TIP3    H168678   6.682   2.338   4.058 -0.4416  2.0331  0.2063
15729TIP3    H268679   6.554   2.344   3.979 -0.3240  0.6714 -0.1243
15730TIP3   OH268680   0.550   4.688   2.741 -0.0347  0.3275  0.0507
15730TIP3    H168681   0.637   4.717   2.714 -0.0889  0.9702  0.5415
15730TIP3    H268682   0.540   4.602   2.701  0.3008  0.7995 -1.0767
15731TIP3   OH268683   6.563   2.969   3.785 -0.3372 -0.6569 -0.6823
15731TIP3    H168684   6.528   2.884   3.757 -1.4447  0.0472 -1.5226
15731TIP3    H268685   6.486   3.024   3.799  0.2199 -0.4284  2.1833
15732TIP3   OH268686   0.538   4.110   0.720  0.3387  0.4001  0.1836
15732TIP3    H168687   0.490   4.174   0.773  0.6941  1.5457 -0.8316
15732TIP3    H268688   0.630   4.122   0.745  0.2210 -1.1653  1.4739
15733TIP3   OH268689   3.904   6.682   4.444  0.6209  0.3106 -0.0449
15733TIP3    H168690   3.942   6.598   4.471  0.2730 -0.3328 -1.4862
15733TIP3    H268691   3.958   6.710   4.370 -0.6980  0.1775 -1.0907
15734TIP3   OH268692   2.736   6.563   0.561 -0.6483  0.1711 -0.3557
15734TIP3    H168693   2.654   6.522   0.588 -1.0613  2.0507  1.4204
15734TIP3    H268694   2.743   6.542   0.468 -3.0023 -0.2778 -0.4917
15735TIP3   OH268695   4.553   2.083  16.578  0.4923 -0.2867  0.1457
15735TIP3    H168696   4.528   1.995  16.551  0.1502 -0.7186  1.7897
15735TIP3    H268697   4.489   2.140  16.535 -1.4556 -1.1347  1.7880
15736TIP3   OH268698   3.058   5.958   0.663  0.6999 -0.7889 -0.5537
15736TIP3    H168699   3.108   5.893   0.712  1.0688  0.4921  0.8292
15736TIP3    H268700   3.030   6.022   0.729  0.1571  0.3420 -1.8278
15737TIP3   OH268701   4.912   6.802  16.767 -0.0269  0.8636 -0.3692
15737TIP3    H168702   4.959   6.878  16.801 -0.1310  0.8650 -0.2269
15737TIP3    H268703   4.966   6.727  16.790 -0.2546  0.8372  0.0804
15738TIP3   OH268704   3.536   5.700  16.750 -0.1093 -0.3114 -0.1935
15738TIP3    H168705   3.538   5.784  16.796 -0.0150 -0.1281 -0.5349
15738TIP3    H268706   3.543   5.722  16.657 -1.1156 -0.6266 -0.3603
15739TIP3   OH268707   5.508   1.510   3.554 -0.0873  0.1887 -0.0034
15739TIP3    H168708   5.580   1.530   3.495 -0.0043 -0.3207 -0.0766
15739TIP3    H268709   5.429   1.523   3.502  0.0064 -1.9476 -0.7984
15740TIP3   OH268710   6.221   2.907   0.503  0.0205  0.5401 -0.7171
15740TIP3    H168711   6.297   2.964   0.512 -0.1837  0.8446 -0.8968
15740TIP3    H268712   6.151   2.952   0.551  0.0657  0.0539 -0.1949
15741TIP3   OH268713   4.579   2.398   4.660  0.3393  0.0397 -0.1842
15741TIP3    H168714   4.620   2.317   4.629  0.8183 -0.2239  1.0641
15741TIP3    H268715   4.648   2.443   4.708 -0.4495  0.2153  0.8427
15742TIP3   OH268716   0.475   3.123   1.794 -0.4373  0.4676 -0.3492
15742TIP3    H168717   0.385   3.094   1.780 -0.0198 -0.8695 -0.3334
15742TIP3    H268718   0.528   3.044   1.788  0.5269  0.8851  1.8238
15743TIP3   OH268719   5.344   2.755   0.348 -0.1520  0.3380  0.4218
15743TIP3    H168720   5.382   2.777   0.432  1.3595 -1.5347  0.2933
15743TIP3    H268721   5.292   2.832   0.324  1.0398  1.7282  2.0837
15744TIP3   OH268722   6.369   0.582   4.025  0.4326 -0.0688  0.1287
15744TIP3    H168723   6.400   0.657   3.975 -0.2153 -0.4573 -0.8856
15744TIP3    H268724   6.442   0.520   4.025  0.9333  0.4962  0.8848
15745TIP3   OH268725   1.553   1.282  11.614 -0.2416 -0.6158 -0.1594
15745TIP3    H168726   1.556   1.206  11.556  1.1053 -1.7669  1.3226
15745TIP3    H268727   1.483   1.262  11.676 -2.3199  1.0296 -1.8205
15746TIP3   OH268728   0.734   4.711   1.264 -0.0908  0.0416  0.8145
15746TIP3    H168729   0.696   4.784   1.314  0.1112  2.2750 -2.0182
15746TIP3    H268730   0.825   4.707   1.295 -0.6160 -0.3586  2.3799
15747TIP3   OH268731   2.453   0.368   4.154  0.3340  0.0977 -0.1477
15747TIP3    H168732   2.387   0.301   4.169  0.0520  0.4243  0.1038
15747TIP3    H268733   2.475   0.361   4.061  2.1515 -2.0023  0.3784
15748TIP3   OH268734   2.514   5.690   2.103  0.1847  0.1138  0.4555
15748TIP3    H168735   2.437   5.744   2.122  0.5230  0.6101  0.4175
15748TIP3    H268736   2.588   5.748   2.116  0.5457 -0.2822  0.1961
15749TIP3   OH268737   1.704   1.076   2.283  0.6768 -0.2140  0.4821
15749TIP3    H168738   1.659   0.998   2.250  1.4474 -1.1929  1.6489
15749TIP3    H268739   1.695   1.141   2.213  0.2221 -1.4251 -0.6161
15750TIP3   OH268740   5.205   0.619  17.118 -0.0911 -0.2191 -0.3953
15750TIP3    H168741   5.141   0.573  17.173  1.2434 -0.6307  0.9001
15750TIP3    H268742   5.218   0.561  17.043 -0.7246 -0.4544 -0.3323
15751TIP3   OH268743   5.730   2.703   0.767 -0.1009 -0.0006  0.3125
15751TIP3    H168744   5.669   2.775   0.786 -0.1449 -0.1833  0.8863
15751TIP3    H268745   5.707   2.636   0.831  1.6500  0.4782  1.4980
15752TIP3   OH268746   0.343   0.956  16.266 -0.5109  0.0796 -0.6269
15752TIP3    H168747   0.304   0.927  16.183 -0.8801 -0.9085 -0.1315
15752TIP3    H268748   0.308   1.044  16.280 -0.4279  0.2620 -1.5212
15753TIP3   OH268749   1.336   2.386  13.699  0.5847  0.4700 -0.0252
15753TIP3    H168750   1.359   2.466  13.652  2.6135 -0.3308 -0.5171
15753TIP3    H268751   1.412   2.369  13.754  0.1801 -1.1149  0.0809
15754TIP3   OH268752   6.620   1.547   2.529 -0.2057  0.1245 -0.3466
15754TIP3    H168753   6.660   1.526   2.613  1.1282 -0.6531 -1.1524
15754TIP3    H268754   6.691   1.540   2.465 -1.5689 -1.2467 -1.8243
15755TIP3   OH268755   0.964   3.429   3.495 -0.0947 -0.3689 -0.0824
15755TIP3    H168756   0.898   3.433   3.564 -0.8411 -1.4425 -0.7149
15755TIP3    H268757   0.963   3.517   3.457 -1.5576 -0.5093 -0.4308
15756TIP3   OH268758   3.283   4.060  12.743  0.5155 -0.2037 -0.4922
15756TIP3    H168759   3.288   3.997  12.671 -0.8733 -0.7101 -0.1607
15756TIP3    H268760   3.203   4.109  12.728  0.8347  0.5133  0.0546
15757TIP3   OH268761   5.980   0.240   3.325  0.3950  0.0001 -0.3738
15757TIP3    H168762   5.899   0.195   3.301  0.8450 -1.6367  0.9973
15757TIP3    H268763   5.954   0.300   3.395  0.8407 -3.1786  2.7770
15758TIP3   OH268764   3.628   6.562   0.524 -0.0418 -0.0372 -0.3352
15758TIP3    H168765   3.612   6.597   0.437 -2.5506 -1.0163 -0.3390
15758TIP3    H268766   3.604   6.634   0.583  0.6125  0.2607 -0.4286
15759TIP3   OH268767   0.375   6.293   3.163 -0.1279 -0.3240  0.7156
15759TIP3    H168768   0.402   6.334   3.081  1.9792  2.4695  2.6469
15759TIP3    H268769   0.280   6.305   3.165  0.1914  3.5397  0.5403
15760TIP3   OH268770   6.809   4.263  15.679  0.2688  0.4171  0.3134
15760TIP3    H168771   6.894   4.256  15.635  0.1599  0.7539  0.0466
15760TIP3    H268772   6.828   4.244  15.771  0.3684 -1.1670  0.0085
15761TIP3   OH268773   5.107   2.807  12.649 -0.5021  0.4859 -0.5941
15761TIP3    H168774   5.123   2.780  12.558 -0.1128 -2.3461  0.2017
15761TIP3    H268775   5.193   2.802  12.690 -0.7844  1.1116  0.0933
15762TIP3   OH268776   6.648   5.961   2.481  0.8191  0.2074 -0.4644
15762TIP3    H168777   6.553   5.972   2.477  0.5836 -1.0671  0.8896
15762TIP3    H268778   6.666   5.888   2.420  0.6509 -0.8700  0.7332
15763TIP3   OH268779   2.699   4.254  13.099 -0.2477 -0.1512 -0.1432
15763TIP3    H168780   2.650   4.335  13.116 -0.3226  0.1278 -1.4996
15763TIP3    H268781   2.790   4.277  13.117 -0.1475  0.5506 -1.3917
15764TIP3   OH268782   4.533   3.904  11.940  0.2308 -0.5952  0.0609
15764TIP3    H168783   4.535   3.951  12.023  0.8603 -3.2527  1.6325
15764TIP3    H268784   4.457   3.940  11.894  0.6439  1.8546  1.1544
15765TIP3   OH268785   1.502   0.039  10.597  0.1657 -0.6403  0.1906
15765TIP3    H168786   1.407   0.036  10.581  0.1936 -0.3746 -0.0350
15765TIP3    H268787   1.522   0.133  10.602  0.3175 -0.7001  0.8419
15766TIP3   OH268788   0.303   4.385  14.858 -0.1212  0.1947 -0.0314
15766TIP3    H168789   0.395   4.382  14.884  0.3487  0.8779 -1.5189
15766TIP3    H268790   0.255   4.387  14.941  1.2231  0.3797  0.7691
15767TIP3   OH268791   2.591   4.755   2.556  0.2118  0.3632 -0.2590
15767TIP3    H168792   2.679   4.723   2.538  0.4630  0.5163  0.6697
15767TIP3    H268793   2.540   4.729   2.479  1.1575  0.6583 -1.0083
15768TIP3   OH268794   0.466   5.866  16.570 -0.5555  0.4531  0.0167
15768TIP3    H168795   0.382   5.901  16.540 -0.0764 -0.0155 -2.0222
15768TIP3    H268796   0.449   5.774  16.589 -0.4603  0.2841 -0.6851
15769TIP3   OH268797   3.788   6.592  11.771 -0.2863  0.4032  0.4448
15769TIP3    H168798   3.731   6.541  11.828 -0.8287 -1.4222 -1.5884
15769TIP3    H268799   3.728   6.649  11.722 -0.2065 -0.2777 -0.4711
15770TIP3   OH268800   5.818   6.651   2.494 -0.2031 -0.0859  0.1207
15770TIP3    H168801   5.742   6.634   2.439 -0.7413  0.1402  0.7857
15770TIP3    H268802   5.807   6.593   2.569  2.1304 -2.7603 -1.4322
15771TIP3   OH268803   0.189   3.964   5.081  0.5900 -0.1705  0.0250
15771TIP3    H168804   0.106   3.998   5.048  0.5939 -1.1207 -1.0125
15771TIP3    H268805   0.191   3.873   5.052  0.5004 -1.1670  2.8272
15772TIP3   OH268806   5.093   1.351   3.957 -0.3726 -0.3785 -0.5636
15772TIP3    H168807   5.033   1.410   4.001  0.0351 -0.3377 -0.0531
15772TIP3    H268808   5.130   1.402   3.885  1.2817  0.5798  0.9032
15773TIP3   OH268809   5.355   4.983  11.396 -0.5228 -0.4158 -0.2174
15773TIP3    H168810   5.380   5.029  11.476 -1.4459 -1.3523  0.6379
15773TIP3    H268811   5.432   4.989  11.339 -0.1825  1.0498  0.3672
15774TIP3   OH268812   5.360   1.843  13.722  0.2781  0.5085  0.4773
15774TIP3    H168813   5.390   1.754  13.740 -0.6940  0.3038  1.1337
15774TIP3    H268814   5.410   1.870  13.645  1.9516  0.0884  1.3625
15775TIP3   OH268815   3.598   6.360   0.876  0.5837 -1.0222 -0.1347
15775TIP3    H168816   3.658   6.401   0.939  1.0846  0.6855 -1.6281
15775TIP3    H268817   3.525   6.421   0.871 -0.2478 -1.9902  0.0151
15776TIP3   OH268818   1.760   2.868   5.600  0.0718  0.8047  0.3470
15776TIP3    H168819   1.733   2.843   5.688  2.3401 -1.2985  0.5525
15776TIP3    H268820   1.732   2.794   5.545  2.0736  0.2335  0.0178
15777TIP3   OH268821   0.572   1.826  11.569  0.1801 -0.0241  0.3261
15777TIP3    H168822   0.663   1.854  11.572  0.1277  0.3891 -1.3066
15777TIP3    H268823   0.575   1.733  11.594  0.9070  0.2148  1.1970
15778TIP3   OH268824   6.368   4.296  11.387  0.2466 -0.1745 -0.4645
15778TIP3    H168825   6.436   4.232  11.365  0.9318  0.2730  0.2993
15778TIP3    H268826   6.411   4.381  11.378 -0.8553  0.2547 -2.1637
15779TIP3   OH268827   3.445   2.625   1.992  0.1166  0.6609  0.3191
15779TIP3    H168828   3.399   2.650   1.912 -1.6072  0.7319  1.2897
15779TIP3    H268829   3.520   2.683   1.995 -0.7208  1.8256 -0.3785
15780TIP3   OH268830   2.793   6.710  15.157 -0.1244  0.3219 -0.3776
15780TIP3    H168831   2.788   6.711  15.062  0.6990 -0.0803 -0.4360
15780TIP3    H268832   2.725   6.648  15.184  0.9886 -1.1539 -0.8315
15781TIP3   OH268833   6.298   1.957  13.096 -0.4540 -0.1258 -0.4261
15781TIP3    H168834   6.226   2.019  13.085 -1.3186 -1.0009  0.1231
15781TIP3    H268835   6.271   1.879  13.047  1.0741  0.2416 -1.9808
15782TIP3   OH268836   0.084   2.653   6.513  0.0248 -0.0680 -0.0969
15782TIP3    H168837   0.090   2.738   6.557 -1.4145  0.1985 -0.3498
15782TIP3    H268838   0.142   2.596   6.563 -0.1870  0.6835  1.0563
15783TIP3   OH268839   6.665   2.448  14.724  0.1069 -0.5160 -0.2247
15783TIP3    H168840   6.737   2.386  14.715 -0.0374 -0.6478 -0.4926
15783TIP3    H268841   6.648   2.478  14.635 -1.1147 -1.5668 -0.3755
15784TIP3   OH268842   6.225   2.533  16.462  0.0394  0.6245 -0.0194
15784TIP3    H168843   6.142   2.488  16.446  0.1032  0.1392  0.9315
15784TIP3    H268844   6.290   2.484  16.412  0.3615 -1.3257  2.1358
15785TIP3   OH268845   0.164   2.922   6.298 -0.2326 -0.1600 -0.3057
15785TIP3    H168846   0.186   3.010   6.326 -0.5686 -0.5023  1.1165
15785TIP3    H268847   0.068   2.922   6.294 -0.2086 -0.1810 -1.3379
15786TIP3   OH268848   4.242   2.261  15.885  0.4860  0.0287  0.4377
15786TIP3    H168849   4.167   2.202  15.887  0.8640 -0.4539  0.8035
15786TIP3    H268850   4.229   2.320  15.959 -0.4197  1.0882 -0.5371
15787TIP3   OH268851   6.541   2.156  12.466 -0.0757  0.2463  0.7715
15787TIP3    H168852   6.466   2.141  12.408  0.2181  0.0146  0.4515
15787TIP3    H268853   6.605   2.089  12.440 -0.4673 -0.7619  2.2528
15788TIP3   OH268854   0.860   4.466   2.224  0.4608 -0.3469  0.2769
15788TIP3    H168855   0.846   4.542   2.281  1.6694  2.6097 -2.9653
15788TIP3    H268856   0.953   4.445   2.237  0.5238 -0.2148  0.0499
15789TIP3   OH268857   2.223   1.463   1.970 -0.4129 -0.3793 -0.1033
15789TIP3    H168858   2.179   1.395   1.918 -2.5487  0.9297 -0.1351
15789TIP3    H268859   2.284   1.415   2.025 -2.6461 -2.5078  0.7281
15790TIP3   OH268860   5.055   4.678   2.935  0.1256 -0.1620  0.3047
15790TIP3    H168861   5.049   4.773   2.941 -0.7390 -0.2928  2.5773
15790TIP3    H268862   5.075   4.649   3.024 -2.0446 -2.2121  0.2407
15791TIP3   OH268863   5.823   4.190   5.594  0.2005  0.1277 -0.4118
15791TIP3    H168864   5.855   4.263   5.542 -1.3424  0.8541 -0.3960
15791TIP3    H268865   5.864   4.201   5.679  1.1348  0.1064 -0.8472
15792TIP3   OH268866   2.423   4.671  16.885 -0.3492 -0.3535 -0.2177
15792TIP3    H168867   2.507   4.639  16.919  0.1054 -0.1214 -1.1125
15792TIP3    H268868   2.415   4.760  16.919 -1.4375 -1.2051  1.9590
15793TIP3   OH268869   0.739   6.241   2.689 -0.4299  0.2029  0.1049
15793TIP3    H168870   0.698   6.163   2.727 -1.2395  1.3633  1.7258
15793TIP3    H268871   0.833   6.227   2.702 -0.4951 -0.8848 -0.4324
15794TIP3   OH268872   2.295   4.741   0.422 -0.1914  0.0500 -0.2127
15794TIP3    H168873   2.380   4.778   0.399  0.6010 -1.5261  0.0852
15794TIP3    H268874   2.262   4.703   0.340 -0.8579  1.0876 -0.4439
15795TIP3   OH268875   6.727   3.155   4.079 -0.5116 -0.6544 -0.5305
15795TIP3    H168876   6.650   3.117   4.120 -0.8529  0.1398 -0.4106
15795TIP3    H268877   6.800   3.102   4.111 -0.7833 -0.1333  1.0352
15796TIP3   OH268878   6.424   2.653   4.974  0.0172  0.2298  0.1178
15796TIP3    H168879   6.460   2.608   5.050 -1.6930 -0.7597  0.3860
15796TIP3    H268880   6.441   2.594   4.900 -0.6236 -0.0355  0.1746
15797TIP3   OH268881   2.487   5.532  15.493 -0.1092  0.5733  0.2560
15797TIP3    H168882   2.504   5.514  15.401 -3.0833  1.9284 -0.7059
15797TIP3    H268883   2.429   5.460  15.521  0.5922  0.2940  1.0170
15798TIP3   OH268884   1.181   5.628   5.331  0.6297 -0.0586  0.0202
15798TIP3    H168885   1.154   5.706   5.283 -1.5663 -1.0737 -0.5298
15798TIP3    H268886   1.234   5.579   5.268 -1.8044 -1.1318 -1.3129
15799TIP3   OH268887   2.236   3.030  15.262  0.3923  0.6039  0.1777
15799TIP3    H168888   2.297   3.008  15.191 -0.9952 -1.1217 -0.5620
15799TIP3    H268889   2.236   2.952  15.318 -2.7457 -0.4453 -1.0839
15800TIP3   OH268890   1.982   1.013   0.451 -0.0878  0.0885  0.1660
15800TIP3    H168891   2.020   1.023   0.364 -0.0158  0.8319  0.2755
15800TIP3    H268892   2.014   1.089   0.500 -0.0632 -0.3641  0.8646
15801TIP3   OH268893   5.425   5.988   4.907 -0.3219  0.2986  0.6282
15801TIP3    H168894   5.406   5.905   4.951 -0.1714 -0.1758 -0.1931
15801TIP3    H268895   5.488   6.032   4.965  0.9470 -0.9308  0.2315
15802TIP3   OH268896   3.264   2.151   6.093 -0.2060 -0.8106  0.3411
15802TIP3    H168897   3.328   2.220   6.111 -1.1140  0.0817  0.1761
15802TIP3    H268898   3.234   2.123   6.180 -0.5520 -0.3234  0.3782
15803TIP3   OH268899   5.252   5.429   4.866 -0.0883 -0.2604  0.6830
15803TIP3    H168900   5.340   5.425   4.904  0.1191  0.1458  0.2659
15803TIP3    H268901   5.199   5.369   4.919  0.5967 -1.0241  0.5207
15804TIP3   OH268902   0.566   4.651  16.950 -0.2268  0.3152  0.3273
15804TIP3    H168903   0.612   4.654  17.034 -1.0965  2.7757  0.8102
15804TIP3    H268904   0.589   4.734  16.908 -2.0469  0.3858 -0.5958
15805TIP3   OH268905   1.258   2.767   5.370 -0.1686 -0.0599 -0.2953
15805TIP3    H168906   1.307   2.787   5.450  0.4624  2.4637 -1.2350
15805TIP3    H268907   1.166   2.771   5.397  0.0465 -0.7256  0.5932
15806TIP3   OH268908   6.294   3.741   3.501 -0.1644 -0.2508  0.4923
15806TIP3    H168909   6.208   3.699   3.504  0.4915 -1.6061  1.1298
15806TIP3    H268910   6.315   3.746   3.408 -1.2737  0.8679  0.2717
15807TIP3   OH268911   1.123   2.704  11.261  0.6427 -0.2753  0.5788
15807TIP3    H168912   1.205   2.718  11.214 -0.5641 -1.6100 -2.2031
15807TIP3    H268913   1.074   2.785  11.249  0.8235 -0.1691  0.5595
15808TIP3   OH268914   4.916   2.221  16.065  0.1399  0.3678  0.6201
15808TIP3    H168915   4.848   2.154  16.074  1.2471 -0.8628  0.1648
15808TIP3    H268916   4.876   2.287  16.007 -0.5804 -0.4514  0.1545
15809TIP3   OH268917   6.738   3.472  12.228  0.2216 -0.5030  0.4730
15809TIP3    H168918   6.688   3.440  12.304  0.6621  0.2443  1.0943
15809TIP3    H268919   6.779   3.393  12.193 -0.3209 -0.9236  0.7649
15810TIP3   OH268920   0.720   6.796   6.007 -0.0618  0.3989 -0.5136
15810TIP3    H168921   0.799   6.800   5.953 -0.6025 -0.1197 -1.3658
15810TIP3    H268922   0.743   6.843   6.086  0.5870  1.6430 -1.4065
15811TIP3   OH268923   6.700   3.846   2.444 -0.0950 -0.1467 -0.4001
15811TIP3    H168924   6.718   3.826   2.352  0.7892 -1.5236  0.0452
15811TIP3    H268925   6.739   3.773   2.493 -2.4644 -0.6133  0.9595
15812TIP3   OH268926   5.785   4.578  14.567 -0.4109  0.1614  0.3739
15812TIP3    H168927   5.798   4.490  14.531  1.1544  0.1675  0.8159
15812TIP3    H268928   5.743   4.628  14.497 -2.1999 -1.1606  0.4427
15813TIP3   OH268929   2.192   3.451  15.148  0.1666 -0.4017  0.6228
15813TIP3    H168930   2.258   3.411  15.205 -0.3200 -0.0117  1.4659
15813TIP3    H268931   2.148   3.515  15.203  0.3427  0.6914 -0.4652
15814TIP3   OH268932   1.112   5.356  12.323  0.1790 -0.3900 -0.2806
15814TIP3    H168933   1.178   5.372  12.256  0.6960  0.4811  0.4076
15814TIP3    H268934   1.032   5.393  12.286  0.7756  1.4364  0.1473
15815TIP3   OH268935   6.148   6.758   6.269 -0.0664 -0.0300 -0.0583
15815TIP3    H168936   6.055   6.770   6.252 -0.3022 -1.8553 -0.3099
15815TIP3    H268937   6.171   6.680   6.218  1.7721  0.7957 -0.5621
15816TIP3   OH268938   2.070   2.912  12.441  0.5224  0.2839  0.3467
15816TIP3    H168939   2.024   2.875  12.366  1.7442 -1.3742  0.3557
15816TIP3    H268940   2.162   2.909  12.417  0.9351 -0.2130  1.8490
15817TIP3   OH268941   1.495   0.508   4.461 -0.0506 -0.8916 -0.0830
15817TIP3    H168942   1.433   0.561   4.511  1.1066 -0.3276  0.7941
15817TIP3    H268943   1.576   0.511   4.511  0.7765 -1.4072 -1.3296
15818TIP3   OH268944   0.667   4.503   2.941 -0.1852  0.9602  0.4302
15818TIP3    H168945   0.585   4.459   2.917 -0.0306  0.8288  0.1371
15818TIP3    H268946   0.648   4.545   3.024 -0.0226 -0.5427  1.2582
15819TIP3   OH268947   6.509   3.319  15.162  0.3172  0.5885 -0.0697
15819TIP3    H168948   6.602   3.299  15.175  0.0528  0.5386  2.3081
15819TIP3    H268949   6.509   3.409  15.129  1.2110  0.5727 -0.1513
15820TIP3   OH268950   4.929   5.255   1.079  0.0242 -0.4525 -0.1061
15820TIP3    H168951   4.986   5.276   1.154  0.3234  0.8638 -0.6829
15820TIP3    H268952   4.908   5.340   1.040 -2.1352 -0.9249 -0.0803
15821TIP3   OH268953   3.877   4.580   2.573  0.3006  0.8740  0.1339
15821TIP3    H168954   3.866   4.626   2.490 -0.6992  1.5102  0.6067
15821TIP3    H268955   3.862   4.646   2.640 -0.6129 -0.0130  0.8299
15822TIP3   OH268956   5.816   3.644   6.005  0.2536 -0.0686 -0.1174
15822TIP3    H168957   5.807   3.550   6.015  1.2989 -0.3382 -1.3699
15822TIP3    H268958   5.867   3.672   6.081 -0.0394 -0.5249  0.2436
15823TIP3   OH268959   1.934   5.682   5.198 -0.4091 -0.0810 -0.4259
15823TIP3    H168960   1.876   5.726   5.260  0.4344  0.0283  0.3078
15823TIP3    H268961   2.019   5.681   5.242 -0.0903 -1.1740 -1.0324
15824TIP3   OH268962   2.015   2.306   1.603 -0.3273 -0.3913  0.0876
15824TIP3    H168963   2.059   2.384   1.637 -1.4033  0.7676 -1.0812
15824TIP3    H268964   2.035   2.238   1.668  1.1910  0.6580  0.8038
15825TIP3   OH268965   6.080   3.784  14.754  0.2856  0.1564 -0.0257
15825TIP3    H168966   6.127   3.852  14.705 -1.5822  0.3954 -1.5711
15825TIP3    H268967   6.062   3.716  14.690 -1.0888 -0.1128  0.6215
15826TIP3   OH268968   4.109   1.033  11.189  0.5187 -0.1915 -0.3904
15826TIP3    H168969   4.050   1.056  11.117 -0.5011 -1.4263 -0.0037
15826TIP3    H268970   4.099   0.938  11.198  1.4487 -0.2095  0.6681
15827TIP3   OH268971   1.036   3.396  12.623  0.1114  0.8998  0.4469
15827TIP3    H168972   1.120   3.353  12.641  2.1168  2.0265 -4.6629
15827TIP3    H268973   1.027   3.461  12.693  1.0701 -2.1567  3.6903
15828TIP3   OH268974   1.164   1.374  17.292  1.1580 -0.2947  0.0693
15828TIP3    H168975   1.205   1.296  17.254  1.1344 -0.6865  0.8319
15828TIP3    H268976   1.121   1.342  17.372  1.6861  0.6172  0.7294
15829TIP3   OH268977   3.077   5.205   4.690  0.0535 -0.4727  0.1904
15829TIP3    H168978   3.069   5.178   4.782 -0.0273  0.3935  0.4454
15829TIP3    H268979   3.016   5.148   4.644  0.2838 -1.0951  0.6296
15830TIP3   OH268980   2.086   3.653  12.649  0.0432 -0.0595  0.5556
15830TIP3    H168981   2.163   3.628  12.700  1.9335  2.6982 -0.7200
15830TIP3    H268982   2.092   3.601  12.569  0.4332 -0.0406  0.5726
15831TIP3   OH268983   5.377   1.895  10.531 -0.5249  0.1268  0.7412
15831TIP3    H168984   5.452   1.932  10.577 -0.6921  1.1064  0.2548
15831TIP3    H268985   5.407   1.808  10.503  0.1156  0.1534  1.3173
15832TIP3   OH268986   1.776   1.582  12.828 -0.3602  0.5753  0.1017
15832TIP3    H168987   1.734   1.582  12.742 -1.1493 -3.9017  0.2127
15832TIP3    H268988   1.702   1.579  12.890  0.2084  1.3491  0.8396
15833TIP3   OH268989   1.565   3.240   4.491 -0.8038 -0.1173 -0.1290
15833TIP3    H168990   1.641   3.185   4.511 -1.1267 -0.9641 -1.1225
15833TIP3    H268991   1.564   3.306   4.560  1.4942  0.6296 -0.7406
15834TIP3   OH268992   5.586   5.735  15.899 -0.1647 -0.1119 -0.2127
15834TIP3    H168993   5.580   5.641  15.880  0.2306 -0.5278  1.5563
15834TIP3    H268994   5.679   5.754  15.899 -0.2093  0.1145  0.1620
15835TIP3   OH268995   4.950   5.594   1.754  0.5082  0.2665 -0.1356
15835TIP3    H168996   4.988   5.667   1.803  0.4049  0.7084 -0.7186
15835TIP3    H268997   5.024   5.555   1.709  0.8860 -1.0904  1.5422
15836TIP3   OH268998   6.063   1.508  12.541  0.1629  0.4337 -0.6456
15836TIP3    H168999   6.039   1.441  12.477  0.0545 -0.4596  0.3045
15836TIP3    H269000   5.986   1.514  12.598  1.0187 -0.2843  0.6237
15837TIP3   OH269001   4.836   0.417  12.681 -0.0896 -0.5691  0.4947
15837TIP3    H169002   4.897   0.343  12.687  0.1849 -0.5983 -1.9662
15837TIP3    H269003   4.753   0.378  12.656 -0.2501 -0.1660  0.3925
15838TIP3   OH269004   3.599   3.407  16.272  0.2952 -0.2354 -0.0128
15838TIP3    H169005   3.523   3.397  16.215  0.6562  3.3415 -1.3453
15838TIP3    H269006   3.672   3.372  16.221  0.1063 -0.1155 -0.3697
15839TIP3   OH269007   4.166   3.720  15.994 -0.3498  0.0952 -0.0243
15839TIP3    H169008   4.144   3.719  15.901 -1.8844  1.3168  0.2984
15839TIP3    H269009   4.191   3.629  16.014 -0.9108 -0.3814 -1.4055
15840TIP3   OH269010   0.053   2.576   5.925 -0.0554 -0.1200 -0.1886
15840TIP3    H169011   0.098   2.525   5.991 -0.5625  0.3113  0.5009
15840TIP3    H269012   0.090   2.664   5.932  2.1010 -0.7162 -2.5634
15841TIP3   OH269013   2.361   4.234  13.049 -0.0672  0.3231  0.1486
15841TIP3    H169014   2.271   4.236  13.018  0.5486  1.1510 -1.7388
15841TIP3    H269015   2.388   4.143  13.038  0.2391  0.6325 -2.2905
15842TIP3   OH269016   1.570   0.056  14.934 -0.7465 -0.2507  0.4907
15842TIP3    H169017   1.479   0.083  14.947 -0.1474  1.5836  1.2207
15842TIP3    H269018   1.601   0.109  14.861 -0.5031 -1.5864 -0.4239
15843TIP3   OH269019   2.458   4.237   6.241  0.2688 -0.0059 -0.1341
15843TIP3    H169020   2.500   4.167   6.290 -1.7427 -1.0137  0.2213
15843TIP3    H269021   2.517   4.252   6.166  1.3332 -1.2205  0.4218
15844TIP3   OH269022   3.672   2.394   0.931  0.6040  0.2801  0.4826
15844TIP3    H169023   3.628   2.381   0.847  0.7496  0.9639  0.2972
15844TIP3    H269024   3.603   2.384   0.997  0.3713  0.3492  0.2494
15845TIP3   OH269025   6.054   1.330  13.215 -0.2567  0.4424  0.0044
15845TIP3    H169026   5.959   1.335  13.212 -0.2019  1.2150 -1.3212
15845TIP3    H269027   6.083   1.420  13.198  0.7073  0.5859  2.1354
15846TIP3   OH269028   1.371   3.788   4.277 -0.3377 -0.0417 -0.2187
15846TIP3    H169029   1.433   3.750   4.215 -2.2976 -1.8397 -1.1993
15846TIP3    H269030   1.335   3.864   4.231  1.0997  1.0489  0.3820
15847TIP3   OH269031   1.762   5.515   1.957 -0.5314  0.8198  0.5868
15847TIP3    H169032   1.830   5.479   1.901 -0.3588  1.1392  0.5868
15847TIP3    H269033   1.808   5.573   2.018 -0.8695  1.5908  0.1331
15848TIP3   OH269034   0.206   4.377  13.936  0.2062  0.0488  0.4366
15848TIP3    H169035   0.134   4.441  13.943  0.0975 -0.1776  1.4869
15848TIP3    H269036   0.281   4.421  13.975  0.0418 -0.5826  1.5053
15849TIP3   OH269037   6.465   0.404  16.311  0.2625  0.1112 -0.2812
15849TIP3    H169038   6.547   0.390  16.359 -0.4519  0.4106  1.0844
15849TIP3    H269039   6.490   0.403  16.219  1.6487 -0.7733  0.0832
15850TIP3   OH269040   5.801   5.368  15.860  0.5987 -0.1606  0.5089
15850TIP3    H169041   5.893   5.386  15.840  0.8803 -2.2357 -0.3114
15850TIP3    H269042   5.801   5.344  15.953  0.7212  0.7284  0.7488
15851TIP3   OH269043   1.348   0.287  12.178  0.0088  0.4252 -0.0883
15851TIP3    H169044   1.430   0.298  12.129 -0.9262  1.2264 -1.5366
15851TIP3    H269045   1.363   0.208  12.231  1.5860  0.3537 -0.5705
15852TIP3   OH269046   0.894   2.903  12.490 -0.0255 -0.7579 -0.2127
15852TIP3    H169047   0.882   2.901  12.396 -0.7919 -1.9829 -0.1025
15852TIP3    H269048   0.902   2.997  12.511 -0.5762 -0.4322 -1.3932
15853TIP3   OH269049   0.424   5.082  13.433  0.4955 -0.2819  0.5939
15853TIP3    H169050   0.430   5.175  13.453 -0.1293 -0.0437 -0.2474
15853TIP3    H269051   0.378   5.044  13.508  2.2133 -0.2259  1.7316
15854TIP3   OH269052   3.383   4.673   2.701 -0.1387 -0.1044 -0.2847
15854TIP3    H169053   3.434   4.731   2.756 -1.7690  0.2346  0.9661
15854TIP3    H269054   3.397   4.705   2.612  1.8406 -0.0993 -0.0023
15855TIP3   OH269055   5.106   0.743  14.814  0.0070  0.2850  0.2285
15855TIP3    H169056   5.170   0.688  14.860  1.4522  0.5613 -1.3698
15855TIP3    H269057   5.117   0.830  14.852 -0.7473 -0.0511  1.2454
15856TIP3   OH269058   5.893   5.798   1.015  0.1503  0.4219  0.6278
15856TIP3    H169059   5.977   5.784   0.971 -0.1782 -0.7428  0.3523
15856TIP3    H269060   5.871   5.713   1.052 -1.3315  0.4879 -0.0348
15857TIP3   OH269061   4.671   5.706  17.231  0.3758 -0.6181 -0.5530
15857TIP3    H169062   4.668   5.624  17.182 -0.7520 -1.0227  0.1500
15857TIP3    H269063   4.644   5.773  17.168 -1.9944 -1.2515 -0.2983
15858TIP3   OH269064   4.072   0.452   1.096 -0.1856  0.0084  0.1645
15858TIP3    H169065   4.101   0.368   1.130 -0.4358 -0.3007 -0.3842
15858TIP3    H269066   4.009   0.484   1.161 -0.4215 -0.4322  0.1549
15859TIP3   OH269067   0.804   6.415  11.444  0.5740  0.4438  0.0957
15859TIP3    H169068   0.751   6.373  11.512  0.0736 -2.2623 -1.7902
15859TIP3    H269069   0.740   6.448  11.381  1.0156 -0.9201 -1.1267
15860TIP3   OH269070   2.248   0.332  17.143 -0.4214  0.2856  0.5512
15860TIP3    H169071   2.171   0.384  17.165 -0.1901  0.9637 -0.1831
15860TIP3    H269072   2.313   0.356  17.209 -0.4453  0.6384  0.4498
15861TIP3   OH269073   0.094   1.091  11.522  0.4099 -0.0169 -0.9591
15861TIP3    H169074   0.008   1.049  11.517  0.8182 -1.1697  0.8252
15861TIP3    H269075   0.107   1.129  11.435 -2.3185  1.0761 -0.9958
15862TIP3   OH269076   3.722   3.701  12.761 -0.3424  0.2444 -0.3099
15862TIP3    H169077   3.656   3.738  12.702  0.7599  2.3499 -0.3139
15862TIP3    H269078   3.793   3.765  12.760  0.4371 -0.5038  1.9818
15863TIP3   OH269079   5.354   6.790  17.157 -0.0115 -0.2236 -0.2462
15863TIP3    H169080   5.383   6.768  17.069 -1.5504  1.7500 -1.3601
15863TIP3    H269081   5.262   6.763  17.159 -0.0563 -0.0312  0.6613
15864TIP3   OH269082   5.538   6.332   5.733 -0.1072  0.4354  0.2763
15864TIP3    H169083   5.482   6.340   5.810  0.8552 -0.6228  1.1196
15864TIP3    H269084   5.504   6.397   5.672 -3.2372 -1.1816  0.1156
15865TIP3   OH269085   0.438   3.273   4.070  0.5492 -0.5283 -1.1395
15865TIP3    H169086   0.379   3.198   4.066 -0.1760 -0.1308  1.1122
15865TIP3    H269087   0.510   3.245   4.125 -1.1950  1.2222  2.4177
15866TIP3   OH269088   4.874   5.464  11.386  0.6487 -0.4554 -0.5041
15866TIP3    H169089   4.875   5.371  11.408  3.1827 -0.3312  0.2354
15866TIP3    H269090   4.878   5.467  11.291 -0.8719 -1.0493 -0.6160
15867TIP3   OH269091   5.539   6.658   6.398  0.3508  0.5741 -0.9320
15867TIP3    H169092   5.518   6.582   6.344  0.2072  0.9288 -1.3822
15867TIP3    H269093   5.611   6.629   6.454  0.9248  0.3975 -1.7466
15868TIP3   OH269094   3.416   4.727   2.450  0.0106 -0.5432 -0.3411
15868TIP3    H169095   3.375   4.719   2.364  0.7560 -0.1417 -0.7448
15868TIP3    H269096   3.504   4.759   2.432 -0.2353  0.7848  0.6403
15869TIP3   OH269097   1.128   1.234   0.938  0.1086 -0.2335  0.1693
15869TIP3    H169098   1.129   1.302   0.870 -0.2082 -0.9611 -0.5766
15869TIP3    H269099   1.109   1.281   1.019  0.8957  0.7136 -0.1662
15870TIP3   OH269100   6.267   2.487   3.990 -0.0601  0.7699 -0.7185
15870TIP3    H169101   6.330   2.442   3.933  1.0738 -1.7070  2.1453
15870TIP3    H269102   6.200   2.421   4.008  0.5515  0.7549  2.0198
15871TIP3   OH269103   0.685   1.055   3.832 -0.1378 -0.3998 -0.0575
15871TIP3    H169104   0.743   1.020   3.764 -0.0313  0.1608 -0.2609
15871TIP3    H269105   0.614   1.096   3.784  0.7529  1.4139  0.1058
15872TIP3   OH269106   3.192   1.642  13.424 -0.3020 -0.1187 -0.1862
15872TIP3    H169107   3.192   1.559  13.473 -0.9960 -0.4902 -0.7931
15872TIP3    H269108   3.184   1.616  13.333 -1.4941  0.6341 -0.3181
15873TIP3   OH269109   1.317   6.375   2.316  0.5325  0.3060  0.4189
15873TIP3    H169110   1.233   6.343   2.284  0.8250  0.3269 -0.3930
15873TIP3    H269111   1.372   6.297   2.323  0.9107  0.4855 -0.5125
15874TIP3   OH269112   3.424   3.725  13.606  0.0879  0.1366 -0.1974
15874TIP3    H169113   3.397   3.636  13.629 -1.1855  0.5170 -0.1399
15874TIP3    H269114   3.500   3.713  13.549  1.1287 -0.9165  1.3425
15875TIP3   OH269115   1.883   0.007   2.260 -0.2255  0.0382  0.2357
15875TIP3    H169116   1.859   0.027   2.350  1.0633  2.6073  0.0760
15875TIP3    H269117   1.910  -0.085   2.262  0.5484  0.2650  2.6519
15876TIP3   OH269118   1.045   2.125  14.563 -0.7183  0.8581  0.7515
15876TIP3    H169119   1.096   2.125  14.643 -0.0605  2.1503  0.3527
15876TIP3    H269120   0.960   2.162  14.588 -0.2259  2.0740  0.7098
15877TIP3   OH269121   0.338   4.874  15.672  0.0219  0.1917 -0.2616
15877TIP3    H169122   0.429   4.863  15.644  0.5562 -3.4248  2.2381
15877TIP3    H269123   0.303   4.786  15.675 -2.2152  1.0164  2.9232
15878TIP3   OH269124   0.351   4.999   1.202  0.0843  0.0500 -0.4059
15878TIP3    H169125   0.348   5.094   1.211 -0.9285  0.3713 -3.3544
15878TIP3    H269126   0.385   4.968   1.287 -0.6131  2.9166  1.0226
15879TIP3   OH269127   4.900   0.966   2.473  0.2903  0.4542 -0.3339
15879TIP3    H169128   4.886   0.954   2.379  2.6166  1.1646 -0.8396
15879TIP3    H269129   4.888   1.060   2.488 -1.1578  0.1907  0.3286
15880TIP3   OH269130   5.572   6.710   2.921 -0.7176  0.0198 -0.4242
15880TIP3    H169131   5.506   6.650   2.956 -0.0556  0.2102  1.2116
15880TIP3    H269132   5.521   6.774   2.871 -1.7663  0.0877  0.6850
15881TIP3   OH269133   0.416   4.028  13.605  0.9351 -0.2800  0.2398
15881TIP3    H169134   0.436   4.114  13.567 -0.2330  0.5144  1.3480
15881TIP3    H269135   0.335   4.001  13.561 -0.6985  0.8645  2.3407
15882TIP3   OH269136   0.649   4.236   4.866  0.5422  0.8573 -0.2619
15882TIP3    H169137   0.665   4.146   4.838  0.3378  0.1849  1.6088
15882TIP3    H269138   0.573   4.263   4.816  1.4330  0.5016 -1.8647
15883TIP3   OH269139   5.524   4.446  14.357 -0.1291 -0.0993  0.1962
15883TIP3    H169140   5.579   4.385  14.406  0.6800  0.3752 -0.0954
15883TIP3    H269141   5.436   4.408  14.361  0.6159 -2.1311 -1.3199
15884TIP3   OH269142   1.281   6.330   2.990  0.0747 -0.1168 -0.4561
15884TIP3    H169143   1.303   6.264   3.057  0.7955 -1.0275 -1.5452
15884TIP3    H269144   1.186   6.335   2.992  0.0294 -0.9426 -0.0930
15885TIP3   OH269145   0.627   6.753   1.234 -0.5182  0.0045  0.3683
15885TIP3    H169146   0.685   6.810   1.285  0.0499 -1.0428  0.9360
15885TIP3    H269147   0.574   6.813   1.182  2.0761  0.9880 -1.3350
15886TIP3   OH269148   6.020   6.243  14.300 -0.0110  0.0637 -0.8969
15886TIP3    H169149   6.105   6.273  14.334  0.7830 -1.3125 -1.5810
15886TIP3    H269150   5.995   6.172  14.358  0.1549 -0.6659 -1.6935
15887TIP3   OH269151   1.532   1.117  13.611  0.1931 -0.2259  0.5283
15887TIP3    H169152   1.484   1.191  13.573  2.0941  1.0748  0.4891
15887TIP3    H269153   1.543   1.056  13.539  0.5353  0.5031 -0.0542
15888TIP3   OH269154   5.319   3.233  13.834  0.2083 -0.1108  0.0547
15888TIP3    H169155   5.354   3.171  13.770  0.2988  0.2237 -0.2272
15888TIP3    H269156   5.361   3.316  13.811  1.4368 -0.2869  1.5052
15889TIP3   OH269157   4.949   1.507  13.765  0.1905  0.1831 -0.1569
15889TIP3    H169158   4.892   1.500  13.689 -0.3389 -3.6670  0.3717
15889TIP3    H269159   5.038   1.514  13.729 -0.0436 -1.6886 -1.2088
15890TIP3   OH269160   4.985   1.556   3.131 -0.1358  0.1211 -0.3935
15890TIP3    H169161   4.945   1.557   3.044 -0.6638  1.4795 -0.1652
15890TIP3    H269162   4.958   1.473   3.169 -0.6526 -0.0905 -1.1933
15891TIP3   OH269163   5.366   1.917   5.952  0.0145 -0.1604  0.5993
15891TIP3    H169164   5.327   1.856   6.016 -0.2925 -0.8710 -0.2339
15891TIP3    H269165   5.445   1.872   5.922  0.5126  0.4711  0.9629
15892TIP3   OH269166   0.420   5.962   0.565 -0.3738 -0.1503  0.0682
15892TIP3    H169167   0.402   5.955   0.658 -1.1527  1.8502  0.1064
15892TIP3    H269168   0.334   5.978   0.525 -0.0129 -0.6627 -0.9631
15893TIP3   OH269169   1.009   5.182   0.997 -0.3172  0.3978  0.0678
15893TIP3    H169170   1.073   5.126   0.954  0.9552  1.8434 -0.0363
15893TIP3    H269171   1.030   5.176   1.090 -1.4178 -0.7389  0.2719
15894TIP3   OH269172   1.048   1.208  15.054  0.3464  0.8432  0.0946
15894TIP3    H169173   0.961   1.191  15.018  0.8058  1.6224 -1.4943
15894TIP3    H269174   1.035   1.276  15.119 -0.2441  0.9073 -0.0859
15895TIP3   OH269175   0.215   4.239  15.900  0.1235 -0.5802 -0.0512
15895TIP3    H169176   0.233   4.328  15.928 -1.9198  0.0556 -0.5894
15895TIP3    H269177   0.241   4.236  15.808 -0.4006 -0.3329 -0.2102
15896TIP3   OH269178   3.305   2.675  15.131  0.0955  0.1395  0.0963
15896TIP3    H169179   3.331   2.656  15.222 -2.1727 -0.7622  0.6217
15896TIP3    H269180   3.378   2.726  15.096  1.2842  0.0613  2.2541
15897TIP3   OH269181   1.538   0.078   2.235 -0.2075  0.0091 -0.4831
15897TIP3    H169182   1.594   0.103   2.308  0.2698  1.8151 -1.4210
15897TIP3    H269183   1.517  -0.014   2.252  0.7305  0.0871  1.3614
15898TIP3   OH269184   2.643   3.325  14.398  0.2183  0.0993 -0.5250
15898TIP3    H169185   2.600   3.372  14.327 -0.6814 -0.8988 -0.6708
15898TIP3    H269186   2.686   3.393  14.450 -1.1087  1.0834 -0.6762
15899TIP3   OH269187   4.822   3.777   5.570  0.1305 -0.2993 -0.2915
15899TIP3    H169188   4.863   3.811   5.491 -1.4749 -0.0864 -1.0762
15899TIP3    H269189   4.825   3.849   5.633  1.1740 -0.3828 -0.2317
15900TIP3   OH269190   1.949   2.166   0.879  0.4641 -0.1589  0.1721
15900TIP3    H169191   1.870   2.140   0.926  0.5976  0.2814  0.6626
15900TIP3    H269192   1.997   2.219   0.943  0.1018  1.4496 -0.8385
15901TIP3   OH269193   6.321   6.401  11.202 -0.2758 -0.6057  1.3264
15901TIP3    H169194   6.340   6.323  11.150  1.2550  0.0594  0.8117
15901TIP3    H269195   6.401   6.454  11.196 -1.3158  1.0815  1.5089
15902TIP3   OH269196   5.800   1.583  14.584  0.0672  0.4414  0.1061
15902TIP3    H169197   5.792   1.671  14.547 -1.2443 -0.0973 -1.0024
15902TIP3    H269198   5.890   1.577  14.614 -0.2276  2.6798  1.5888
15903TIP3   OH269199   4.162   1.528   4.592  0.4747 -0.1644  0.0744
15903TIP3    H169200   4.108   1.607   4.602 -2.1003 -1.5436 -1.6458
15903TIP3    H269201   4.241   1.559   4.549  1.6350  2.0908  3.4057
15904TIP3   OH269202   0.140   2.280   3.097  0.1479 -0.0657  0.0827
15904TIP3    H169203   0.057   2.325   3.083  0.5108 -0.2103 -3.0585
15904TIP3    H269204   0.138   2.206   3.037  1.2388 -2.0097  2.2762
15905TIP3   OH269205   3.072   2.253   1.334  0.3739  0.5853  0.7552
15905TIP3    H169206   2.986   2.291   1.321  0.3396  0.2517 -0.0650
15905TIP3    H269207   3.101   2.228   1.247  0.2904 -1.4801  1.2753
15906TIP3   OH269208   1.137   1.719  11.743  0.0471 -0.1130 -0.1479
15906TIP3    H169209   1.069   1.726  11.810  0.4278 -0.4468  0.2864
15906TIP3    H269210   1.093   1.739  11.661 -0.5165 -0.0910  0.1562
15907TIP3   OH269211   0.611   2.343  16.496 -0.2629  0.2436 -0.2369
15907TIP3    H169212   0.601   2.294  16.577  0.6368 -1.1016 -0.9063
15907TIP3    H269213   0.608   2.276  16.427 -2.3876  1.4690 -1.4496
15908TIP3   OH269214   3.827   5.266  10.694  0.0816  0.4289 -0.1770
15908TIP3    H169215   3.733   5.254  10.708  0.1161 -0.1582 -0.4460
15908TIP3    H269216   3.833   5.341  10.634 -0.2051  0.5189 -0.0963
15909TIP3   OH269217   5.845   3.532  12.691 -0.4037  0.1476  0.1499
15909TIP3    H169218   5.883   3.451  12.657  2.3241  0.6612  1.7010
15909TIP3    H269219   5.801   3.506  12.772 -1.8174 -0.1192 -0.6548
15910TIP3   OH269220   6.762   5.005   5.789  0.1475 -0.1705 -0.0424
15910TIP3    H169221   6.722   4.970   5.710  2.1070 -2.1829 -0.2187
15910TIP3    H269222   6.704   5.078   5.814 -0.4633  0.6696 -3.3578
15911TIP3   OH269223   1.031   6.808   2.008  0.3460 -0.2070  0.4843
15911TIP3    H169224   1.008   6.739   1.946 -1.5427  0.4351  0.4297
15911TIP3    H269225   1.122   6.789   2.032  1.0623 -0.6332 -2.2649
15912TIP3   OH269226   3.177   5.059  15.250  0.4763  0.3632 -0.3955
15912TIP3    H169227   3.104   5.018  15.204  0.2301  1.3126 -0.8799
15912TIP3    H269228   3.249   4.997  15.242 -0.6065 -1.2325  1.2308
15913TIP3   OH269229   2.727   2.983   0.383  0.2672  0.5486 -0.0922
15913TIP3    H169230   2.641   3.023   0.374 -0.0916 -0.1081  0.3339
15913TIP3    H269231   2.748   2.993   0.476 -0.6146 -1.7563  0.4446
15914TIP3   OH269232   4.694   3.378  16.796 -0.4218 -0.4713  0.0425
15914TIP3    H169233   4.669   3.377  16.703  0.9056  0.6464 -0.3727
15914TIP3    H269234   4.654   3.458  16.830 -0.0790 -0.3509  0.1664
15915TIP3   OH269235   4.481   0.108  12.837  0.5304  0.0387  0.2677
15915TIP3    H169236   4.549   0.141  12.896 -0.5987  1.6922  0.7161
15915TIP3    H269237   4.409   0.171  12.844  0.3337  0.3568 -2.9053
15916TIP3   OH269238   5.757   0.719  11.311 -0.1870 -0.2251 -0.0940
15916TIP3    H169239   5.758   0.667  11.391  0.8788  0.1608  0.1565
15916TIP3    H269240   5.836   0.694  11.265  0.3252  1.1203  0.0023
15917TIP3   OH269241   5.898   2.359   3.631  0.2020 -0.1124  0.4394
15917TIP3    H169242   5.842   2.286   3.658 -1.3406  0.7398 -0.3469
15917TIP3    H269243   5.984   2.319   3.616 -0.6266 -1.7907 -0.0797
15918TIP3   OH269244   6.590   4.743   1.104 -0.2672 -0.1380  0.5144
15918TIP3    H169245   6.614   4.658   1.067  0.8281  1.1058 -1.9393
15918TIP3    H269246   6.494   4.744   1.104 -0.3404 -0.4184 -2.0614
15919TIP3   OH269247   6.805   0.675  16.771  0.2421  0.2276  0.1956
15919TIP3    H169248   6.871   0.605  16.774 -0.1892 -0.1565  0.9884
15919TIP3    H269249   6.724   0.631  16.746 -0.5849 -0.0419  3.0266
15920TIP3   OH269250   1.242   1.738  14.903  0.0554  0.0901 -0.1629
15920TIP3    H169251   1.205   1.680  14.837 -0.0133 -0.7960  0.6423
15920TIP3    H269252   1.273   1.680  14.972 -0.9812  1.0313  1.1543
15921TIP3   OH269253   2.393   1.385  13.291 -0.3250 -0.4159 -0.0635
15921TIP3    H169254   2.405   1.310  13.232 -0.0525 -0.0313 -0.5021
15921TIP3    H269255   2.466   1.380  13.352 -1.2603 -1.5152  1.0286
15922TIP3   OH269256   6.305   2.026  14.021 -0.4944  0.0166  0.5137
15922TIP3    H169257   6.369   2.092  14.045 -1.4054  1.2404 -0.3102
15922TIP3    H269258   6.263   2.060  13.943 -0.5016 -1.8885 -0.3783
15923TIP3   OH269259   5.595   4.806   4.367 -0.2486 -0.4767 -0.0590
15923TIP3    H169260   5.576   4.870   4.435 -3.2569 -0.2495 -0.9525
15923TIP3    H269261   5.646   4.854   4.301  1.9238 -0.4752  1.5164
15924TIP3   OH269262   5.665   1.654   3.072  0.2123 -0.7070  0.0667
15924TIP3    H169263   5.726   1.629   3.003 -0.1291 -0.5160 -0.3046
15924TIP3    H269264   5.626   1.736   3.042 -2.5719 -2.3493 -1.2330
15925TIP3   OH269265   1.825   0.229  16.861  0.3853 -0.1619 -0.3568
15925TIP3    H169266   1.734   0.201  16.848  0.1345  0.0914  0.7203
15925TIP3    H269267   1.826   0.267  16.948  1.5088 -0.0337 -0.4049
15926TIP3   OH269268   4.901   1.072  11.501  0.3065  0.3018 -0.1968
15926TIP3    H169269   4.973   1.058  11.440 -0.6615  0.5918 -1.4611
15926TIP3    H269270   4.881   0.984  11.534  1.3485  0.2476  0.3267
15927TIP3   OH269271   1.797   2.764   2.477 -0.0322  0.1893 -0.2309
15927TIP3    H169272   1.779   2.709   2.401  0.1598 -0.4246  0.1570
15927TIP3    H269273   1.857   2.831   2.444 -0.1623  0.0854 -0.6829
15928TIP3   OH269274   2.344   2.360   3.383  0.2608 -0.6437  0.2295
15928TIP3    H169275   2.281   2.311   3.436 -0.5180  2.0144  1.9231
15928TIP3    H269276   2.310   2.352   3.293 -0.8523 -1.6545  0.7090
15929TIP3   OH269277   2.600   5.117   4.431 -0.4441  0.0416 -0.3119
15929TIP3    H169278   2.525   5.157   4.388 -1.1096 -0.0640  0.7358
15929TIP3    H269279   2.579   5.024   4.436 -0.0274 -0.0634 -0.4384
15930TIP3   OH269280   5.373   1.353  15.620 -0.3124  0.3910  0.3959
15930TIP3    H169281   5.447   1.384  15.567 -0.2489 -1.2927 -0.5765
15930TIP3    H269282   5.399   1.372  15.710  0.5346  1.3777 -0.0316
15931TIP3   OH269283   3.273   0.274  16.148  0.1667 -0.0294  0.4660
15931TIP3    H169284   3.193   0.285  16.200 -0.7965  0.1851 -0.9895
15931TIP3    H269285   3.258   0.193  16.099  0.3952  0.5203 -0.5521
15932TIP3   OH269286   0.581   0.522   3.562  0.1383  0.0274  0.2597
15932TIP3    H169287   0.629   0.446   3.594 -0.9964 -0.7647  0.1323
15932TIP3    H269288   0.618   0.596   3.611  1.0440 -0.6374  0.6055
15933TIP3   OH269289   3.650   5.955   3.653  0.2486 -0.4865 -0.4734
15933TIP3    H169290   3.580   5.889   3.661 -0.9273  0.5673 -1.4920
15933TIP3    H269291   3.694   5.954   3.737  0.2216 -2.5169 -0.4273
15934TIP3   OH269292   6.620   0.583   2.457 -0.2456  0.1929  0.5451
15934TIP3    H169293   6.600   0.632   2.537 -1.0641 -0.5336  0.7918
15934TIP3    H269294   6.575   0.630   2.387 -0.3083  0.2865  0.6498
15935TIP3   OH269295   2.302   5.403  12.834  0.1571 -0.3391 -0.0284
15935TIP3    H169296   2.357   5.401  12.756  0.0028 -0.9041 -0.1244
15935TIP3    H269297   2.346   5.346  12.896  0.1656 -0.0586  0.2247
15936TIP3   OH269298   4.122   2.363  11.953 -0.1385 -0.0161  0.1036
15936TIP3    H169299   4.087   2.287  11.906  1.1392 -0.3556 -0.3506
15936TIP3    H269300   4.207   2.379  11.913  0.0812  0.9929  0.9223
15937TIP3   OH269301   0.008   5.380   0.061 -0.2849  0.9392  0.4201
15937TIP3    H169302   0.088   5.345   0.100  1.3954  0.6089 -2.9438
15937TIP3    H269303   0.006   5.342  -0.027 -2.6741  3.0969 -0.5773
15938TIP3   OH269304   0.872   5.928  10.402  0.3645  0.1741 -0.1278
15938TIP3    H169305   0.817   6.003  10.424 -1.6313 -1.5971  1.4533
15938TIP3    H269306   0.937   5.925  10.473 -0.4027 -0.3191  0.5768
15939TIP3   OH269307   4.099   0.889   4.936 -0.6374 -0.0251  0.0023
15939TIP3    H169308   4.044   0.964   4.914 -1.2776  0.2465  2.3347
15939TIP3    H269309   4.162   0.923   4.999 -1.3847 -1.5561  1.6411
15940TIP3   OH269310   2.664   1.801   0.453  0.5306 -0.5024 -0.4378
15940TIP3    H169311   2.680   1.734   0.386  2.1946 -0.7221  0.1317
15940TIP3    H269312   2.649   1.751   0.533  0.9080 -0.2001 -0.1789
15941TIP3   OH269313   3.123   4.149  16.651  0.1131  0.1715  0.4290
15941TIP3    H169314   3.202   4.199  16.670  0.5298 -0.4256  0.2629
15941TIP3    H269315   3.052   4.213  16.662  0.7925  1.6621 -2.7112
15942TIP3   OH269316   0.477   2.812  16.534  0.1740  0.2322  0.8107
15942TIP3    H169317   0.382   2.820  16.531  0.1780  0.5814  1.5606
15942TIP3    H269318   0.499   2.814  16.627  1.0611  1.9903  0.6142
15943TIP3   OH269319   0.201   2.080  16.085 -0.6642 -0.2660 -0.3259
15943TIP3    H169320   0.123   2.131  16.064  0.0560  0.7733 -0.5301
15943TIP3    H269321   0.188   2.052  16.175 -0.4098  1.5783  0.3320
15944TIP3   OH269322   4.992   3.070  16.782 -0.1709  0.7628 -0.5894
15944TIP3    H169323   5.073   3.024  16.804 -0.8895  0.9328  3.1723
15944TIP3    H269324   4.923   3.006  16.801 -0.9989  1.2764 -1.7707
15945TIP3   OH269325   6.276   5.913  15.954  0.4363 -0.1203 -0.1935
15945TIP3    H169326   6.303   5.828  15.991  0.7818  0.1240  0.1266
15945TIP3    H269327   6.303   5.977  16.020 -1.9478  0.0674  0.6938
15946TIP3   OH269328   5.408   1.043   4.712 -0.4609 -0.4740 -0.0953
15946TIP3    H169329   5.494   1.007   4.689 -0.8061 -1.1439 -0.3489
15946TIP3    H269330   5.350   0.967   4.716 -0.3364 -0.5582  3.5909
15947TIP3   OH269331   2.564   2.721   2.188 -0.7621  0.2694 -0.9707
15947TIP3    H169332   2.552   2.760   2.274 -1.0329 -0.6600 -0.5779
15947TIP3    H269333   2.649   2.677   2.193 -1.4963 -1.1774 -0.6107
15948TIP3   OH269334   4.060   0.717  16.490  0.3609 -0.6309  0.3564
15948TIP3    H169335   4.078   0.730  16.583  2.5735  0.1108 -0.1274
15948TIP3    H269336   4.021   0.629  16.486 -0.4947 -0.3755  2.0230
15949TIP3   OH269337   0.377   0.271  12.014 -0.6302 -0.4357  0.0815
15949TIP3    H169338   0.297   0.284  12.064 -1.5287 -2.1317 -0.8252
15949TIP3    H269339   0.374   0.336  11.944 -0.4114  0.5368  0.9536
15950TIP3   OH269340   0.973   3.258  11.040  0.3370  0.7459 -0.4117
15950TIP3    H169341   0.994   3.241  10.948 -0.4912 -0.5750 -0.3929
15950TIP3    H269342   0.883   3.226  11.050  0.6446  0.2264  1.0082
15951TIP3   OH269343   5.449   4.850   1.985  0.5525  0.4291 -0.1383
15951TIP3    H169344   5.482   4.856   2.074  2.7337  0.2394 -0.8711
15951TIP3    H269345   5.364   4.895   1.987  0.2351 -0.1676  2.1432
15952TIP3   OH269346   2.348   6.198   3.437 -0.6239 -0.6164  0.4111
15952TIP3    H169347   2.312   6.252   3.367 -0.4009 -1.3275 -0.2693
15952TIP3    H269348   2.379   6.119   3.393  3.1579  0.5198  0.6835
15953TIP3   OH269349   4.331   1.409   1.965 -0.3050 -0.0955  0.2651
15953TIP3    H169350   4.263   1.405   1.898  0.4205  0.9975 -0.5628
15953TIP3    H269351   4.340   1.502   1.986  1.2432 -0.1502  0.0117
15954TIP3   OH269352   4.220   1.722  15.667  0.8876  0.1119  0.3773
15954TIP3    H169353   4.195   1.790  15.603  1.8592  0.2131  0.0970
15954TIP3    H269354   4.181   1.752  15.749 -1.7443 -0.7979 -0.4176
15955TIP3   OH269355   4.741   6.487  14.683  0.2106 -0.7995  0.1451
15955TIP3    H169356   4.736   6.509  14.590  1.7690  0.6432  0.3606
15955TIP3    H269357   4.821   6.436  14.692  1.3600  1.0261  0.9825
15956TIP3   OH269358   1.592   0.574   1.156 -0.1044 -0.1647 -0.1404
15956TIP3    H169359   1.668   0.563   1.097 -0.2881  0.0662 -0.4270
15956TIP3    H269360   1.625   0.548   1.242  0.4882  0.5212 -0.1466
15957TIP3   OH269361   5.993   1.664   4.374  0.2693 -0.6546  0.1388
15957TIP3    H169362   5.996   1.757   4.395 -0.5705 -0.8601  1.2686
15957TIP3    H269363   5.907   1.650   4.336  0.8817 -0.7504 -1.2666
15958TIP3   OH269364   4.728   1.300  12.850 -0.6744 -0.4305  0.2595
15958TIP3    H169365   4.642   1.270  12.880 -0.7624 -2.2659 -1.6292
15958TIP3    H269366   4.712   1.337  12.763  0.1452  1.3053  0.8022
15959TIP3   OH269367   3.138   1.457  11.410 -0.0797 -0.1014 -0.3747
15959TIP3    H169368   3.148   1.531  11.470 -1.1837 -0.6266  0.4920
15959TIP3    H269369   3.159   1.493  11.324  1.4378  0.6936  0.2896
15960TIP3   OH269370   4.796   6.313   5.222  0.5048 -0.2540  0.0905
15960TIP3    H169371   4.881   6.347   5.197 -0.0305  0.5868 -0.6378
15960TIP3    H269372   4.733   6.368   5.176 -0.4325 -0.9990  0.4347
15961TIP3   OH269373   5.868   3.957   1.769 -0.0364 -0.6267 -0.2210
15961TIP3    H169374   5.885   4.024   1.835 -0.9873  1.1797 -1.7083
15961TIP3    H269375   5.927   3.980   1.697 -0.6770 -1.1316 -0.9162
15962TIP3   OH269376   1.347   1.815   4.686 -0.0632  0.1380  0.8848
15962TIP3    H169377   1.274   1.877   4.687 -0.5062 -0.3482 -0.0988
15962TIP3    H269378   1.378   1.814   4.776 -0.6263  1.1086  1.1093
15963TIP3   OH269379   6.672   0.336  16.486 -0.0431  0.2930  0.3292
15963TIP3    H169380   6.757   0.294  16.499  0.0008 -0.4242 -1.8906
15963TIP3    H269381   6.666   0.400  16.557  2.0733 -0.0395  0.8874
15964TIP3   OH269382   3.312   0.620  15.690 -0.1493  0.6987 -0.1201
15964TIP3    H169383   3.298   0.578  15.605 -2.4338  1.7068 -0.3363
15964TIP3    H269384   3.341   0.709  15.669  1.4449  0.2868  0.2444
15965TIP3   OH269385   0.922   2.265   5.774 -0.3889 -0.3559  0.1019
15965TIP3    H169386   0.970   2.206   5.715  0.4686  0.5298 -0.1251
15965TIP3    H269387   0.906   2.343   5.720 -0.1470  0.2154  0.8413
15966TIP3   OH269388   2.458   3.790  14.595  0.5039 -0.0319 -0.3840
15966TIP3    H169389   2.479   3.852  14.525 -0.3864  0.0674 -0.5740
15966TIP3    H269390   2.370   3.758  14.572 -0.4037  1.0233  1.4216
15967TIP3   OH269391   0.853   4.047  13.988  0.3286  0.4300 -0.3769
15967TIP3    H169392   0.847   4.139  13.963  0.6177  0.1483 -1.5413
15967TIP3    H269393   0.946   4.034  14.008  0.4436  0.1989 -1.0359
15968TIP3   OH269394   0.670   0.014   5.739  0.2079  0.0472  0.8061
15968TIP3    H169395   0.629   0.004   5.825  0.9749  1.2523  1.3531
15968TIP3    H269396   0.761  -0.014   5.753  0.0954 -0.6796  0.1287
15969TIP3   OH269397   0.668   1.084   3.052 -0.8375 -0.3259 -0.2341
15969TIP3    H169398   0.729   1.023   3.009 -0.7332  0.6951 -1.5983
15969TIP3    H269399   0.663   1.052   3.143  2.5604  0.1288  0.2547
15970TIP3   OH269400   3.597   1.198  13.581 -0.2985 -0.0761  0.1855
15970TIP3    H169401   3.565   1.247  13.505  0.4566 -0.4910 -0.4191
15970TIP3    H269402   3.689   1.179  13.560 -0.3922 -1.1724  0.6949
15971TIP3   OH269403   0.624   6.746  11.559  0.1180  0.3268 -0.0882
15971TIP3    H169404   0.716   6.731  11.537 -0.1344 -0.7307 -0.4826
15971TIP3    H269405   0.621   6.736  11.654  0.2483 -0.6125 -0.1737
15972TIP3   OH269406   0.836   3.362   4.690 -0.0492  0.0995  0.2659
15972TIP3    H169407   0.929   3.355   4.714  0.0870  0.0179 -0.2623
15972TIP3    H269408   0.799   3.423   4.754  0.2149 -0.3852  0.8952
15973TIP3   OH269409   2.209   5.043   5.115 -0.2412 -0.5328  0.7718
15973TIP3    H169410   2.170   4.956   5.115  0.9855 -1.1276 -0.4925
15973TIP3    H269411   2.274   5.040   5.045  1.1366  0.8098  1.9180
15974TIP3   OH269412   0.918   0.594  14.234  0.4440 -0.0316  0.0085
15974TIP3    H169413   0.892   0.605  14.326  0.0956  0.6068 -0.1611
15974TIP3    H269414   0.974   0.669  14.216 -2.0898  1.7144 -1.2115
15975TIP3   OH269415   1.771   0.668  11.717 -1.2624 -0.3050 -0.2485
15975TIP3    H169416   1.778   0.630  11.804 -1.0417 -0.5059 -0.3515
15975TIP3    H269417   1.860   0.662  11.681 -0.6004  2.5766  0.6596
15976TIP3   OH269418   2.674   1.041  14.585  0.0596 -0.0503  0.4151
15976TIP3    H169419   2.718   1.113  14.539 -0.4500  0.0113  0.0011
15976TIP3    H269420   2.716   0.962  14.552  0.6805  0.0620  0.9365
15977TIP3   OH269421   5.658   3.651  11.057  0.1956 -0.6043  0.2582
15977TIP3    H169422   5.619   3.738  11.046  0.5633 -0.4950 -0.2266
15977TIP3    H269423   5.634   3.603  10.978 -0.2657 -1.0481  0.6646
15978TIP3   OH269424   5.904   3.751   2.742  0.4604 -0.4688 -0.3649
15978TIP3    H169425   5.829   3.811   2.746 -0.5251 -1.6685 -0.3211
15978TIP3    H269426   5.979   3.806   2.766 -0.7433  0.1638  2.3932
15979TIP3   OH269427   6.334   1.417  14.561  0.4603  0.2060  0.4575
15979TIP3    H169428   6.366   1.418  14.471 -0.0984 -0.8731  0.2304
15979TIP3    H269429   6.386   1.484  14.606 -1.3216  3.0350 -1.3515
15980TIP3   OH269430   2.240   0.179  16.253 -0.0807 -0.0941  0.7709
15980TIP3    H169431   2.260   0.102  16.306  0.5368 -0.2582  0.3173
15980TIP3    H269432   2.161   0.155  16.205  1.3039 -1.3735 -1.0558
15981TIP3   OH269433   2.286   2.507  13.777 -0.1090  0.5086 -1.3491
15981TIP3    H169434   2.340   2.569  13.728  1.8967 -0.4162 -0.4277
15981TIP3    H269435   2.293   2.425  13.728  2.0624 -0.4764  0.3962
15982TIP3   OH269436   0.857   0.040  10.433  0.0423  0.0295  0.6595
15982TIP3    H169437   0.872   0.103  10.503 -2.1671  1.7425 -0.2968
15982TIP3    H269438   0.767   0.011  10.446 -0.5400  0.6296 -1.5814
15983TIP3   OH269439   4.485   5.942  14.350  0.3603  0.0095 -0.8041
15983TIP3    H169440   4.530   5.883  14.411  0.2971 -0.2974 -1.0519
15983TIP3    H269441   4.395   5.910  14.349 -0.0070  0.9663  0.1244
15984TIP3   OH269442   3.140   5.557   2.403  0.4642  0.3116 -0.2293
15984TIP3    H169443   3.069   5.612   2.370  0.2785  0.1706 -0.0687
15984TIP3    H269444   3.212   5.618   2.421 -0.2970  0.7479  1.5275
15985TIP3   OH269445   5.801   6.511  10.916 -0.3711 -0.2912 -0.3045
15985TIP3    H169446   5.717   6.516  10.871 -0.7153 -0.7379  0.2757
15985TIP3    H269447   5.858   6.463  10.855 -0.7977 -0.7861 -0.3239
15986TIP3   OH269448   3.556   0.873  13.776 -0.2623 -0.1791  0.6364
15986TIP3    H169449   3.579   0.890  13.868  0.5688 -1.0423  0.6057
15986TIP3    H269450   3.514   0.953  13.747  1.8590  1.1592  0.9939
15987TIP3   OH269451   4.268   5.415  17.205 -0.2714 -0.0429 -0.1951
15987TIP3    H169452   4.237   5.489  17.256 -0.8976  0.7277 -1.6360
15987TIP3    H269453   4.188   5.372  17.174 -0.0085  1.0398 -2.6384
15988TIP3   OH269454   3.995   1.751   4.560 -0.6959 -0.2284  0.2005
15988TIP3    H169455   3.979   1.747   4.466 -2.0264  0.2586  0.3764
15988TIP3    H269456   4.007   1.844   4.579 -1.2756 -0.2331  0.6218
15989TIP3   OH269457   5.921   6.575  12.936 -0.1230  0.1056 -0.5978
15989TIP3    H169458   5.872   6.508  12.888  0.9431 -0.4100 -1.0149
15989TIP3    H269459   5.882   6.576  13.023 -1.7136  0.6334 -1.2702
15990TIP3   OH269460   3.587   1.518   4.815  0.2229 -0.3621  0.4668
15990TIP3    H169461   3.545   1.434   4.802  1.3503 -0.7629 -0.8920
15990TIP3    H269462   3.633   1.535   4.733 -0.1479  1.6851  0.6286
15991TIP3   OH269463   5.664   2.964  14.315  0.1180 -0.0172  0.5645
15991TIP3    H169464   5.746   3.002  14.282 -0.8039  0.6476 -1.0541
15991TIP3    H269465   5.630   2.912  14.243 -1.5172  0.7301  0.7465
15992TIP3   OH269466   4.238   1.079  12.305 -0.8710  0.4910  0.6343
15992TIP3    H169467   4.191   1.001  12.276  1.1010 -0.2030 -0.9658
15992TIP3    H269468   4.170   1.145  12.320 -2.3374 -0.2401 -2.1640
15993TIP3   OH269469   4.191   5.851   3.985  0.0690  0.7059  0.6252
15993TIP3    H169470   4.153   5.907   4.053  0.7519  0.0868  1.5471
15993TIP3    H269471   4.282   5.881   3.977 -0.3125  1.5468 -0.8741
15994TIP3   OH269472   6.599   5.552   2.586  0.1462  0.5881  0.3208
15994TIP3    H169473   6.611   5.556   2.680  1.4553 -0.8273  0.2411
15994TIP3    H269474   6.534   5.483   2.573  0.5748  0.2158  0.1461
15995TIP3   OH269475   2.779   3.333   6.797 -0.2226  0.2268 -0.5358
15995TIP3    H169476   2.704   3.392   6.805  0.0734  0.5021  0.2858
15995TIP3    H269477   2.740   3.247   6.778 -0.8521  0.0853  1.2232
15996TIP3   OH269478   3.748   1.889   3.702 -0.2570  0.7111 -0.6642
15996TIP3    H169479   3.824   1.932   3.740 -0.1760 -2.5670  3.5813
15996TIP3    H269480   3.673   1.929   3.746 -0.5791  0.3205 -0.8455
15997TIP3   OH269481   5.530   1.886   3.011 -0.0490 -0.7989  0.1675
15997TIP3    H169482   5.494   1.915   3.095 -0.1270 -0.7293  0.1100
15997TIP3    H269483   5.492   1.946   2.946 -0.1647 -0.9907  0.0570
15998TIP3   OH269484   5.761   2.818  13.297  0.4811 -0.0070 -0.1955
15998TIP3    H169485   5.708   2.742  13.322 -1.2193  1.8510  2.4866
15998TIP3    H269486   5.829   2.822  13.365  2.1856 -0.5532 -1.8109
15999TIP3   OH269487   3.797   1.714   5.123 -0.1681  0.0756  0.2678
15999TIP3    H169488   3.864   1.771   5.162  0.8943  0.0791 -1.4045
15999TIP3    H269489   3.750   1.772   5.062 -2.2004  0.2329  1.8815
16000TIP3   OH269490   4.050   6.358  16.454 -0.5270 -0.0615 -0.0700
16000TIP3    H169491   4.031   6.293  16.522 -1.1198 -0.7040 -0.8334
16000TIP3    H269492   4.067   6.438  16.503 -0.6999 -0.5702  0.8573
16001TIP3   OH269493   4.661   0.804  14.859  0.0956  0.6948  0.2282
16001TIP3    H169494   4.625   0.726  14.816  3.4060  0.1031 -1.8034
16001TIP3    H269495   4.703   0.770  14.939 -1.6742  1.0425  1.3566
16002TIP3   OH269496   3.963   2.550  12.856  0.6250  0.7302 -0.0762
16002TIP3    H169497   3.908   2.544  12.933  0.8732  0.6586  0.0955
16002TIP3    H269498   3.992   2.641  12.854 -0.0208  0.9319 -0.5287
16003TIP3   OH269499   4.159   2.643   0.131 -0.1766 -0.4250  0.0570
16003TIP3    H169500   4.180   2.735   0.117  0.7286 -0.9466 -2.7992
16003TIP3    H269501   4.240   2.596   0.109 -1.2010 -1.9841 -0.5967
16004TIP3   OH269502   4.215   6.290  13.707 -0.5952 -0.0234  0.3785
16004TIP3    H169503   4.177   6.362  13.656  3.8919  1.7603 -1.0193
16004TIP3    H269504   4.261   6.237  13.642  1.7296 -0.1887  2.0154
16005TIP3   OH269505   2.239   2.926  12.798 -0.1227  0.1214 -0.0352
16005TIP3    H169506   2.266   2.982  12.725 -1.1866 -0.8004 -1.1845
16005TIP3    H269507   2.285   2.843  12.782  0.6370  0.3052  1.0805
16006TIP3   OH269508   0.748   2.875   4.584  0.8698  0.1011 -0.4637
16006TIP3    H169509   0.765   2.782   4.568 -1.8716 -0.9296  1.6658
16006TIP3    H269510   0.767   2.887   4.677 -1.9433  0.6859  0.1554
16007TIP3   OH269511   3.639   6.013  11.412  0.8651  0.4244  0.4876
16007TIP3    H169512   3.673   6.014  11.502 -2.2875 -1.8721  1.9159
16007TIP3    H269513   3.651   5.922  11.384 -1.6324  0.1455  0.1584
16008TIP3   OH269514   4.133   4.009  14.558  0.6628  0.6456  0.0594
16008TIP3    H169515   4.060   3.975  14.610  1.5008  0.3206  1.0575
16008TIP3    H269516   4.139   3.950  14.483  1.0937 -0.4889  0.9546
16009TIP3   OH269517   5.792   6.433   4.196 -0.3895  0.2200 -0.0837
16009TIP3    H169518   5.801   6.524   4.222  1.8631  0.2542 -0.8125
16009TIP3    H269519   5.775   6.437   4.101 -1.0126 -0.1172  0.0054
16010TIP3   OH269520   4.237   2.550   5.931 -0.3747 -0.2154  0.0167
16010TIP3    H169521   4.312   2.512   5.978  0.6756  0.9765 -0.6497
16010TIP3    H269522   4.161   2.520   5.980  0.5537 -1.1498  0.9402
16011TIP3   OH269523   5.803   4.142   2.514  0.3601  0.1084  0.5808
16011TIP3    H169524   5.865   4.112   2.580 -0.4339  0.0486  1.3180
16011TIP3    H269525   5.729   4.081   2.521  0.3630 -0.0383 -0.5203
16012TIP3   OH269526   4.678   4.630  16.098 -0.1311 -0.1741 -0.1334
16012TIP3    H169527   4.714   4.719  16.097  1.3200 -0.7490 -0.9091
16012TIP3    H269528   4.745   4.576  16.056 -1.7084 -1.3754 -1.2114
16013TIP3   OH269529   2.868   1.426  10.824  0.1939  0.4896 -0.1522
16013TIP3    H169530   2.906   1.341  10.844 -0.1329 -0.1492 -2.0936
16013TIP3    H269531   2.936   1.471  10.773 -0.5116  0.4793 -1.1227
16014TIP3   OH269532   2.523   1.928   4.615  0.2429 -0.3810 -0.0287
16014TIP3    H169533   2.527   1.922   4.710 -0.4142 -0.0875  0.0230
16014TIP3    H269534   2.594   1.988   4.592  0.0136  0.0356  0.3296
16015TIP3   OH269535   0.291   1.752  12.080 -0.1307 -0.6802 -0.0126
16015TIP3    H169536   0.238   1.791  12.010  0.8718 -2.0665 -1.6366
16015TIP3    H269537   0.298   1.659  12.055  2.3538 -0.7064  0.5518
16016TIP3   OH269538   4.136   3.667   3.849 -0.7498 -0.2554  0.2292
16016TIP3    H169539   4.094   3.750   3.872 -0.7289  0.0368 -0.7617
16016TIP3    H269540   4.195   3.689   3.776  1.0426 -0.6790  1.4790
16017TIP3   OH269541   3.137   6.000  15.586  0.0858  0.5718 -0.0160
16017TIP3    H169542   3.111   6.054  15.660 -1.0625  1.0323 -0.7382
16017TIP3    H269543   3.231   6.017  15.576  0.4018 -0.0230  1.7358
16018TIP3   OH269544   4.503   3.183  15.522  0.5786  0.0399  0.0354
16018TIP3    H169545   4.543   3.097  15.528  0.8998 -0.0186 -2.0744
16018TIP3    H269546   4.431   3.172  15.459 -0.7895  0.8506  1.3798
16019TIP3   OH269547   3.622   2.979  13.656 -0.6671 -0.1529 -0.2195
16019TIP3    H169548   3.552   2.929  13.614 -0.8490 -0.6163  0.6252
16019TIP3    H269549   3.702   2.950  13.613 -1.1001  1.5635 -2.3603
16020TIP3   OH269550   0.278   2.325  10.907  0.0336  0.2077  0.2076
16020TIP3    H169551   0.341   2.372  10.962 -0.9638  2.0268 -0.1032
16020TIP3    H269552   0.330   2.288  10.836  0.9175  0.5058  0.6818
16021TIP3   OH269553   0.830   5.331   1.442 -0.4088 -0.2786 -0.3912
16021TIP3    H169554   0.782   5.325   1.359 -1.4873  0.4675  0.1506
16021TIP3    H269555   0.899   5.394   1.425 -0.4184 -0.3705 -0.8059
16022TIP3   OH269556   1.427   3.044  16.618 -0.5342 -0.1654  0.2261
16022TIP3    H169557   1.358   3.039  16.552  0.5887  1.4674 -1.1804
16022TIP3    H269558   1.496   2.986  16.585  1.2025  2.6930 -1.7075
16023TIP3   OH269559   6.145   0.666   2.608  0.0239 -0.4718  0.6509
16023TIP3    H169560   6.107   0.720   2.677 -2.5497  0.3277 -1.2487
16023TIP3    H269561   6.085   0.592   2.599  0.2484 -0.5089 -0.7798
16024TIP3   OH269562   3.199   6.637   3.024  0.4012 -0.0831  0.2156
16024TIP3    H169563   3.121   6.615   3.076 -0.6104 -0.1037 -1.2679
16024TIP3    H269564   3.244   6.554   3.014 -0.9601 -0.6775 -1.4003
16025TIP3   OH269565   3.187   6.411   5.106  0.1642 -0.9068  0.4035
16025TIP3    H169566   3.212   6.401   5.014  0.4200  1.3370  0.1695
16025TIP3    H269567   3.267   6.392   5.154  0.8146  0.5995 -0.0267
16026TIP3   OH269568   4.699   2.811  11.433 -0.0274 -0.2390  0.2550
16026TIP3    H169569   4.692   2.727  11.387 -0.4850 -0.3760  0.5635
16026TIP3    H269570   4.792   2.820  11.453  0.1292 -0.3212 -0.4234
16027TIP3   OH269571   3.494   0.466  13.417  0.1361 -0.5050 -0.3098
16027TIP3    H169572   3.561   0.445  13.352  3.1512 -2.4106  3.0637
16027TIP3    H269573   3.529   0.540  13.466 -0.9800 -0.5494  0.6104
16028TIP3   OH269574   6.520   6.215  17.283 -0.8318 -0.2137  0.0541
16028TIP3    H169575   6.445   6.211  17.224 -1.0927 -1.6066  0.4584
16028TIP3    H269576   6.527   6.308  17.306 -2.2918 -0.0286 -0.1560
16029TIP3   OH269577   1.464   5.138  12.172 -0.8109 -0.0109 -0.1376
16029TIP3    H169578   1.449   5.140  12.078 -2.0142  1.2789  0.0564
16029TIP3    H269579   1.465   5.044  12.194  3.3509 -0.6314 -1.9221
16030TIP3   OH269580   2.417   6.014   0.989 -0.2154 -0.0777  0.4463
16030TIP3    H169581   2.442   5.991   0.900 -0.8361 -0.4274  0.3535
16030TIP3    H269582   2.415   5.930   1.036 -0.1667  0.0714  0.7182
16031TIP3   OH269583   6.736   3.609  11.489  0.1602  0.2874 -0.0238
16031TIP3    H169584   6.670   3.540  11.483 -0.4310  0.6394  1.9030
16031TIP3    H269585   6.814   3.565  11.523 -0.2464  0.5442  1.3002
16032TIP3   OH269586   6.700   5.919  11.797  0.1918  0.1300  0.8042
16032TIP3    H169587   6.614   5.940  11.833 -1.0664  1.1614 -2.4215
16032TIP3    H269588   6.741   6.004  11.779  0.8816 -0.3137  0.1703
16033TIP3   OH269589   6.425   6.304  14.479  0.6213  0.4182  0.3700
16033TIP3    H169590   6.361   6.340  14.418  2.4433  0.3993 -1.6668
16033TIP3    H269591   6.382   6.310  14.565 -0.9943  2.9649 -0.4920
16034TIP3   OH269592   5.447   2.753  15.021  0.1656 -0.1527 -0.4529
16034TIP3    H169593   5.446   2.679  14.961 -0.0969 -0.9904  0.5720
16034TIP3    H269594   5.444   2.714  15.108  1.4890  0.9985  0.1583
16035TIP3   OH269595   2.179   5.817  16.854 -0.5234 -0.6039 -0.0259
16035TIP3    H169596   2.095   5.862  16.843 -0.3301 -0.0139  0.7784
16035TIP3    H269597   2.232   5.847  16.780 -0.2704  0.8274  0.6924
16036TIP3   OH269598   3.943   2.527   4.043 -0.2702 -0.1444 -0.7756
16036TIP3    H169599   4.000   2.604   4.036 -0.0481 -0.3267 -0.9992
16036TIP3    H269600   3.858   2.563   4.068  0.1747  0.0483  0.5616
16037TIP3   OH269601   1.867   1.198  14.019  0.1478 -0.2861  0.3378
16037TIP3    H169602   1.805   1.207  13.947  0.1951  0.0322  0.3359
16037TIP3    H269603   1.919   1.120  13.997 -0.1615 -0.4734  0.2723
16038TIP3   OH269604   5.233   1.397   0.119 -0.7927  0.4630 -0.0873
16038TIP3    H169605   5.254   1.362   0.032 -0.5736 -0.5422  0.3654
16038TIP3    H269606   5.298   1.466   0.133  0.4113 -0.6748  0.0885
16039TIP3   OH269607   3.549   1.955   3.898  0.0962  0.5609  0.7193
16039TIP3    H169608   3.463   1.967   3.856  0.6166 -1.2033 -0.9837
16039TIP3    H269609   3.528   1.916   3.983 -0.7801 -0.9675 -0.1562
16040TIP3   OH269610   2.971   6.757  12.903 -0.4397 -0.1274 -0.3136
16040TIP3    H169611   3.022   6.703  12.964 -0.2378 -2.7909 -2.6366
16040TIP3    H269612   3.021   6.838  12.895  0.5457 -0.4981  1.5201
16041TIP3   OH269613   2.529   0.622   3.174  0.3031 -0.3201 -0.5050
16041TIP3    H169614   2.607   0.675   3.191 -0.2232  0.4073 -0.2965
16041TIP3    H269615   2.560   0.550   3.120  1.0065  0.3010 -0.9447
16042TIP3   OH269616   0.563   3.470   5.629  0.3701 -0.0070 -0.4466
16042TIP3    H169617   0.476   3.431   5.641 -0.6562  1.8196 -1.3792
16042TIP3    H269618   0.619   3.426   5.693 -0.5984 -3.0488 -1.5142
16043TIP3   OH269619   4.610   4.995  12.038 -0.0947  1.1717  0.4226
16043TIP3    H169620   4.624   5.050  11.961  0.0917 -0.7558 -1.0113
16043TIP3    H269621   4.692   4.946  12.047 -0.1203  1.3725  1.8681
16044TIP3   OH269622   0.980   0.725  14.844 -0.3925  0.2314 -0.2604
16044TIP3    H169623   1.028   0.807  14.849  1.0285 -0.5740  0.0455
16044TIP3    H269624   0.893   0.749  14.812 -0.6320  2.0654  1.5809
16045TIP3   OH269625   6.330   1.617  14.852  0.0082 -0.0264  0.0889
16045TIP3    H169626   6.424   1.633  14.843 -0.2565  0.8038 -1.6851
16045TIP3    H269627   6.297   1.694  14.899  0.1070  0.0413  0.0487
16046TIP3   OH269628   4.214   0.444  15.994  0.0004 -0.4646  0.1771
16046TIP3    H169629   4.165   0.514  15.951  1.1668 -0.9760 -2.1704
16046TIP3    H269630   4.270   0.489  16.057 -1.1808  0.4110  0.6360
16047TIP3   OH269631   5.662   1.476   4.863  0.1971  0.1809 -0.6048
16047TIP3    H169632   5.597   1.433   4.807  1.3092  0.4072 -2.1481
16047TIP3    H269633   5.726   1.407   4.883  1.4160  0.7876 -2.2000
16048TIP3   OH269634   4.275   2.980  14.355 -0.1678 -0.2068 -0.0076
16048TIP3    H169635   4.225   2.961  14.276 -0.0919  1.2142 -0.4241
16048TIP3    H269636   4.245   3.066  14.383 -0.1914 -0.6842  1.5269
16049TIP3   OH269637   1.769   2.620  12.460 -0.1794  0.4031 -0.1510
16049TIP3    H169638   1.786   2.664  12.543 -1.8857  0.4085  0.2334
16049TIP3    H269639   1.674   2.619  12.452 -0.0839  2.0009 -2.9841
16050TIP3   OH269640   6.525   3.009   0.079 -0.0540  0.2146 -0.1675
16050TIP3    H169641   6.501   2.938   0.138  0.1340 -1.2172 -1.7161
16050TIP3    H269642   6.603   3.048   0.119 -0.8051  0.2847  1.2694
16051TIP3   OH269643   6.366   4.665  15.420  0.7905 -0.3250  0.0384
16051TIP3    H169644   6.386   4.756  15.443 -0.3857  0.1218 -0.5882
16051TIP3    H269645   6.354   4.621  15.505 -0.5988  0.5969  0.3615
16052TIP3   OH269646   4.010   5.505   0.258  1.0163 -0.1616 -0.4746
16052TIP3    H169647   3.989   5.425   0.210  2.1958 -0.3363 -0.7415
16052TIP3    H269648   3.927   5.553   0.264  0.1599 -1.6611  0.2048
16053TIP3   OH269649   5.478   2.022  11.013 -0.1914  0.0883  0.0060
16053TIP3    H169650   5.538   1.984  10.949  1.0171  3.4737 -1.0746
16053TIP3    H269651   5.513   1.995  11.098  0.5564 -1.1692 -0.6824
16054TIP3   OH269652   5.214   6.059  12.887 -0.1143 -0.1922  0.4807
16054TIP3    H169653   5.140   6.118  12.899  0.7125  0.7664  1.0310
16054TIP3    H269654   5.256   6.088  12.806  0.5809  0.3221  1.0096
16055TIP3   OH269655   4.650   2.973  15.606 -0.0599  0.5305 -0.1405
16055TIP3    H169656   4.691   2.928  15.532 -1.3881 -0.4638 -0.3079
16055TIP3    H269657   4.714   2.967  15.677  0.6544  0.2539 -0.8037
16056TIP3   OH269658   1.746   6.094   5.750  1.0532  0.0485  0.3172
16056TIP3    H169659   1.755   6.008   5.791  3.4463 -0.6228 -1.4582
16056TIP3    H269660   1.819   6.146   5.785  1.1507  0.5225 -0.5485
16057TIP3   OH269661   6.164   3.951  12.908 -0.1440  0.3718 -0.1124
16057TIP3    H169662   6.079   3.973  12.946  0.3612  3.0653 -0.2971
16057TIP3    H269663   6.174   4.012  12.835  1.5588 -0.4872 -0.6471
16058TIP3   OH269664   5.906   6.582  16.500  0.2297 -0.0207 -0.4382
16058TIP3    H169665   5.879   6.538  16.420  1.5795 -1.8082  0.0116
16058TIP3    H269666   5.997   6.607  16.484  1.1344 -2.0329  1.0981
16059TIP3   OH269667   1.544   0.957   5.161  0.2246 -0.0562 -0.0445
16059TIP3    H169668   1.519   0.886   5.102 -0.1013  0.1902 -0.2089
16059TIP3    H269669   1.639   0.953   5.165  0.2683  0.1043 -0.8190
16060TIP3   OH269670   0.972   0.810  13.266  0.1480  0.4039  0.3378
16060TIP3    H169671   1.007   0.858  13.191  0.2757  0.5725  0.5041
16060TIP3    H269672   0.907   0.869  13.304 -1.9300 -0.7297 -1.2255
16061TIP3   OH269673   0.910   5.032   1.882  0.2323  0.5026  0.4984
16061TIP3    H169674   0.955   5.115   1.868 -0.3309  1.0519  1.8462
16061TIP3    H269675   0.817   5.055   1.886  0.0934 -0.1465  1.2429
16062TIP3   OH269676   5.688   1.787  16.842 -0.5360  0.1787 -0.2240
16062TIP3    H169677   5.623   1.808  16.775 -0.1645  1.0166 -0.3349
16062TIP3    H269678   5.750   1.860  16.839  0.0969 -0.3227  0.2694
16063TIP3   OH269679   2.250   6.700  16.655 -0.4016  0.4137 -0.1597
16063TIP3    H169680   2.315   6.691  16.725 -0.0565  0.9124 -0.4137
16063TIP3    H269681   2.230   6.609  16.630  1.9457  0.2413 -1.6695
16064TIP3   OH269682   4.977   3.392   4.799  0.6698  0.1328 -0.3949
16064TIP3    H169683   4.952   3.309   4.759 -0.8370  0.1033  0.5501
16064TIP3    H269684   4.894   3.432   4.826  1.5612  0.4042  2.2175
16065TIP3   OH269685   1.557   5.641   2.300 -0.0637 -0.3589 -0.5985
16065TIP3    H169686   1.519   5.725   2.323 -0.8697 -0.5388 -1.2167
16065TIP3    H269687   1.583   5.602   2.383  0.1570  0.4228 -0.3005
16066TIP3   OH269688   1.654   2.070   1.814 -0.5085 -0.5088 -0.1405
16066TIP3    H169689   1.738   2.086   1.772 -1.6406 -0.0753 -2.4339
16066TIP3    H269690   1.589   2.098   1.749 -2.4371  0.7608  2.1706
16067TIP3   OH269691   5.985   1.824   5.206 -0.6653 -0.6728  0.1860
16067TIP3    H169692   6.011   1.769   5.132 -1.2083  3.0729 -3.2008
16067TIP3    H269693   5.893   1.845   5.189  0.0401  2.8144 -0.0546
16068TIP3   OH269694   3.371   4.686  17.256  0.3127 -0.0545 -0.3836
16068TIP3    H169695   3.322   4.604  17.254  1.4316 -0.7393 -1.9147
16068TIP3    H269696   3.403   4.697  17.166  1.1699  1.4450  0.0698
16069TIP3   OH269697   1.163   5.255  13.169  0.3093  0.1364  0.1983
16069TIP3    H169698   1.199   5.230  13.084  0.0956  0.7167 -0.0710
16069TIP3    H269699   1.239   5.283  13.220  0.4033  0.0767  0.0915
16070TIP3   OH269700   2.094   5.726   2.051 -0.2437 -0.0943  0.2073
16070TIP3    H169701   2.023   5.703   2.111 -0.5908 -0.8482 -0.4851
16070TIP3    H269702   2.153   5.651   2.054 -0.9127 -0.7308 -1.3503
16071TIP3   OH269703   5.544   3.489  12.619 -0.8788  0.0615 -0.0502
16071TIP3    H169704   5.567   3.561  12.677  0.5807 -0.1006 -0.3809
16071TIP3    H269705   5.613   3.423  12.634  1.0325  0.9651 -3.6049
16072TIP3   OH269706   2.167   4.613   3.555 -0.2009 -0.0584 -0.0768
16072TIP3    H169707   2.095   4.675   3.563  0.9858  1.2628  0.9915
16072TIP3    H269708   2.193   4.618   3.463 -2.1423 -1.4336 -0.7793
16073TIP3   OH269709   3.457   6.234  11.472 -0.0983 -0.2274  0.9027
16073TIP3    H169710   3.505   6.307  11.432 -1.5918  0.5348  0.4203
16073TIP3    H269711   3.523   6.166  11.484  0.8481  0.2882 -0.9489
16074TIP3   OH269712   5.056   5.366  11.879  0.0456  0.2539  0.3853
16074TIP3    H169713   5.122   5.303  11.848 -0.3361 -0.1125  0.3155
16074TIP3    H269714   5.010   5.393  11.799  0.6925  1.1967  0.3057
16075TIP3   OH269715   1.384   4.888   1.668 -0.4207  0.1137 -0.6067
16075TIP3    H169716   1.311   4.949   1.670 -0.4940  0.0394 -0.9700
16075TIP3    H269717   1.461   4.943   1.650 -0.2626  0.3049  0.6015
16076TIP3   OH269718   1.476   4.494  16.946 -0.2907 -0.0600  0.2466
16076TIP3    H169719   1.553   4.534  16.906 -0.5181 -0.7190 -0.9038
16076TIP3    H269720   1.489   4.400  16.932 -2.5488 -0.0825 -2.4211
16077TIP3   OH269721   6.701   0.379   3.733  0.1313 -0.5437  0.3999
16077TIP3    H169722   6.765   0.392   3.663 -2.5567  0.4910 -2.0390
16077TIP3    H269723   6.752   0.390   3.814  2.8757  1.0780 -1.3825
16078TIP3   OH269724   6.121   3.605   4.018 -0.1100  0.0705 -0.0350
16078TIP3    H169725   6.156   3.694   4.019  0.5074 -0.1312 -1.1367
16078TIP3    H269726   6.102   3.585   4.109 -0.6702  1.4830  0.1843
16079TIP3   OH269727   0.467   0.803  16.851  0.4088 -0.7584  0.2063
16079TIP3    H169728   0.538   0.860  16.882 -0.9936  0.4948  1.2409
16079TIP3    H269729   0.476   0.723  16.902 -0.7267  0.5603  2.6151
16080TIP3   OH269730   2.028   3.585   5.869  0.1634 -0.1054 -0.7177
16080TIP3    H169731   2.116   3.562   5.897  0.1256  0.6681  0.0735
16080TIP3    H269732   2.041   3.641   5.793  0.2839 -1.6328 -1.8689
16081TIP3   OH269733   4.534   1.253  13.315  0.1205  0.4631  0.1253
16081TIP3    H169734   4.603   1.248  13.248  0.3049  2.2986  0.1456
16081TIP3    H269735   4.489   1.335  13.297 -1.3078 -0.1381  0.8627
16082TIP3   OH269736   3.351   2.035  13.747 -0.3282  0.2773 -0.3515
16082TIP3    H169737   3.407   1.958  13.753 -1.2161 -0.5406 -1.8292
16082TIP3    H269738   3.366   2.069  13.659 -1.4084  0.6065 -0.4260
16083TIP3   OH269739   5.433   1.936   6.904 -0.0804 -0.4478 -0.3138
16083TIP3    H169740   5.426   1.841   6.896 -0.0448 -0.5434  0.6361
16083TIP3    H269741   5.346   1.968   6.884  0.0596 -0.6237 -1.2566
16084TIP3   OH269742   5.964   5.167   4.002 -0.5268  0.4031 -0.6437
16084TIP3    H169743   5.901   5.232   3.971 -0.8233  0.9730  1.0360
16084TIP3    H269744   6.029   5.218   4.050 -1.4325 -0.5638  1.7770
16085TIP3   OH269745   4.999   4.797   1.558 -0.2772 -0.0843 -0.2943
16085TIP3    H169746   4.967   4.866   1.616 -0.6464  0.6854 -1.3685
16085TIP3    H269747   4.947   4.720   1.582 -2.0862  0.8106 -1.1075
16086TIP3   OH269748   3.210   5.090  11.512  0.8357  0.8307  0.1838
16086TIP3    H169749   3.134   5.095  11.453  1.0084 -0.5696 -0.2123
16086TIP3    H269750   3.248   5.178  11.509  0.0190  1.1836 -0.6907
16087TIP3   OH269751   2.601   4.361  16.284 -0.5700 -0.0109 -0.0003
16087TIP3    H169752   2.566   4.377  16.196 -0.0387  0.9176 -0.0558
16087TIP3    H269753   2.584   4.268  16.300 -1.0498 -0.0944 -0.9139
16088TIP3   OH269754   0.431   4.126   1.125 -1.1179  0.1824  0.8006
16088TIP3    H169755   0.463   4.052   1.176  1.9171  0.5127 -0.4353
16088TIP3    H269756   0.453   4.203   1.179  2.6822  0.5820 -1.0018
16089TIP3   OH269757   0.206   0.727  14.964  0.2353 -0.6554 -0.0195
16089TIP3    H169758   0.264   0.798  14.936  0.9365 -0.6598  1.3517
16089TIP3    H269759   0.164   0.697  14.883  0.8520  0.4965 -0.7895
16090TIP3   OH269760   4.049   3.562   4.724  0.1519  0.2294 -0.5836
16090TIP3    H169761   3.956   3.579   4.716 -0.0961 -0.5443  0.4704
16090TIP3    H269762   4.089   3.615   4.655 -1.0621  0.5010 -1.1057
16091TIP3   OH269763   2.097   1.277  11.475 -0.5446  0.2618  0.2801
16091TIP3    H169764   2.192   1.286  11.466 -0.2313 -0.9437  1.9322
16091TIP3    H269765   2.070   1.230  11.396  0.2887  0.2666 -0.0263
16092TIP3   OH269766   4.557   2.643   1.417  0.2592  0.0119 -0.2154
16092TIP3    H169767   4.562   2.701   1.341  0.9598 -0.6605 -0.6945
16092TIP3    H269768   4.641   2.597   1.417  0.5114  0.4299  1.3168
16093TIP3   OH269769   0.309   5.062  12.364 -0.1202 -0.5115 -0.2870
16093TIP3    H169770   0.387   5.117  12.373  0.5694 -1.5159 -0.0391
16093TIP3    H269771   0.325   4.987  12.421 -1.8447 -0.1103  0.8182
16094TIP3   OH269772   4.226   0.075  12.988 -0.1803  0.1826 -0.5215
16094TIP3    H169773   4.179   0.072  13.071 -0.7006  1.6978 -0.7224
16094TIP3    H269774   4.238   0.169  12.971 -1.3133 -0.0183 -2.8302
16095TIP3   OH269775   4.061   4.504  16.065  0.4961 -0.1986 -0.5641
16095TIP3    H169776   3.978   4.540  16.036  0.0114 -0.1751  0.7895
16095TIP3    H269777   4.068   4.420  16.019 -1.6983 -1.5857  1.4411
16096TIP3   OH269778   5.955   1.131  11.412 -0.5058 -0.0994 -0.0391
16096TIP3    H169779   5.878   1.077  11.393  0.1898 -0.5943 -1.6506
16096TIP3    H269780   5.924   1.221  11.404 -1.1273 -0.2829  0.2779
16097TIP3   OH269781   3.262   5.995   1.041 -0.5466 -0.1325  0.9648
16097TIP3    H169782   3.329   5.969   0.978  0.1533  0.6330  1.3785
16097TIP3    H269783   3.261   5.924   1.105 -1.9067 -1.3764 -0.3431
16098TIP3   OH269784   5.601   2.503  12.433  0.2213 -0.5232 -0.4545
16098TIP3    H169785   5.604   2.524  12.340  1.4851  0.1205 -0.2987
16098TIP3    H269786   5.580   2.410  12.436 -0.2078 -0.4651 -1.3675
16099TIP3   OH269787   3.082   6.744   6.352  0.7838 -0.5824  0.6837
16099TIP3    H169788   2.993   6.779   6.350  1.3078  0.8611  1.5537
16099TIP3    H269789   3.075   6.659   6.308 -0.6668  0.2928 -0.9047
16100TIP3   OH269790   0.068   2.310   5.621  0.4795  0.1542 -0.0339
16100TIP3    H169791   0.140   2.246   5.626  0.6535  0.1076 -2.1221
16100TIP3    H269792   0.108   2.393   5.647  0.9687 -0.0927  0.0186
16101TIP3   OH269793   5.078   6.312   3.642  0.2675  0.7491  0.0214
16101TIP3    H169794   5.092   6.395   3.687  1.3787  0.9233 -0.5967
16101TIP3    H269795   5.165   6.287   3.609 -0.7272  1.7660 -3.9727
16102TIP3   OH269796   1.401   6.015   4.273  0.2046 -0.4510  0.4715
16102TIP3    H169797   1.360   5.929   4.287  0.3393 -1.1543 -2.6672
16102TIP3    H269798   1.495   5.997   4.279  0.2306 -0.5020 -0.1043
16103TIP3   OH269799   6.337   1.956   6.457 -0.0036 -0.8029  0.2243
16103TIP3    H169800   6.311   1.927   6.369  1.9419  1.0772 -1.0898
16103TIP3    H269801   6.275   2.025   6.478  0.7631  0.1880 -0.6494
16104TIP3   OH269802   1.283   5.451   5.171 -0.3736 -0.1262 -0.3582
16104TIP3    H169803   1.189   5.470   5.177 -0.7327 -1.2102 -1.9883
16104TIP3    H269804   1.296   5.422   5.081  1.1674 -1.9842  0.4052
16105TIP3   OH269805   1.490   5.540   2.803  0.9941 -0.3258  0.2817
16105TIP3    H169806   1.416   5.560   2.746  2.0834 -0.2652 -1.1852
16105TIP3    H269807   1.486   5.445   2.815  0.8896 -0.3790 -0.1358
16106TIP3   OH269808   1.556   3.074   4.049 -0.3261 -0.2137  0.2312
16106TIP3    H169809   1.598   3.159   4.036 -0.0797 -0.4604 -0.7212
16106TIP3    H269810   1.588   3.020   3.976 -3.2649 -0.0416 -1.3755
16107TIP3   OH269811   4.706   0.165  16.930  0.4152  0.0163  0.3590
16107TIP3    H169812   4.627   0.156  16.878  0.7445  0.0928 -0.1561
16107TIP3    H269813   4.775   0.124  16.878  0.6169 -0.5281  1.0405
16108TIP3   OH269814   3.244   0.812   5.757 -0.1444 -0.4099  0.1315
16108TIP3    H169815   3.252   0.906   5.773  1.1779 -0.4298 -0.2568
16108TIP3    H269816   3.250   0.803   5.662  1.1174 -0.9670  0.2390
16109TIP3   OH269817   3.009   0.123   3.641 -0.0987 -0.1374 -0.8061
16109TIP3    H169818   3.053   0.177   3.574  0.0218  0.7237 -0.0511
16109TIP3    H269819   2.917   0.122   3.614  0.4492 -2.8338 -2.9961
16110TIP3   OH269820   2.709   0.635   2.515  0.6336 -0.3906  0.4878
16110TIP3    H169821   2.750   0.716   2.484  1.2429  0.1804  2.6034
16110TIP3    H269822   2.782   0.576   2.532  0.4435 -0.2367  1.9477
16111TIP3   OH269823   1.496   1.164  11.948 -0.4782  0.6197  0.5416
16111TIP3    H169824   1.517   1.072  11.964 -0.4470  0.5754  0.2520
16111TIP3    H269825   1.458   1.165  11.860 -1.1903  0.7731  0.8460
16112TIP3   OH269826   1.335   0.521   2.124 -0.6230  0.6673  0.4269
16112TIP3    H169827   1.361   0.571   2.201  1.9194 -0.8268  0.6622
16112TIP3    H269828   1.304   0.438   2.159 -0.4351  0.3639 -0.1158
16113TIP3   OH269829   5.858   4.165   5.878 -0.3332 -0.1383  0.3082
16113TIP3    H169830   5.797   4.232   5.911  0.5825  0.9084 -0.0655
16113TIP3    H269831   5.937   4.178   5.929 -0.3475 -1.3985  0.6865
16114TIP3   OH269832   4.918   3.915   4.276 -0.6118  0.8271  0.4213
16114TIP3    H169833   4.858   3.874   4.337  0.6011  1.4799  2.1378
16114TIP3    H269834   4.913   4.009   4.296  0.8945  0.9045  0.5611
16115TIP3   OH269835   5.393   6.159   0.997  0.1518  0.6123  1.0586
16115TIP3    H169836   5.484   6.128   0.998 -0.4219 -1.1782  0.5502
16115TIP3    H269837   5.381   6.192   0.908 -0.1803 -0.7844  0.5554
16116TIP3   OH269838   2.059   5.149   1.883 -0.6497  0.2004 -0.2491
16116TIP3    H169839   2.114   5.099   1.822 -1.4755  0.1307 -0.9550
16116TIP3    H269840   2.005   5.204   1.826 -0.3207  1.3160  0.4901
16117TIP3   OH269841   5.212   0.118  14.920 -0.5616  0.0930  0.5943
16117TIP3    H169842   5.174   0.045  14.967  0.3073 -0.0762  1.0453
16117TIP3    H269843   5.264   0.165  14.985  0.2816  0.1175 -0.0807
16118TIP3   OH269844   2.660   1.261  14.385  0.0568 -0.4986  0.1329
16118TIP3    H169845   2.665   1.339  14.329  1.1558 -0.8029 -0.2178
16118TIP3    H269846   2.640   1.189  14.324 -1.1206 -0.4878  0.4761
16119TIP3   OH269847   0.413   0.074   1.095  0.2632 -0.5825 -0.4126
16119TIP3    H169848   0.395   0.061   1.002 -0.6885  0.2786 -0.3718
16119TIP3    H269849   0.491   0.128   1.098 -0.0047 -0.1793 -0.7262
16120TIP3   OH269850   4.245   6.219  11.451 -0.0426 -0.1373  0.2121
16120TIP3    H169851   4.313   6.249  11.511 -0.5827  0.3645  0.5814
16120TIP3    H269852   4.173   6.280  11.463 -0.7559 -0.9518  0.1817
16121TIP3   OH269853   5.911   5.862  14.774 -0.0622  0.4009 -0.0204
16121TIP3    H169854   6.000   5.870  14.808 -0.4559 -1.6917  1.6948
16121TIP3    H269855   5.859   5.923  14.827  0.1403  0.7817 -0.2545
16122TIP3   OH269856   0.181   0.220  11.515  0.1590  0.1104  0.7105
16122TIP3    H169857   0.239   0.155  11.555  1.7300  1.1542  0.2140
16122TIP3    H269858   0.152   0.274  11.588 -0.5489 -0.6467  1.0160
16123TIP3   OH269859   2.929   1.730   1.046 -0.1512  0.2722  0.0862
16123TIP3    H169860   2.934   1.636   1.027 -1.9287  0.6113 -2.5395
16123TIP3    H269861   2.857   1.738   1.108  0.2095 -0.0797  0.5668
16124TIP3   OH269862   1.897   4.039   2.870  0.2700 -0.3279  0.2812
16124TIP3    H169863   1.938   4.006   2.950  0.9782  1.1497  0.5548
16124TIP3    H269864   1.857   4.122   2.896  1.1801  0.5665 -1.0459
16125TIP3   OH269865   1.161   3.009   1.067 -0.6328  0.6273  0.1954
16125TIP3    H169866   1.228   3.062   1.024  2.0109 -1.0596  1.9381
16125TIP3    H269867   1.173   3.025   1.160  0.1721 -2.6675  0.8074
16126TIP3   OH269868   0.125   4.399  15.086  0.8269  0.4588 -0.6363
16126TIP3    H169869   0.109   4.424  15.177  1.4340  0.6541 -0.5782
16126TIP3    H269870   0.074   4.320  15.074  1.4308 -0.0731  0.1485
16127TIP3   OH269871   6.665   4.796   2.283 -0.0065  1.1008  0.3467
16127TIP3    H169872   6.679   4.863   2.350 -0.6810 -0.4544  2.1227
16127TIP3    H269873   6.712   4.720   2.316 -1.8999 -0.2720  0.0267
16128TIP3   OH269874   1.872   3.689   2.900  0.2293  0.0803  0.4366
16128TIP3    H169875   1.924   3.613   2.874 -2.7659 -1.7560 -0.7047
16128TIP3    H269876   1.875   3.689   2.996  1.9396 -0.1808  0.4034
16129TIP3   OH269877   4.651   5.855  10.675  0.5804 -0.7397 -0.2449
16129TIP3    H169878   4.682   5.850  10.766  2.3730 -1.8881 -0.8681
16129TIP3    H269879   4.639   5.948  10.659  3.0769 -0.2353  0.3182
16130TIP3   OH269880   0.517   3.737  15.608  0.1689 -0.6070 -0.2194
16130TIP3    H169881   0.466   3.680  15.665 -0.0000 -1.7433 -1.4405
16130TIP3    H269882   0.509   3.697  15.521  0.9437  0.6921 -0.9270
16131TIP3   OH269883   4.837   4.916  14.114 -0.3962 -0.0759 -0.8122
16131TIP3    H169884   4.852   4.828  14.080 -1.0403 -0.3137 -0.4914
16131TIP3    H269885   4.925   4.949  14.133 -0.0967 -2.9960  5.0843
16132TIP3   OH269886   3.034   0.675  14.410  0.1482  0.2994  0.2184
16132TIP3    H169887   3.031   0.580  14.408  0.9608  0.2457  1.1136
16132TIP3    H269888   3.091   0.696  14.484  0.2785  1.4731 -0.1946
16133TIP3   OH269889   5.374   6.669  15.115  0.4435 -0.4085  0.3310
16133TIP3    H169890   5.448   6.608  15.109  0.3578 -0.5898  1.0443
16133TIP3    H269891   5.401   6.745  15.063  0.6406 -0.9630 -0.3971
16134TIP3   OH269892   1.042   6.791  13.018  0.4759  0.2420 -0.0295
16134TIP3    H169893   1.109   6.760  13.078  0.2196 -1.4519 -0.5716
16134TIP3    H269894   0.965   6.805  13.072  0.9342  1.1346  0.4151
16135TIP3   OH269895   1.246   6.270   0.882 -0.4036 -0.7276  0.3838
16135TIP3    H169896   1.323   6.286   0.828 -0.3611 -2.0434  0.0122
16135TIP3    H269897   1.201   6.198   0.838 -1.9314  0.0936  0.5202
16136TIP3   OH269898   6.599   2.639  16.954  0.0168  0.1952 -0.3532
16136TIP3    H169899   6.529   2.703  16.947 -0.1869  0.1900  1.2445
16136TIP3    H269900   6.557   2.555  16.934 -0.3145  0.2674  0.0173
16137TIP3   OH269901   6.165   4.077   3.149  0.2442 -0.2883  0.2687
16137TIP3    H169902   6.224   4.021   3.098  0.6454  0.0245  0.3812
16137TIP3    H269903   6.171   4.043   3.238 -2.2084 -2.3195 -0.2178
16138TIP3   OH269904   2.592   5.859  16.690 -0.0029 -0.7733  0.0101
16138TIP3    H169905   2.628   5.787  16.638  1.6813  0.5801 -0.7629
16138TIP3    H269906   2.651   5.866  16.765 -0.2810 -0.3312  0.1886
16139TIP3   OH269907   5.327   5.337   2.903 -0.4146 -0.3427 -0.4197
16139TIP3    H169908   5.236   5.363   2.897 -0.4711 -0.3343  0.3707
16139TIP3    H269909   5.375   5.404   2.853 -0.6628  0.6650  0.6626
16140TIP3   OH269910   0.064   1.460  12.585 -0.3162 -0.4910  0.1487
16140TIP3    H169911  -0.012   1.404  12.602 -0.4987 -0.8578 -1.6995
16140TIP3    H269912   0.129   1.402  12.546  0.8027 -0.0951  1.3318
16141TIP3   OH269913   4.573   5.848  13.743  0.5969 -0.7624  0.1464
16141TIP3    H169914   4.579   5.769  13.796  0.0162 -0.7545  0.2377
16141TIP3    H269915   4.479   5.869  13.743  0.3205 -1.7121 -2.2746
16142TIP3   OH269916   6.636   2.788   0.614 -0.0036  0.4961  0.1099
16142TIP3    H169917   6.606   2.699   0.597 -0.9342  0.5978  1.1416
16142TIP3    H269918   6.622   2.834   0.531 -0.2301 -0.1186 -0.1965
16143TIP3   OH269919   3.364   2.057   3.375 -0.0103  0.0893 -0.0316
16143TIP3    H169920   3.274   2.038   3.347  0.0643  0.5134 -0.5795
16143TIP3    H269921   3.412   1.977   3.358 -0.1236  0.1085 -0.4459
16144TIP3   OH269922   1.989   4.141  12.032  0.2133  0.2870 -1.1582
16144TIP3    H169923   1.982   4.197  12.110 -2.3817 -0.7767 -0.5134
16144TIP3    H269924   2.027   4.059  12.064 -1.9767 -0.5954 -0.6731
16145TIP3   OH269925   3.974   6.755   4.203  0.2025  0.4105  0.3916
16145TIP3    H169926   3.979   6.842   4.164  3.8604  0.5612  0.8238
16145TIP3    H269927   3.926   6.703   4.138 -1.0582  2.4332 -0.4028
16146TIP3   OH269928   0.077   5.012  15.947 -0.3056  0.9950 -0.0153
16146TIP3    H169929   0.004   4.970  15.900 -0.5713  1.0347  0.3627
16146TIP3    H269930   0.085   4.962  16.028  1.3816 -0.2940 -0.8993
16147TIP3   OH269931   1.436   3.212  11.012  0.5340  0.1442  0.2329
16147TIP3    H169932   1.508   3.159  11.046  0.0567 -1.5035 -1.1995
16147TIP3    H269933   1.362   3.152  11.006 -0.4074  1.2929 -0.2709
16148TIP3   OH269934   2.120   3.401  13.548  0.2005  0.1014 -0.0363
16148TIP3    H169935   2.080   3.456  13.616  1.0430 -0.0351  0.5861
16148TIP3    H269936   2.046   3.360  13.504 -0.4027  1.0210  0.0955
16149TIP3   OH269937   1.967   1.761  12.110  0.0873  0.0434 -0.4538
16149TIP3    H169938   1.888   1.756  12.165 -0.3618  0.0558 -1.0870
16149TIP3    H269939   1.988   1.670  12.090  0.9488 -0.0373  0.6912
16150TIP3   OH269940   6.788   1.653  16.225 -0.5947 -0.3817 -0.5031
16150TIP3    H169941   6.717   1.716  16.232 -0.6606 -0.4726 -0.3421
16150TIP3    H269942   6.757   1.589  16.162 -1.1887 -1.1115  0.4902
16151TIP3   OH269943   4.991   2.583  11.968  0.2975 -0.0436 -0.5060
16151TIP3    H169944   4.969   2.490  11.976 -1.5738  0.4625  1.3655
16151TIP3    H269945   4.978   2.603  11.875 -0.2948 -1.4330 -0.7504
16152TIP3   OH269946   1.586   2.926  13.020  0.3296  0.4655  0.0453
16152TIP3    H169947   1.603   2.845  12.973  1.0122  0.7166 -0.1582
16152TIP3    H269948   1.521   2.972  12.966 -1.5869 -0.7934  1.1591
16153TIP3   OH269949   1.100   3.867  12.446  0.2953  0.4700 -0.2214
16153TIP3    H169950   1.114   3.882  12.353 -1.5849 -0.6830 -0.7429
16153TIP3    H269951   1.019   3.914  12.466 -0.5844 -1.1613  0.2561
16154TIP3   OH269952   0.513   4.546  12.226 -0.2470 -0.0480 -0.0354
16154TIP3    H169953   0.523   4.496  12.307 -1.0430 -0.1819 -0.0048
16154TIP3    H269954   0.595   4.593  12.216 -0.5043  0.7918  1.4215
16155TIP3   OH269955   5.732   5.526  14.414  0.0823 -0.6620 -0.0353
16155TIP3    H169956   5.787   5.598  14.445  0.1743 -1.0652  0.7645
16155TIP3    H269957   5.794   5.460  14.384  0.0225 -0.8780  0.3165
16156TIP3   OH269958   4.405   1.690  15.432  0.6779 -0.0609 -0.4851
16156TIP3    H169959   4.461   1.678  15.509  0.8783  0.1178 -0.6008
16156TIP3    H269960   4.319   1.709  15.468  0.8351  0.3285 -0.2955
16157TIP3   OH269961   1.647   2.923  14.537 -0.2131  0.2405  0.5346
16157TIP3    H169962   1.559   2.958  14.549 -1.4972 -2.1177 -1.0833
16157TIP3    H269963   1.667   2.940  14.445  0.7272  0.1117  0.7055
16158TIP3   OH269964   3.715   0.950   1.746  0.0887 -0.0992 -0.2832
16158TIP3    H169965   3.741   0.969   1.836  1.0912  0.8488 -0.7528
16158TIP3    H269966   3.645   1.013   1.728  0.5956  0.4146 -0.4917
16159TIP3   OH269967   5.849   2.130  13.240 -0.1420 -0.1996 -0.3776
16159TIP3    H169968   5.930   2.144  13.191 -0.6312  0.1747 -1.0958
16159TIP3    H269969   5.817   2.218  13.259 -0.4434 -0.3462 -0.2060
16160TIP3   OH269970   2.804   2.436   1.869  0.1155 -0.0093  0.5534
16160TIP3    H169971   2.875   2.372   1.878 -0.3500 -0.4482  1.1767
16160TIP3    H269972   2.729   2.385   1.840  0.1181  0.5021 -0.3963
16161TIP3   OH269973   1.231   2.594   1.123 -0.2214  0.3932  0.0644
16161TIP3    H169974   1.181   2.586   1.042 -0.0917  0.9324 -0.0734
16161TIP3    H269975   1.183   2.659   1.174  1.0878  2.0089 -0.6595
16162TIP3   OH269976   5.508   6.421  11.643 -0.3291 -0.1446 -0.4723
16162TIP3    H169977   5.495   6.400  11.550 -1.1336  0.0421 -0.4094
16162TIP3    H269978   5.441   6.486  11.662  0.8136  0.9985 -0.1510
16163TIP3   OH269979   1.911   0.014   4.866  0.0808 -0.6069 -0.1015
16163TIP3    H169980   1.834   0.070   4.870  0.6603  0.1473  1.8632
16163TIP3    H269981   1.931   0.005   4.773  0.0338  2.5652 -0.5159
16164TIP3   OH269982   0.030   5.229  11.704 -0.3660 -0.7249  0.2354
16164TIP3    H169983  -0.010   5.226  11.618 -1.2816 -2.1463  0.6618
16164TIP3    H269984   0.064   5.140  11.717  2.4603  0.2284  0.1513
16165TIP3   OH269985   4.059   2.884  13.179 -0.3221 -0.0981 -0.3512
16165TIP3    H169986   4.127   2.909  13.116 -1.0400 -0.9804 -1.5148
16165TIP3    H269987   3.978   2.917  13.141 -1.0595 -2.5018 -1.0312
16166TIP3   OH269988   6.658   0.599  14.174  0.2497 -0.1935  0.2967
16166TIP3    H169989   6.673   0.531  14.240 -0.2882 -0.5026  0.1073
16166TIP3    H269990   6.668   0.681  14.221 -1.3586 -0.3984  1.0660
16167TIP3   OH269991   5.343   1.804  14.510  0.1706  1.0223  0.6491
16167TIP3    H169992   5.362   1.887  14.555  1.5370  0.1944  1.6842
16167TIP3    H269993   5.396   1.739  14.557 -0.8543 -0.4405 -0.1515
16168TIP3   OH269994   6.359   2.411  13.627  0.0358  0.1744 -0.0136
16168TIP3    H169995   6.275   2.451  13.601  0.3144  1.4185  0.9632
16168TIP3    H269996   6.405   2.398  13.544 -0.1951  1.6153 -0.3983
16169TIP3   OH269997   2.334   6.294   0.717 -0.0977 -0.7179 -0.1238
16169TIP3    H169998   2.413   6.263   0.760  1.2848  0.3964 -1.7124
16169TIP3    H269999   2.306   6.370   0.768 -0.4694 -1.4216  0.7397
16170TIP3   OH270000   1.826   3.959   0.579  0.9996 -0.2665  0.6332
16170TIP3    H170001   1.849   4.048   0.606  1.4497 -0.2898  0.3362
16170TIP3    H270002   1.736   3.966   0.548  0.4410 -0.2457  2.1754
16171TIP3   OH270003   2.723   3.091  14.540  0.7600  0.2759  0.0736
16171TIP3    H170004   2.775   3.053  14.469  0.6881 -0.9617  0.6543
16171TIP3    H270005   2.705   3.181  14.512 -1.0059 -0.7445 -2.4615
16172TIP3   OH270006   0.683   1.348  14.795  0.3625  0.1419 -0.0932
16172TIP3    H170007   0.648   1.397  14.720  0.1944  0.8772  0.4544
16172TIP3    H270008   0.698   1.260  14.761  1.0017  0.6537 -1.1990
16173TIP3   OH270009   0.177   0.007  11.199 -0.1445 -0.1942 -0.0666
16173TIP3    H170010   0.254  -0.021  11.249  0.4439 -2.1903 -1.9491
16173TIP3    H270011   0.199   0.096  11.170  1.6430 -0.8290 -0.8226
16174TIP3   OH270012   2.870   1.143  15.051 -0.1198 -0.6252  0.7346
16174TIP3    H170013   2.942   1.184  15.003 -0.6721 -0.8504 -0.3130
16174TIP3    H270014   2.904   1.058  15.078  0.0028 -0.7481  0.2033
16175TIP3   OH270015   3.432   6.689   2.284 -0.1598 -0.2408 -0.1401
16175TIP3    H170016   3.508   6.631   2.279 -0.2572 -0.5085  1.1550
16175TIP3    H270017   3.465   6.774   2.257  0.6410 -0.3315  0.5195
16176TIP3   OH270018   5.936   0.005  12.151 -1.0543 -0.1896 -0.0075
16176TIP3    H170019   5.937   0.076  12.087  0.0109  0.2243  0.4480
16176TIP3    H270020   5.878   0.037  12.220 -1.2219 -0.1132 -0.1817
16177TIP3   OH270021   0.039   3.155  14.645 -0.0145 -0.4970 -0.1566
16177TIP3    H170022   0.072   3.067  14.662 -0.1007 -0.4290  0.3528
16177TIP3    H270023   0.040   3.162  14.549 -1.0802 -1.4666 -0.2566
16178TIP3   OH270024   1.145   2.643   3.462 -0.4168  0.3913  0.0135
16178TIP3    H170025   1.074   2.581   3.445  0.4235 -1.2118  1.9281
16178TIP3    H270026   1.204   2.632   3.388 -0.3623 -1.0362  0.2325
16179TIP3   OH270027   4.410   1.050  16.753 -0.6458 -0.0614 -0.3586
16179TIP3    H170028   4.452   1.123  16.707 -1.2286 -0.1959 -1.1241
16179TIP3    H270029   4.411   1.076  16.845 -1.1002  1.0505 -0.6501
16180TIP3   OH270030   3.837   6.429   3.550 -0.0879  0.9943 -0.1566
16180TIP3    H170031   3.744   6.412   3.563 -0.3595  1.3471 -1.4714
16180TIP3    H270032   3.878   6.342   3.550 -0.1674  0.9100  1.9091
16181TIP3   OH270033   0.691   3.501  12.566 -0.5904 -0.7806 -0.7001
16181TIP3    H170034   0.672   3.567  12.500 -0.4092 -0.3220 -0.2919
16181TIP3    H270035   0.619   3.508  12.628 -1.0758 -1.6054 -1.1353
16182TIP3   OH270036   1.796   4.284  16.081 -0.6697  0.3344  0.0624
16182TIP3    H170037   1.795   4.236  16.164 -0.0597 -1.3981 -0.8930
16182TIP3    H270038   1.759   4.223  16.017  1.5034  0.5488 -1.4875
16183TIP3   OH270039   1.386   4.122   5.100 -0.5200  0.1860 -0.3448
16183TIP3    H170040   1.465   4.121   5.046  0.8494  0.4405  1.5436
16183TIP3    H270041   1.402   4.191   5.165 -1.9268 -0.3234  0.6042
16184TIP3   OH270042   6.630   2.034   4.118  0.5607 -0.1442  0.5046
16184TIP3    H170043   6.593   2.122   4.114  0.0949 -0.3603  0.0713
16184TIP3    H270044   6.699   2.034   4.051  0.3963 -0.1824  0.3336
16185TIP3   OH270045   1.189   4.465   5.142 -0.3720  0.2203 -0.0322
16185TIP3    H170046   1.148   4.397   5.196  0.4647  0.4078  0.8557
16185TIP3    H270047   1.175   4.436   5.052 -1.3645 -0.3421  0.2889
16186TIP3   OH270048   5.940   4.215  16.852 -0.2186  0.5200 -0.3298
16186TIP3    H170049   5.860   4.232  16.802 -0.5314 -0.2901 -0.1234
16186TIP3    H270050   5.911   4.207  16.943  0.1457  0.5725 -0.2072
16187TIP3   OH270051   2.188   6.090  14.434 -0.7774  0.0920  0.0497
16187TIP3    H170052   2.131   6.155  14.393 -1.4007  0.2259  1.0843
16187TIP3    H270053   2.155   6.083  14.524  0.3177 -0.4490  0.4243
16188TIP3   OH270054   5.481   1.211   1.188  0.0287  0.3616 -0.3402
16188TIP3    H170055   5.551   1.262   1.147  0.5368  0.5029  0.6676
16188TIP3    H270056   5.519   1.181   1.270 -0.6392 -0.7308 -0.4169
16189TIP3   OH270057   2.780   6.073   4.758 -0.7466 -0.2040 -0.2824
16189TIP3    H170058   2.686   6.086   4.766 -0.6879  1.1508 -1.5879
16189TIP3    H270059   2.809   6.057   4.848 -2.2964 -1.3535  0.0547
16190TIP3   OH270060   1.005   5.733  11.931 -0.1228  0.5052 -0.5691
16190TIP3    H170061   1.056   5.785  11.869 -2.3214 -0.3492 -3.2763
16190TIP3    H270062   1.048   5.648  11.933  0.6512  0.9021  0.0554
16191TIP3   OH270063   5.986   0.460  12.099  0.2748 -0.3681  0.3309
16191TIP3    H170064   6.051   0.432  12.164 -0.0845 -0.4297  0.6690
16191TIP3    H270065   6.022   0.540  12.062  1.1425 -1.0718 -0.3889
16192TIP3   OH270066   5.531   0.045  14.980  0.0536 -0.1140 -0.4371
16192TIP3    H170067   5.619   0.082  14.989  0.0102 -0.1884  0.3058
16192TIP3    H270068   5.481   0.114  14.936  0.3168  0.1762 -0.2892
16193TIP3   OH270069   4.763   3.508   3.119 -0.2244  0.4413 -0.3553
16193TIP3    H170070   4.759   3.598   3.088  2.3790  1.2294  1.2118
16193TIP3    H270071   4.678   3.493   3.161 -1.6875  1.1895 -2.8286
16194TIP3   OH270072   5.072   5.047  16.240  0.3360 -0.0340  0.0054
16194TIP3    H170073   5.037   5.107  16.306  0.6755 -0.8051  0.9128
16194TIP3    H270074   5.165   5.037  16.263  1.2209  1.9469 -2.3416
16195TIP3   OH270075   1.619   4.063  13.784  0.3684 -0.5742  0.2607
16195TIP3    H170076   1.682   3.991  13.778 -0.0310 -0.9350  0.2799
16195TIP3    H270077   1.653   4.131  13.727  0.4424 -1.0178 -0.2252
16196TIP3   OH270078   1.444   3.725   1.829  0.0524 -0.2242  0.2245
16196TIP3    H170079   1.408   3.642   1.799  0.6293 -0.5340  0.3706
16196TIP3    H270080   1.515   3.700   1.888  0.1931  0.3746  0.3116
16197TIP3   OH270081   3.661   4.583  14.676  0.4868 -0.1406  0.2579
16197TIP3    H170082   3.565   4.584  14.669  0.5736  1.4377 -2.0320
16197TIP3    H270083   3.689   4.520  14.610  1.0463  0.4859 -0.1149
16198TIP3   OH270084   6.693   3.644   4.922 -0.5050 -0.4353  0.0422
16198TIP3    H170085   6.597   3.648   4.921 -0.5350 -0.7144  1.0027
16198TIP3    H270086   6.716   3.633   5.015  0.4424 -0.8075 -0.2246
16199TIP3   OH270087   4.381   2.493   3.374 -0.0021 -0.3518  0.2710
16199TIP3    H170088   4.371   2.398   3.387 -0.7921 -0.0533  2.1541
16199TIP3    H270089   4.293   2.528   3.385  0.4766  0.7121  0.8573
16200TIP3   OH270090   3.662   2.376   5.873 -0.4913  0.7114  0.3170
16200TIP3    H170091   3.618   2.332   5.945  1.6459 -2.3361 -0.0331
16200TIP3    H270092   3.591   2.401   5.813 -2.1148  1.3431  2.3939
16201TIP3   OH270093   3.473   5.412   1.061  0.1353 -0.5027 -0.7794
16201TIP3    H170094   3.497   5.495   1.020 -1.9967  1.3953  1.5076
16201TIP3    H270095   3.521   5.410   1.143 -0.6737 -0.9962 -0.3025
16202TIP3   OH270096   1.923   4.982  11.627 -0.2589 -0.1261 -0.6398
16202TIP3    H170097   1.901   5.033  11.705  0.9515  0.8224 -0.8838
16202TIP3    H270098   1.862   5.011  11.560  0.4493  1.0676 -0.7898
16203TIP3   OH270099   4.241   5.745  10.569 -0.4830 -0.2283  0.4646
16203TIP3    H170100   4.165   5.726  10.514 -0.6243 -0.5859  0.7810
16203TIP3    H270101   4.204   5.772  10.653 -0.3066  1.6943 -0.0127
16204TIP3   OH270102   3.622   1.249   0.597 -0.0955  0.2168 -0.3405
16204TIP3    H170103   3.547   1.290   0.553 -0.0536  0.2475 -0.3825
16204TIP3    H270104   3.685   1.231   0.527 -0.5195 -0.8289 -0.4762
16205TIP3   OH270105   6.164   0.840  11.841 -0.5272 -0.0269  0.1861
16205TIP3    H170106   6.102   0.771  11.865  0.3088 -0.5743  0.8268
16205TIP3    H270107   6.160   0.901  11.914  0.7233 -0.7956  0.9273
16206TIP3   OH270108   3.981   5.670   3.946  0.0663 -0.2692 -0.5570
16206TIP3    H170109   4.049   5.735   3.961 -1.5130  2.1563 -2.9214
16206TIP3    H270110   3.914   5.690   4.012  0.7869 -1.4293  0.5585
16207TIP3   OH270111   5.514   0.061   1.734  0.5214 -0.1972 -0.2998
16207TIP3    H170112   5.444   0.073   1.670  0.2151 -0.5046 -0.0258
16207TIP3    H270113   5.577   0.003   1.690  0.1583 -0.6692 -0.2134
16208TIP3   OH270114   5.323   1.861   1.764  0.0310 -0.1508 -0.0415
16208TIP3    H170115   5.380   1.853   1.841 -0.4002 -1.8551  0.1546
16208TIP3    H270116   5.382   1.846   1.690 -0.0853 -1.8779  0.1592
16209TIP3   OH270117   0.893   2.640   2.623 -0.8286 -0.0713 -0.1895
16209TIP3    H170118   0.917   2.721   2.577 -1.4439 -0.0779 -0.5318
16209TIP3    H270119   0.963   2.627   2.687 -1.1977  1.2532  0.5222
16210TIP3   OH270120   2.335   2.872   5.238  0.3781  0.4181 -0.2845
16210TIP3    H170121   2.273   2.901   5.172  0.4380 -1.1298 -1.0555
16210TIP3    H270122   2.325   2.936   5.309 -0.7716  1.2389 -1.1382
16211TIP3   OH270123   5.575   0.027   4.160 -0.4983  0.0609 -0.3067
16211TIP3    H170124   5.484  -0.002   4.157 -0.8506  0.9901  0.7708
16211TIP3    H270125   5.623  -0.049   4.193 -0.6522 -0.8598 -2.0652
16212TIP3   OH270126   3.459   0.147  11.855 -0.1243  0.1564 -0.1379
16212TIP3    H170127   3.375   0.194  11.856 -0.1014  0.2069 -0.5553
16212TIP3    H270128   3.510   0.191  11.788  0.3885  0.3804  0.3920
16213TIP3   OH270129   5.606   4.841  16.819  0.1575 -0.5874  0.0558
16213TIP3    H170130   5.622   4.771  16.883 -1.8201  0.3299  1.6605
16213TIP3    H270131   5.584   4.795  16.738 -1.7721 -1.8825  1.2489
16214TIP3   OH270132   2.424   4.680  11.413 -0.2274 -0.2566  0.4216
16214TIP3    H170133   2.352   4.673  11.476  1.2123 -1.1408  2.0475
16214TIP3    H270134   2.474   4.599  11.425  1.8112  0.9297  0.3790
16215TIP3   OH270135   6.398   2.320  15.493  0.2506  0.5006 -0.3914
16215TIP3    H170136   6.304   2.337  15.487  0.5946  2.2572 -1.4992
16215TIP3    H270137   6.433   2.394  15.541  1.2369  0.5700 -1.1761
16216TIP3   OH270138   0.358   2.723   6.428 -0.3971  0.2011  0.0819
16216TIP3    H170139   0.287   2.778   6.462 -0.9664 -0.0066 -0.7434
16216TIP3    H270140   0.325   2.633   6.437 -0.7876  0.1624 -1.4558
16217TIP3   OH270141   1.431   5.469   3.133  0.6600  0.5322 -0.3751
16217TIP3    H170142   1.357   5.514   3.175  0.6824  1.3334 -1.1604
16217TIP3    H270143   1.396   5.441   3.048  1.2644  0.9413 -0.7607
16218TIP3   OH270144   4.704   4.206   4.280 -0.2131 -0.7607 -1.1342
16218TIP3    H170145   4.707   4.267   4.206  2.2113 -0.1885 -0.6719
16218TIP3    H270146   4.625   4.230   4.328 -0.7329  0.2170 -2.4233
16219TIP3   OH270147   3.077   2.763  15.303 -0.1226 -0.7612  0.3779
16219TIP3    H170148   3.142   2.732  15.240  0.8116  0.5223  0.6663
16219TIP3    H270149   3.001   2.788  15.250  0.6735  0.3492 -0.2707
16220TIP3   OH270150   0.708   2.186   0.034  0.1141 -0.2404 -0.3043
16220TIP3    H170151   0.697   2.108   0.088 -0.1144  0.5959  0.9061
16220TIP3    H270152   0.669   2.164  -0.050 -1.6711 -0.8043  0.6228
16221TIP3   OH270153   0.229   4.482  12.329  0.3240  0.0068 -0.4568
16221TIP3    H170154   0.256   4.475  12.421  0.0721 -0.2045 -0.3969
16221TIP3    H270155   0.153   4.424  12.322 -1.5442  2.2526 -0.0652
16222TIP3   OH270156   3.185   1.752  10.754  0.0698  0.4248 -0.1735
16222TIP3    H170157   3.163   1.788  10.668 -1.2601  1.6279  0.6250
16222TIP3    H270158   3.102   1.746  10.800  0.6109 -1.2490  0.6814
16223TIP3   OH270159   1.435   2.112   4.383 -0.4160 -0.0848 -0.2947
16223TIP3    H170160   1.456   2.039   4.441 -0.3657 -1.2203 -1.6780
16223TIP3    H270161   1.511   2.120   4.326 -1.5535 -0.9022 -2.0355
16224TIP3   OH270162   4.053   3.008  12.660  0.3865  0.1954  0.1093
16224TIP3    H170163   4.114   2.949  12.615 -0.4749 -0.2104 -0.5475
16224TIP3    H270164   3.982   3.020  12.598  0.8595  2.5056 -0.0638
16225TIP3   OH270165   0.955   4.140   3.195  0.1700  0.1091  0.3354
16225TIP3    H170166   0.922   4.119   3.108 -0.4933  1.7757  0.1415
16225TIP3    H270167   0.876   4.154   3.247  0.5623  0.2228  0.9061
16226TIP3   OH270168   0.576   3.366  12.166  0.1587 -0.1061 -0.0781
16226TIP3    H170169   0.509   3.343  12.101  1.8984 -0.8921 -1.6639
16226TIP3    H270170   0.555   3.313  12.243 -1.3862  0.1359 -0.2988
16227TIP3   OH270171   2.464   0.878   2.203  0.2641  0.7133  0.3576
16227TIP3    H170172   2.369   0.892   2.209 -0.1557 -1.4528 -0.4224
16227TIP3    H270173   2.490   0.922   2.122  0.1684  2.2797  1.1416
16228TIP3   OH270174   0.947   0.723   1.628  0.0307 -0.6006  0.2663
16228TIP3    H170175   0.992   0.808   1.636  2.0782 -1.5984  0.1302
16228TIP3    H270176   0.920   0.718   1.537 -0.3223 -0.0041  0.3326
16229TIP3   OH270177   0.877   5.450   3.099 -0.4234  0.2307 -0.4169
16229TIP3    H170178   0.889   5.390   3.026 -0.4579  0.8922 -0.9819
16229TIP3    H270179   0.916   5.532   3.069 -1.6844  0.9226 -0.2554
16230TIP3   OH270180   1.568   3.475   1.143 -0.4945  0.1354 -0.2723
16230TIP3    H170181   1.612   3.532   1.080 -1.6134  1.4911  0.1302
16230TIP3    H270182   1.593   3.510   1.228  0.0241 -0.9423  0.0394
16231TIP3   OH270183   0.952   5.050  14.055  0.1941 -0.3197 -0.1456
16231TIP3    H170184   0.885   4.989  14.023 -0.3671  0.7354 -1.0468
16231TIP3    H270185   0.903   5.113  14.108  0.4049  0.6176 -1.0371
16232TIP3   OH270186   5.918   1.586   3.231  0.4806 -0.2841  0.4003
16232TIP3    H170187   5.896   1.672   3.196 -3.6175 -0.1430  2.6322
16232TIP3    H270188   5.999   1.599   3.279  0.6358  1.9804 -0.3567
16233TIP3   OH270189   4.001   6.363   6.374 -0.2818 -0.1133  0.6565
16233TIP3    H170190   4.053   6.387   6.451 -0.6708  1.5216  0.4605
16233TIP3    H270191   4.064   6.363   6.302 -0.5026  2.0618  0.3853
16234TIP3   OH270192   0.436   3.932   2.177 -0.2617  0.2002 -0.4982
16234TIP3    H170193   0.427   3.954   2.084 -2.0067  0.5971 -0.2647
16234TIP3    H270194   0.379   3.994   2.222  1.6727  1.0279  1.0175
16235TIP3   OH270195   0.259   3.556  13.682 -0.4099  0.2849  0.8352
16235TIP3    H170196   0.175   3.600  13.692 -0.9867 -0.6486  0.2828
16235TIP3    H270197   0.286   3.576  13.592 -0.2803  0.1799  0.8510
16236TIP3   OH270198   1.336   1.544  12.928  0.3429 -0.1889  0.4094
16236TIP3    H170199   1.418   1.505  12.898  0.1621  0.2443 -0.6931
16236TIP3    H270200   1.340   1.635  12.897 -1.5580 -0.7477 -1.7957
16237TIP3   OH270201   4.463   0.032  17.141  0.5115  0.2512 -0.0467
16237TIP3    H170202   4.495   0.009  17.228 -2.6617 -0.2831  1.0984
16237TIP3    H270203   4.488  -0.042  17.086  1.4792  0.0247  0.6666
16238TIP3   OH270204   4.712   6.470   4.338 -0.0716  0.3476 -0.0978
16238TIP3    H170205   4.686   6.518   4.417  0.2965  0.4742 -0.0497
16238TIP3    H270206   4.773   6.403   4.370 -0.6277 -0.1921 -0.1567
16239TIP3   OH270207   0.589   4.725  12.479 -0.3702 -0.1050  0.2751
16239TIP3    H170208   0.583   4.631  12.496  0.0071 -0.2111 -0.1343
16239TIP3    H270209   0.499   4.753  12.461 -0.6635 -0.1316  1.6593
16240TIP3   OH270210   4.132   3.967  15.417  0.6165  0.0461  0.7571
16240TIP3    H170211   4.060   3.998  15.362 -0.5871 -1.3559  1.4800
16240TIP3    H270212   4.198   3.936  15.356 -0.5159 -1.0836  0.0790
16241TIP3   OH270213   2.665   4.748  12.204  0.8779  0.3112  0.4044
16241TIP3    H170214   2.651   4.705  12.120  1.0281 -1.4524  1.2376
16241TIP3    H270215   2.633   4.837  12.191 -2.1700 -0.8137 -0.5624
16242TIP3   OH270216   5.473   3.135   4.041  0.1624 -0.1192 -0.5189
16242TIP3    H170217   5.487   3.087   4.122  1.2579 -1.7319 -1.5863
16242TIP3    H270218   5.556   3.180   4.025 -0.2859  0.7695 -0.4068
16243TIP3   OH270219   0.016   0.496  12.406  0.0711  0.0123  0.2477
16243TIP3    H170220   0.109   0.479  12.395 -0.1001 -0.6307 -0.3444
16243TIP3    H270221  -0.009   0.547  12.329 -0.0067  0.4294  0.5489
16244TIP3   OH270222   1.893   5.615   2.209 -1.1578 -0.0985 -0.1085
16244TIP3    H170223   1.957   5.581   2.272  0.4760 -1.0912 -2.1679
16244TIP3    H270224   1.821   5.552   2.212 -0.8168 -0.4731  0.3442
16245TIP3   OH270225   4.605   6.396  16.356  0.1204  0.0998 -0.4485
16245TIP3    H170226   4.614   6.460  16.285 -0.3256 -0.8617 -1.4082
16245TIP3    H270227   4.514   6.402  16.383 -0.4614 -1.4212 -1.8739
16246TIP3   OH270228   5.157   3.550   3.518 -0.3299 -0.0355  0.2190
16246TIP3    H170229   5.169   3.616   3.449  0.4167  0.3655  0.7118
16246TIP3    H270230   5.077   3.504   3.494  0.8163 -1.0824 -1.8693
16247TIP3   OH270231   2.366   5.261   4.334  0.5409  0.6393 -0.1373
16247TIP3    H170232   2.292   5.255   4.393  0.6256 -0.9854 -0.1644
16247TIP3    H270233   2.328   5.285   4.249  0.3834  2.5995  0.4504
16248TIP3   OH270234   1.275   6.236   1.335  0.1841  0.0660  0.1785
16248TIP3    H170235   1.326   6.316   1.321 -0.4218  0.7609  1.6555
16248TIP3    H270236   1.340   6.170   1.357  0.5393  0.7502  1.2738
16249TIP3   OH270237   0.988   0.506  14.577 -0.3735 -0.1308  0.0906
16249TIP3    H170238   0.966   0.537  14.664 -0.4803 -1.0999  0.4179
16249TIP3    H270239   0.980   0.410  14.582 -2.1375 -0.1118 -1.4642
16250TIP3   OH270240   5.831   1.309  10.497  0.5309 -0.0066 -0.7882
16250TIP3    H170241   5.870   1.249  10.434  1.0587  0.3329 -0.7933
16250TIP3    H270242   5.848   1.396  10.462 -1.2835  0.1416 -1.3956
16251TIP3   OH270243   1.150   4.820   1.948 -0.1281  0.0243 -0.0170
16251TIP3    H170244   1.190   4.771   2.020  0.5439 -0.1812 -0.5337
16251TIP3    H270245   1.059   4.791   1.948 -0.0286 -0.3031  0.4628
16252TIP3   OH270246   5.572   6.693  16.397  0.0211  0.8395  0.0130
16252TIP3    H170247   5.515   6.673  16.322 -3.4919 -2.9521  3.1335
16252TIP3    H270248   5.640   6.626  16.393 -1.0570 -0.3597  0.8603
16253TIP3   OH270249   4.238   4.122   6.030 -0.2652 -0.9442  0.3284
16253TIP3    H170250   4.224   4.031   6.004 -2.3772 -0.6899  0.4424
16253TIP3    H270251   4.311   4.118   6.091  0.6195 -2.3596 -0.7415
16254TIP3   OH270252   5.953   3.303   3.834  0.3842  0.1188 -0.1629
16254TIP3    H170253   5.875   3.253   3.858  0.0145  0.6403 -0.2594
16254TIP3    H270254   5.919   3.387   3.802  1.0421  0.9955  1.3269
16255TIP3   OH270255   3.461   6.445   5.195 -0.5235 -0.0566 -0.1856
16255TIP3    H170256   3.462   6.478   5.105 -0.7059 -0.3469 -0.2966
16255TIP3    H270257   3.508   6.511   5.245 -1.0435  0.4536 -0.3703
16256TIP3   OH270258   1.833   6.379   2.285 -0.2895  0.3804 -0.0441
16256TIP3    H170259   1.781   6.380   2.365 -1.1986  0.1935 -0.6146
16256TIP3    H270260   1.891   6.454   2.292 -0.6985  0.6401  0.5737
16257TIP3   OH270261   1.105   2.115   5.624 -0.5703  0.0792 -0.0558
16257TIP3    H170262   1.152   2.096   5.542  1.4357  2.7513  0.3171
16257TIP3    H270263   1.104   2.032   5.671  3.2952 -0.3743 -0.4293
16258TIP3   OH270264   1.233   1.876  15.279 -0.3086  0.0550  0.0485
16258TIP3    H170265   1.183   1.810  15.326 -0.2894 -0.7847 -1.0626
16258TIP3    H270266   1.168   1.927  15.232 -0.2404  0.0606 -0.0405
16259TIP3   OH270267   5.210   5.585   3.161 -0.1495 -0.5180 -0.2345
16259TIP3    H170268   5.154   5.530   3.215 -0.7611  0.2555 -0.0757
16259TIP3    H270269   5.297   5.546   3.169 -0.3984 -0.9063  0.6199
16260TIP3   OH270270   4.646   6.089  13.358  0.3614  0.0587  0.4838
16260TIP3    H170271   4.641   6.013  13.416  0.9145 -1.3160 -1.1927
16260TIP3    H270272   4.724   6.074  13.305 -1.4229 -0.0271 -2.3248
16261TIP3   OH270273   5.668   4.617  13.679 -0.0926  0.3667  0.5880
16261TIP3    H170274   5.621   4.572  13.608  1.4678 -0.1173 -0.1755
16261TIP3    H270275   5.742   4.560  13.698  0.2043  1.1204  1.7657
16262TIP3   OH270276   4.563   2.153  14.174 -0.0813 -0.2586 -0.1892
16262TIP3    H170277   4.610   2.236  14.162 -0.2174 -0.1758 -0.1601
16262TIP3    H270278   4.520   2.138  14.089  0.2329 -0.4843 -0.3110
16263TIP3   OH270279   4.339   4.574   0.647  0.0830 -0.2008  0.0287
16263TIP3    H170280   4.386   4.583   0.730  0.0426  1.0155 -0.0574
16263TIP3    H270281   4.260   4.524   0.670 -0.9840  1.8753  1.2139
16264TIP3   OH270282   0.140   0.402  12.071  0.1196  0.4588 -0.6484
16264TIP3    H170283   0.056   0.356  12.078  1.3090 -1.6975  0.2173
16264TIP3    H270284   0.130   0.477  12.130 -0.9215 -0.2183  0.0850
16265TIP3   OH270285   2.082   0.256  12.488 -0.9177 -0.0924 -0.0204
16265TIP3    H170286   2.120   0.175  12.453 -0.1503  0.0872  0.3675
16265TIP3    H270287   2.158   0.310  12.510 -1.4128  1.0646 -0.9964
16266TIP3   OH270288   6.459   2.235   3.297  0.1078 -0.8061 -0.3778
16266TIP3    H170289   6.432   2.318   3.256  0.5565 -0.1768  0.5597
16266TIP3    H270290   6.381   2.180   3.292  0.0017 -0.5754 -1.6112
16267TIP3   OH270291   0.180   5.800   2.241  0.0223 -0.4823 -0.1506
16267TIP3    H170292   0.106   5.756   2.200 -0.7628 -1.9508  2.5733
16267TIP3    H270293   0.156   5.892   2.243 -1.2327 -0.7944 -0.3079
16268TIP3   OH270294   4.008   4.119   3.886  0.0014  0.0277  0.4252
16268TIP3    H170295   3.915   4.135   3.894  0.1234  1.1110 -0.1512
16268TIP3    H270296   4.047   4.163   3.962  0.0443 -0.4513  0.6834
16269TIP3   OH270297   1.332   5.864   0.635  0.1327 -0.7022  0.2106
16269TIP3    H170298   1.375   5.806   0.698 -2.1289 -1.6915  0.9598
16269TIP3    H270299   1.331   5.814   0.553  2.3118  0.2388 -0.4511
16270TIP3   OH270300   0.679   2.504  13.796  0.1685  0.0634  0.2381
16270TIP3    H170301   0.613   2.454  13.748 -1.8083  1.2257  1.6045
16270TIP3    H270302   0.686   2.587  13.748  2.0760 -0.7252 -0.9605
16271TIP3   OH270303   4.894   2.270  13.639 -0.4438 -0.5813 -0.1931
16271TIP3    H170304   4.842   2.349  13.650  0.4985  0.4923 -2.8051
16271TIP3    H270305   4.984   2.298  13.652 -0.1093 -1.2399 -0.9859
16272TIP3   OH270306   4.317   2.084  14.968 -0.3344 -0.6563 -0.1832
16272TIP3    H170307   4.399   2.062  14.925 -0.1257 -0.1160 -0.0659
16272TIP3    H270308   4.259   2.011  14.946  0.3277 -1.3017  0.1714
16273TIP3   OH270309   3.661   1.000   3.175  0.0712 -0.1277 -0.0082
16273TIP3    H170310   3.629   0.983   3.086 -1.5801 -0.9332  0.6898
16273TIP3    H270311   3.748   1.039   3.162 -0.3658  0.3298 -1.9761
16274TIP3   OH270312   5.715   3.291  12.495 -0.2345  0.5434  0.6373
16274TIP3    H170313   5.656   3.286  12.420 -0.2969 -0.7477  0.7451
16274TIP3    H270314   5.790   3.341  12.463  0.6700 -1.6853 -0.9916
16275TIP3   OH270315   5.024   0.348   5.388  0.4074  0.2051  0.5244
16275TIP3    H170316   4.996   0.390   5.306 -0.5143 -1.2201  0.0768
16275TIP3    H270317   4.943   0.332   5.436  0.9432  1.0168  1.7303
16276TIP3   OH270318   2.564   5.116  15.521 -0.3661 -0.5218  0.2961
16276TIP3    H170319   2.509   5.105  15.443  1.1460 -0.1641 -0.8617
16276TIP3    H270320   2.593   5.027  15.543  0.7221 -0.4346 -0.7139
16277TIP3   OH270321   5.350   5.030  10.930  0.6042  0.4014 -0.1278
16277TIP3    H170322   5.257   5.041  10.907  0.6996  0.8713 -0.3143
16277TIP3    H270323   5.391   5.003  10.848  1.0391  2.6129 -0.7147
16278TIP3   OH270324   2.773   0.827   2.344  0.6984  0.2520  0.1715
16278TIP3    H170325   2.866   0.843   2.325  0.3213 -0.8604 -3.1541
16278TIP3    H270326   2.728   0.903   2.309  0.3042  0.7119  1.6337
16279TIP3   OH270327   0.423   5.461   2.408  0.4773  0.2097 -0.1410
16279TIP3    H170328   0.492   5.485   2.470 -0.8950  0.3989  1.4046
16279TIP3    H270329   0.425   5.529   2.341  3.3028 -1.0504 -1.5005
16280TIP3   OH270330   2.753   1.569  15.420 -0.2269 -0.3128 -0.2336
16280TIP3    H170331   2.845   1.560  15.394  0.0847  1.4771  0.1464
16280TIP3    H270332   2.706   1.579  15.338 -0.1806 -1.7366 -0.4634
16281TIP3   OH270333   1.431   6.440   1.231  0.4701 -0.1453 -0.5866
16281TIP3    H170334   1.471   6.445   1.145  1.6509 -0.0729 -0.0503
16281TIP3    H270335   1.461   6.519   1.276  0.9220 -0.8047  0.3141
16282TIP3   OH270336   2.090   5.227  16.735 -0.8261  0.0043  0.4884
16282TIP3    H170337   2.077   5.165  16.807 -1.7810  1.1157  1.3159
16282TIP3    H270338   2.184   5.223  16.716 -0.4813 -0.0305  2.0781
16283TIP3   OH270339   3.831   5.512  14.635 -0.5309  0.4121  0.6378
16283TIP3    H170340   3.736   5.525  14.634 -0.5926  0.2064 -1.4203
16283TIP3    H270341   3.867   5.601  14.637 -0.8132  0.5635 -0.2730
16284TIP3   OH270342   6.813   1.719   1.115  0.2471  0.5281 -0.3650
16284TIP3    H170343   6.810   1.666   1.195  1.2840 -0.8373 -1.1816
16284TIP3    H270344   6.842   1.658   1.047  0.0416  1.8167 -1.6596
16285TIP3   OH270345   6.494   4.428   4.044 -0.3548 -0.0754 -0.2466
16285TIP3    H170346   6.549   4.401   3.970 -0.1814 -0.8921  0.1637
16285TIP3    H270347   6.510   4.522   4.053  0.4564 -0.1776 -0.5621
16286TIP3   OH270348   6.584   3.117   6.261  0.0960  0.0580  0.0425
16286TIP3    H170349   6.500   3.099   6.303 -0.1131  0.8402 -0.0204
16286TIP3    H270350   6.640   3.044   6.287  0.0307  0.6117  1.8775
16287TIP3   OH270351   4.039   3.860  17.097 -0.0350 -0.2608  0.3057
16287TIP3    H170352   4.029   3.777  17.050 -1.0966 -0.5566  1.0265
16287TIP3    H270353   4.079   3.919  17.033 -1.1287 -0.7564 -0.8773
16288TIP3   OH270354   3.412   2.003   3.013  0.6235  0.4292 -0.0360
16288TIP3    H170355   3.319   1.986   3.024  0.4961  1.0332 -0.1593
16288TIP3    H270356   3.419   2.099   3.011  0.9766  0.4022 -2.2615
16289TIP3   OH270357   0.467   4.855  14.061 -0.0467 -0.6049  0.0868
16289TIP3    H170358   0.510   4.772  14.040 -0.0507 -0.4636 -0.5179
16289TIP3    H270359   0.374   4.833  14.066  0.1834 -1.2708  3.1914
16290TIP3   OH270360   1.739   5.637   0.635 -0.5091  0.0548  0.3351
16290TIP3    H170361   1.793   5.698   0.585  0.4644  0.4931  1.8648
16290TIP3    H270362   1.665   5.618   0.577  1.6960 -1.3229 -2.2706
16291TIP3   OH270363   4.618   5.115  15.964 -0.5333 -0.1065 -0.4232
16291TIP3    H170364   4.646   5.195  16.010 -0.7909  1.7412 -3.2500
16291TIP3    H270365   4.528   5.133  15.938  0.2245 -0.1552 -3.3709
16292TIP3   OH270366   4.913   0.055   3.970 -0.1735  0.4556 -0.0265
16292TIP3    H170367   4.930   0.004   4.049  0.6163  0.4600 -0.1869
16292TIP3    H270368   4.818   0.055   3.961 -0.1691 -1.6279 -0.4516
16293TIP3   OH270369   1.152   1.658   3.061 -0.3810 -0.3089  0.2600
16293TIP3    H170370   1.063   1.668   3.092 -0.5244 -0.8986  0.0498
16293TIP3    H270371   1.175   1.568   3.081  0.2120 -0.1295  0.4200
16294TIP3   OH270372   6.565   2.985  15.037  0.4033 -0.0455 -0.2735
16294TIP3    H170373   6.652   2.962  15.071  0.6394 -1.1622 -1.5253
16294TIP3    H270374   6.583   3.018  14.948 -0.3053  1.5345  0.1264
16295TIP3   OH270375   1.144   2.707  11.744 -0.4388  0.5595 -0.2993
16295TIP3    H170376   1.200   2.653  11.801 -2.3086 -1.4235 -0.1955
16295TIP3    H270377   1.056   2.671  11.757 -1.3742  2.0107 -2.2379
16296TIP3   OH270378   0.243   2.920   1.084  0.3179 -0.1519  0.6184
16296TIP3    H170379   0.165   2.921   1.140  0.5766  0.5507  0.9750
16296TIP3    H270380   0.311   2.879   1.138  0.6430  0.7824  0.9377
16297TIP3   OH270381   5.735   2.060  16.585  0.0302  0.2171  0.2012
16297TIP3    H170382   5.773   2.068  16.497 -1.0917  1.0277 -0.2213
16297TIP3    H270383   5.788   2.120  16.638 -0.2747  0.9114 -0.2604
16298TIP3   OH270384   3.769   0.095   2.565 -0.1173  0.3373  0.2349
16298TIP3    H170385   3.839   0.140   2.517 -0.0392 -0.1190 -0.0823
16298TIP3    H270386   3.794   0.003   2.562 -0.2677  0.2754  0.9028
16299TIP3   OH270387   6.396   5.402   5.931  0.2754 -0.1955 -0.0036
16299TIP3    H170388   6.340   5.396   6.008 -0.3895 -0.9396 -0.5279
16299TIP3    H270389   6.365   5.332   5.873  1.4555 -0.3353 -0.4995
16300TIP3   OH270390   6.634   0.275   2.961  0.4885  0.1939  0.1647
16300TIP3    H170391   6.626   0.296   2.868  0.2237  0.3639  0.2238
16300TIP3    H270392   6.606   0.355   3.006  0.6312  0.1183  0.3910
16301TIP3   OH270393   6.615   4.107  17.239 -0.5442 -0.2502 -0.2318
16301TIP3    H170394   6.691   4.084  17.186 -0.2760  0.0887  0.0016
16301TIP3    H270395   6.651   4.125  17.326 -0.3055  3.6267 -0.9452
16302TIP3   OH270396   5.528   4.402   1.126  0.5414  0.4537 -0.2341
16302TIP3    H170397   5.561   4.479   1.080  2.4923  0.7735  1.5147
16302TIP3    H270398   5.577   4.329   1.089 -0.0540  0.2888 -0.7022
16303TIP3   OH270399   4.420   3.348   3.771 -0.1155 -0.2847 -0.3897
16303TIP3    H170400   4.456   3.407   3.838 -0.5759 -2.2436  1.6992
16303TIP3    H270401   4.342   3.393   3.739  0.0074  0.6242  0.5315
16304TIP3   OH270402   6.672   6.618  16.329 -0.2453  0.0378  0.6648
16304TIP3    H170403   6.581   6.609  16.357 -0.0025 -0.6060  1.2911
16304TIP3    H270404   6.718   6.649  16.406 -0.2540  2.4830 -0.2197
16305TIP3   OH270405   1.862   4.477  15.898 -0.1365  0.0363 -0.7269
16305TIP3    H170406   1.767   4.484  15.895 -0.0303  1.2606 -2.5339
16305TIP3    H270407   1.878   4.406  15.961 -2.1644  0.6704  0.6239
16306TIP3   OH270408   3.004   1.889   5.531 -0.9312  0.7061  0.3754
16306TIP3    H170409   2.991   1.868   5.623 -0.6322  1.4628  0.5968
16306TIP3    H270410   3.010   1.985   5.528 -0.6437  0.6762 -0.3915
16307TIP3   OH270411   0.640   3.573   2.948  0.1825  0.5280  0.6454
16307TIP3    H170412   0.637   3.655   2.899  1.1246  0.4945  0.5145
16307TIP3    H270413   0.559   3.573   2.999 -0.2267  1.1447  0.0237
16308TIP3   OH270414   3.134   0.821  14.888 -0.2143  0.0736  0.2487
16308TIP3    H170415   3.192   0.850  14.958  1.2911  1.9877 -1.6632
16308TIP3    H270416   3.173   0.739  14.857  0.9877  0.8494 -0.3777
16309TIP3   OH270417   6.786   2.618  13.758 -0.1565  0.4464  0.1912
16309TIP3    H170418   6.856   2.655  13.811  0.5717  0.3089 -0.6600
16309TIP3    H270419   6.723   2.585  13.822  1.2417 -0.7628  1.0096
16310TIP3   OH270420   6.771   0.375  12.858 -0.4107 -0.3645  0.2413
16310TIP3    H170421   6.835   0.316  12.819 -0.1639  0.8457 -1.2716
16310TIP3    H270422   6.731   0.421  12.784 -0.7139  1.2323  1.3383
16311TIP3   OH270423   1.971   5.569   1.366 -0.5236  0.2122 -0.9076
16311TIP3    H170424   2.026   5.529   1.433 -0.4475 -0.8010 -1.5478
16311TIP3    H270425   2.032   5.591   1.295 -0.6338  1.0732 -0.7413
16312TIP3   OH270426   4.261   0.954  13.980 -0.3158  0.2278 -0.1667
16312TIP3    H170427   4.352   0.984  13.985 -0.5218  0.7404  0.6856
16312TIP3    H270428   4.267   0.860  13.994 -0.1723  0.6390  3.5643
16313TIP3   OH270429   4.738   1.922  13.100  0.2511 -0.6078  0.4536
16313TIP3    H170430   4.808   1.954  13.043 -0.1910  0.4663  0.4961
16313TIP3    H270431   4.731   1.829  13.078 -1.0320  0.0572 -2.5112
16314TIP3   OH270432   5.795   1.919  17.222  0.2960 -0.0560  0.0873
16314TIP3    H170433   5.871   1.947  17.170  0.6585 -0.4410  0.4036
16314TIP3    H270434   5.822   1.928  17.313  0.9654 -2.7183  0.2369
16315TIP3   OH270435   1.651   5.203  13.827 -0.7174 -0.1526 -0.3804
16315TIP3    H170436   1.614   5.182  13.913  0.9622 -1.7871 -0.0056
16315TIP3    H270437   1.575   5.230  13.775 -1.8967  0.0343  1.3352
16316TIP3   OH270438   5.116   3.106   4.492  0.1642 -0.3188  0.0651
16316TIP3    H170439   5.172   3.181   4.517  0.2794 -0.5533  0.5286
16316TIP3    H270440   5.143   3.036   4.552  0.8580 -1.0888 -1.1172
16317TIP3   OH270441   5.402   0.489   5.698  0.3006  0.2349 -0.0785
16317TIP3    H170442   5.343   0.436   5.644 -0.0512  1.1486 -0.6017
16317TIP3    H270443   5.381   0.465   5.788 -1.2723  0.9573 -0.2298
16318TIP3   OH270444   4.545   6.473  14.908  0.1631 -0.3210 -0.0470
16318TIP3    H170445   4.618   6.451  14.850 -0.2972 -0.2245 -0.6790
16318TIP3    H270446   4.476   6.503  14.848  0.6631  2.6171  0.7226
16319TIP3   OH270447   2.472   4.117   5.579  0.1922  0.3869 -0.0083
16319TIP3    H170448   2.561   4.115   5.615 -0.0276  0.7426  0.5663
16319TIP3    H270449   2.432   4.193   5.620  0.0199  0.9830 -1.2262
16320TIP3   OH270450   0.929   2.449   0.690 -0.6543  0.1283 -0.0640
16320TIP3    H170451   0.956   2.493   0.609  0.1518  1.3488  0.8286
16320TIP3    H270452   0.841   2.416   0.671 -1.7136  2.8899 -0.5516
16321TIP3   OH270453   0.245   2.911  15.910  0.4956  0.6086 -0.3469
16321TIP3    H170454   0.248   2.971  15.835 -1.4774  0.1665 -0.8464
16321TIP3    H270455   0.257   2.968  15.986  3.3496  0.9667 -0.9570
16322TIP3   OH270456   4.860   2.506  12.360  0.3763  0.1178 -0.0191
16322TIP3    H170457   4.851   2.585  12.412  0.6094  0.6308 -0.7492
16322TIP3    H270458   4.859   2.435  12.424 -1.1275  0.6100  0.5581
16323TIP3   OH270459   6.495   5.243  12.949 -0.1638  0.3405  0.1430
16323TIP3    H170460   6.481   5.229  12.855 -1.8526 -2.4483  0.6863
16323TIP3    H270461   6.589   5.258  12.958 -0.1293  1.7443 -2.0784
16324TIP3   OH270462   3.604   0.404  12.959 -0.4529  0.5230  0.0996
16324TIP3    H170463   3.589   0.359  12.875  1.9578  1.8143 -1.1174
16324TIP3    H270464   3.517   0.433  12.986 -1.5166 -1.3439 -1.0929
16325TIP3   OH270465   5.881   6.000   2.134  0.1029  0.4024 -0.8859
16325TIP3    H170466   5.907   5.918   2.175 -0.0697  0.8018  0.0608
16325TIP3    H270467   5.942   6.012   2.061  2.4171  1.1418  1.0486
16326TIP3   OH270468   2.252   6.361   6.094  0.2926 -0.0478  0.2315
16326TIP3    H170469   2.218   6.440   6.136 -0.0870  0.2499 -0.6091
16326TIP3    H270470   2.342   6.382   6.072  1.0291 -0.7724  2.2975
16327TIP3   OH270471   0.103   1.042   0.235 -0.0420 -0.3208 -0.2198
16327TIP3    H170472   0.075   0.966   0.185 -0.9679 -1.5120  1.9977
16327TIP3    H270473   0.129   1.007   0.320  1.3227  1.6420  0.2573
16328TIP3   OH270474   0.237   5.252   0.820  0.2552 -0.3790 -0.0601
16328TIP3    H170475   0.216   5.161   0.800  0.4116 -0.4777  0.2286
16328TIP3    H270476   0.332   5.257   0.815  0.2307 -0.1496 -0.4180
16329TIP3   OH270477   1.768   0.228   3.490 -0.2576  0.6206  0.2149
16329TIP3    H170478   1.733   0.314   3.516  0.7824  0.7953  1.1297
16329TIP3    H270479   1.827   0.247   3.418 -1.7653  0.3567 -1.1541
16330TIP3   OH270480   4.685   3.360   4.842  0.0876  0.2705 -0.3921
16330TIP3    H170481   4.667   3.267   4.831  1.5205  0.1248 -2.0687
16330TIP3    H270482   4.632   3.387   4.916 -1.1077 -1.6635 -0.4871
16331TIP3   OH270483   6.485   0.098   1.039 -0.5050  0.7604 -0.6288
16331TIP3    H170484   6.465   0.137   1.124 -0.0091  1.2653 -0.7417
16331TIP3    H270485   6.411   0.121   0.984 -1.9463 -1.4595  0.2457
16332TIP3   OH270486   5.415   5.343  16.321 -0.1923 -0.1005  0.1494
16332TIP3    H170487   5.396   5.414  16.383 -0.1060 -0.6804  0.8458
16332TIP3    H270488   5.467   5.280  16.371  0.1410 -0.4336 -0.6025
16333TIP3   OH270489   6.029   1.896   6.459 -0.3837  0.6908 -0.0105
16333TIP3    H170490   6.015   1.956   6.533  2.8760  0.7997  0.6619
16333TIP3    H270491   6.099   1.838   6.489  0.7406  0.4500 -2.8344
16334TIP3   OH270492   2.204   2.078  16.536 -0.5080 -0.6901  0.4108
16334TIP3    H170493   2.226   2.050  16.625 -1.9797 -1.5543  0.5277
16334TIP3    H270494   2.114   2.111  16.543  0.0200  1.0357 -0.3968
16335TIP3   OH270495   4.706   4.067  14.373  0.4318 -0.4910 -0.6751
16335TIP3    H170496   4.787   4.116  14.359 -0.0506  0.9242  1.0978
16335TIP3    H270497   4.648   4.128  14.419 -1.4115 -1.6910 -1.2942
16336TIP3   OH270498   1.840   6.286   1.450  0.0768 -0.2511 -0.3591
16336TIP3    H170499   1.761   6.253   1.408 -0.0289  0.2492 -0.5625
16336TIP3    H270500   1.911   6.257   1.393 -0.0784  0.5771 -1.0017
16337TIP3   OH270501   6.579   1.433  13.312  0.5994  0.5458 -0.1204
16337TIP3    H170502   6.500   1.444  13.258 -1.1501 -1.6329  1.8344
16337TIP3    H270503   6.633   1.372  13.263 -0.5782 -0.7303  0.1135
16338TIP3   OH270504   6.219   5.736   1.473  0.3225 -0.4963 -0.2951
16338TIP3    H170505   6.151   5.672   1.495 -0.0669  0.1882  0.5153
16338TIP3    H270506   6.177   5.793   1.408  0.0114  0.0858  0.3980
16339TIP3   OH270507   5.707   1.191  10.180 -0.1788 -0.4138  0.6906
16339TIP3    H170508   5.788   1.221  10.220 -1.2683  0.1245  2.6523
16339TIP3    H270509   5.691   1.105  10.218 -0.0717 -0.9303 -0.4024
16340TIP3   OH270510   0.192   3.032  16.339 -0.2351  0.2821 -0.4343
16340TIP3    H170511   0.276   3.073  16.358 -0.4408  0.8249 -0.6685
16340TIP3    H270512   0.187   3.029  16.243 -0.4884  0.2735 -0.4246
16341TIP3   OH270513   6.754   0.871  13.249 -0.2126  0.1125 -0.9679
16341TIP3    H170514   6.720   0.928  13.180 -2.9598  2.8541  2.3075
16341TIP3    H270515   6.700   0.890  13.325  1.7092 -3.7051  1.6844
16342TIP3   OH270516   5.256   3.013   1.536  0.5862  0.1113 -0.1687
16342TIP3    H170517   5.337   2.987   1.580  0.5199 -0.0185 -0.1225
16342TIP3    H270518   5.273   2.998   1.443  0.6379  0.1494 -0.1661
16343TIP3   OH270519   0.487   1.258   1.954  0.4623  0.6389 -0.4499
16343TIP3    H170520   0.542   1.194   2.000  0.4035  1.3333  0.6287
16343TIP3    H270521   0.491   1.231   1.862  3.1186  1.0260 -0.5312
16344TIP3   OH270522   2.143   6.653   0.290 -0.1433 -0.3471  0.0227
16344TIP3    H170523   2.086   6.655   0.213  0.1678  0.8867 -0.2035
16344TIP3    H270524   2.231   6.658   0.254 -0.0389  3.3050  0.4648
16345TIP3   OH270525   0.933   6.589   5.083  0.0875  0.2145 -0.1399
16345TIP3    H170526   0.866   6.583   5.015 -1.0457 -0.2545  0.9886
16345TIP3    H270527   0.988   6.512   5.070  0.0320  0.2651 -0.6759
16346TIP3   OH270528   6.536   6.428   3.026 -0.3345 -0.1153 -0.1219
16346TIP3    H170529   6.585   6.388   2.953 -0.5054 -2.1582  0.8420
16346TIP3    H270530   6.489   6.501   2.985  1.9015  0.6843 -1.4739
16347TIP3   OH270531   4.029   5.080   4.013  0.1183  0.7270 -0.5815
16347TIP3    H170532   4.083   5.075   3.935  0.4724  1.3682 -0.3772
16347TIP3    H270533   3.998   5.171   4.017 -1.0726  0.3564 -0.7596
16348TIP3   OH270534   5.030   6.774   3.606  0.2239  0.5281  0.2906
16348TIP3    H170535   5.049   6.726   3.687 -1.1416 -0.8213 -0.1403
16348TIP3    H270536   4.937   6.793   3.611  0.2818  1.0851 -0.6301
16349TIP3   OH270537   1.796   5.767   1.421  0.0664 -0.5270  0.1287
16349TIP3    H170538   1.868   5.830   1.418 -0.3624 -0.0576 -1.1594
16349TIP3    H270539   1.837   5.682   1.407  0.4598 -0.3526  0.2134
16350TIP3   OH270540   2.488   0.752  14.291  0.2268  0.4244 -0.6953
16350TIP3    H170541   2.483   0.702  14.372  3.2926  1.2218  0.1185
16350TIP3    H270542   2.466   0.690  14.222 -0.2448 -0.8618  0.5772
16351TIP3   OH270543   4.579   6.802   0.082  0.2154  0.2989  0.8151
16351TIP3    H170544   4.665   6.771   0.110  0.8767  0.1236 -1.2184
16351TIP3    H270545   4.551   6.861   0.152  2.5925  1.4039  0.9413
16352TIP3   OH270546   3.654   2.054  13.799  0.0818 -0.4221 -0.0549
16352TIP3    H170547   3.604   2.112  13.857  0.5363 -1.1829  1.1393
16352TIP3    H270548   3.741   2.049  13.839  0.4529 -0.8582 -0.8902
16353TIP3   OH270549   0.168   3.225  12.502  0.3523 -0.0134 -0.2432
16353TIP3    H170550   0.240   3.162  12.515 -0.2781 -1.0380 -1.4416
16353TIP3    H270551   0.101   3.175  12.456 -0.7990  1.1581  0.1204
16354TIP3   OH270552   6.739   4.870  10.592  0.4096  0.0243  0.2037
16354TIP3    H170553   6.731   4.873  10.688  0.2665 -0.7834  0.2169
16354TIP3    H270554   6.678   4.802  10.565  2.1768 -1.4183 -0.2688
16355TIP3   OH270555   5.523   5.012   5.460  0.7581  0.6626 -0.0161
16355TIP3    H170556   5.471   4.967   5.393  1.1856  1.5698 -0.9805
16355TIP3    H270557   5.531   4.948   5.531  0.1505 -0.2550 -0.7533
16356TIP3   OH270558   1.796   4.166   0.328  0.3874 -0.5176  1.1198
16356TIP3    H170559   1.722   4.117   0.364  1.1434 -1.9728  0.7819
16356TIP3    H270560   1.850   4.100   0.284  0.2374  0.9806 -1.4963
16357TIP3   OH270561   3.576   0.416  14.701  0.1581  0.2000  0.0902
16357TIP3    H170562   3.663   0.376  14.705  0.4069  0.8217  1.4566
16357TIP3    H270563   3.524   0.354  14.649  1.0761 -0.8394  0.3574
16358TIP3   OH270564   1.353   3.528  13.768  0.0196 -0.0502  0.7580
16358TIP3    H170565   1.358   3.591  13.696 -0.8496 -1.0449 -0.2129
16358TIP3    H270566   1.314   3.450  13.729 -0.9693 -0.4401  2.4287
16359TIP3   OH270567   5.384   3.969   3.419 -0.3155  0.2516  0.2326
16359TIP3    H170568   5.360   4.052   3.461 -2.1683 -1.7681  3.6300
16359TIP3    H270569   5.469   3.946   3.457 -1.5939 -1.1526  2.4802
16360TIP3   OH270570   1.051   5.721  14.871  0.2586  0.2989  0.4906
16360TIP3    H170571   1.034   5.801  14.921 -1.1848 -0.2319  0.9163
16360TIP3    H270572   0.970   5.671  14.879  0.0465  0.0959 -2.2313
16361TIP3   OH270573   5.842   4.504  17.137  0.2687  0.0144 -0.6666
16361TIP3    H170574   5.925   4.484  17.094 -0.1624  0.7800 -1.9093
16361TIP3    H270575   5.799   4.419  17.148  1.1282 -0.3607 -0.1867
16362TIP3   OH270576   3.094   2.131   1.087  0.0142 -0.4562  0.4998
16362TIP3    H170577   3.069   2.191   1.017 -0.6103  0.7079  1.6871
16362TIP3    H270578   3.111   2.048   1.042 -0.6219  0.1894 -0.9944
16363TIP3   OH270579   6.020   4.539   2.852 -0.4349  0.3430 -0.0206
16363TIP3    H170580   6.074   4.582   2.917 -0.7117 -0.3402  0.6765
16363TIP3    H270581   6.066   4.553   2.769 -1.1820  3.1242 -0.0567
16364TIP3   OH270582   6.794   2.511   0.647 -0.1989  0.0849 -0.1813
16364TIP3    H170583   6.879   2.469   0.660 -1.3987 -1.7011  2.9698
16364TIP3    H270584   6.812   2.604   0.657  1.3011 -0.3223  1.4867
16365TIP3   OH270585   4.838   2.882   5.667  0.5782  0.0074  0.1185
16365TIP3    H170586   4.846   2.809   5.605 -0.1953 -0.4334  0.5258
16365TIP3    H270587   4.881   2.852   5.746  0.9546  0.3058  0.0322
16366TIP3   OH270588   2.112   6.035   3.089  0.4110  0.4618  0.0896
16366TIP3    H170589   2.173   5.979   3.136  0.9783  1.8223  1.0339
16366TIP3    H270590   2.145   6.036   2.999 -0.8394 -2.3687 -0.5157
16367TIP3   OH270591   5.677   4.742   2.153  0.5229 -0.6232 -0.1376
16367TIP3    H170592   5.707   4.769   2.066  0.2032 -0.3838 -0.1759
16367TIP3    H270593   5.715   4.655   2.165 -0.4421 -1.2050 -1.0532
16368TIP3   OH270594   1.216   3.576  11.778  0.1270 -0.2305  0.3174
16368TIP3    H170595   1.186   3.666  11.788  0.5167 -0.0402 -0.1590
16368TIP3    H270596   1.195   3.534  11.861 -0.9650  0.0337  0.1987
16369TIP3   OH270597   6.283   0.314   5.821 -0.0686 -0.1347 -0.1643
16369TIP3    H170598   6.197   0.277   5.844 -0.4571 -0.9808 -2.6499
16369TIP3    H270599   6.346   0.258   5.865 -0.7681 -0.8379 -0.0327
16370TIP3   OH270600   2.554   1.796  13.321  0.1355 -0.0298 -0.1961
16370TIP3    H170601   2.516   1.740  13.388 -0.2125  0.3363 -0.0888
16370TIP3    H270602   2.613   1.737  13.272 -0.5060 -0.5814 -0.3240
16371TIP3   OH270603   1.379   4.450  14.204  0.4588 -0.8462 -0.1770
16371TIP3    H170604   1.453   4.457  14.142  1.2940  1.0819  0.9502
16371TIP3    H270605   1.358   4.540  14.226 -3.3608 -1.1824 -1.6211
16372TIP3   OH270606   3.780   4.936   3.279 -0.4063  0.8745  0.2033
16372TIP3    H170607   3.801   4.995   3.350  0.0825  1.5238 -0.4677
16372TIP3    H270608   3.812   4.851   3.308 -0.3896  1.0939  0.8360
16373TIP3   OH270609   2.599   0.257  13.172 -0.1442  0.1776 -0.0194
16373TIP3    H170610   2.679   0.291  13.213  0.9726 -1.3405 -0.8444
16373TIP3    H270611   2.628   0.229  13.085 -2.1103  1.8624 -1.3149
16374TIP3   OH270612   3.446   1.349  11.544 -0.0600  0.0129 -0.6054
16374TIP3    H170613   3.487   1.421  11.496  1.4030 -0.5741 -0.3079
16374TIP3    H270614   3.391   1.392  11.609  0.9727  0.8831 -0.2707
16375TIP3   OH270615   6.813   3.048  12.342 -0.4838 -0.0654 -0.1519
16375TIP3    H170616   6.718   3.035  12.333 -0.3586 -2.2385  0.8717
16375TIP3    H270617   6.847   3.029  12.255 -0.8054 -2.1657  0.1259
16376TIP3   OH270618   0.669   6.493  12.207 -0.4694 -0.2938 -0.4346
16376TIP3    H170619   0.655   6.448  12.290  1.7798 -1.6194 -0.6979
16376TIP3    H270620   0.603   6.562  12.205  0.1366  0.5233  2.9678
16377TIP3   OH270621   3.292   2.926   5.754  0.5430  0.4588 -0.0465
16377TIP3    H170622   3.383   2.937   5.728  0.9538  1.2790  1.5985
16377TIP3    H270623   3.285   2.973   5.837 -1.2380 -0.0817  0.1495
16378TIP3   OH270624   1.038   3.548  12.313  0.6413  0.5349 -0.2886
16378TIP3    H170625   1.029   3.635  12.352  0.2727  0.3026  0.1550
16378TIP3    H270626   0.977   3.493  12.363 -0.6605  0.4577 -1.8787
16379TIP3   OH270627   6.796   1.900  14.223 -0.2579 -0.1186  0.1277
16379TIP3    H170628   6.742   1.945  14.157  1.0611  0.3798 -0.6705
16379TIP3    H270629   6.864   1.857  14.172  1.1869  0.8149  1.1903
16380TIP3   OH270630   4.836   3.039  15.816 -0.0651  0.3607  0.2251
16380TIP3    H170631   4.908   2.983  15.843 -2.6487 -2.3624  2.1072
16380TIP3    H270632   4.820   3.096  15.892  0.4235  1.3606 -0.4039
16381TIP3   OH270633   2.499   1.409  12.993  0.0771  0.4053 -0.5841
16381TIP3    H170634   2.593   1.422  12.978  0.6157 -0.4215  1.7266
16381TIP3    H270635   2.470   1.489  13.038 -0.6934  1.2491 -2.4476
16382TIP3   OH270636   0.423   5.604  13.534 -0.1866 -0.5310 -0.0188
16382TIP3    H170637   0.432   5.657  13.613 -1.2274 -0.3523 -0.0035
16382TIP3    H270638   0.478   5.648  13.469 -0.2824  0.0244  0.2682
16383TIP3   OH270639   1.738   1.694   1.132  0.0849 -0.0022  0.4550
16383TIP3    H170640   1.733   1.789   1.118 -1.8943 -0.0852  0.3476
16383TIP3    H270641   1.798   1.663   1.064 -1.2455  0.8891 -1.2108
16384TIP3   OH270642   1.146   3.377   4.726 -0.3575 -0.4466 -0.2405
16384TIP3    H170643   1.197   3.347   4.801  0.0882 -1.2673 -0.8453
16384TIP3    H270644   1.212   3.395   4.659 -0.8351 -1.3501 -0.9795
16385TIP3   OH270645   6.507   6.769  11.392 -0.2518  0.1783 -0.2372
16385TIP3    H170646   6.505   6.846  11.336  1.6000 -0.4004 -1.1905
16385TIP3    H270647   6.415   6.755  11.417 -0.7604  2.0419 -0.8812
16386TIP3   OH270648   6.030   0.538  10.845  0.0800 -0.4566 -0.0703
16386TIP3    H170649   6.074   0.468  10.798  2.0695  0.1198  0.8394
16386TIP3    H270650   6.054   0.525  10.937 -0.1696  0.9448  0.2155
16387TIP3   OH270651   5.446   0.604   5.169  0.9369 -0.4430  0.0946
16387TIP3    H170652   5.495   0.523   5.184 -0.5578 -1.2196  0.9771
16387TIP3    H270653   5.377   0.604   5.235  0.0989  0.9174 -0.7139
16388TIP3   OH270654   6.755   0.154   0.087  0.3002  0.1071 -0.0242
16388TIP3    H170655   6.738   0.064   0.059 -0.9225  0.7422 -1.4846
16388TIP3    H270656   6.693   0.168   0.159  0.9525 -0.4169  0.6475
16389TIP3   OH270657   5.274   3.817   1.668  0.0295  0.7896 -0.6613
16389TIP3    H170658   5.341   3.837   1.603  0.2072  1.6347 -0.2258
16389TIP3    H270659   5.194   3.857   1.634 -0.0572  0.5515 -0.7419
16390TIP3   OH270660   0.749   2.831   4.142 -0.3645 -0.3076 -0.1801
16390TIP3    H170661   0.669   2.844   4.091 -0.0264 -1.2983 -1.0054
16390TIP3    H270662   0.816   2.879   4.093 -0.6046  1.3953  1.0618
16391TIP3   OH270663   6.541   2.126  16.042  0.1999  0.3410 -1.0539
16391TIP3    H170664   6.457   2.085  16.062  1.3896 -1.4199  0.7157
16391TIP3    H270665   6.522   2.187  15.971 -2.8807  1.2160  0.3551
16392TIP3   OH270666   5.531   2.647   1.095  0.6094 -0.3958  0.3792
16392TIP3    H170667   5.604   2.655   1.157  1.1207  1.8606 -0.4122
16392TIP3    H270668   5.564   2.588   1.027  1.0264 -0.8083  0.9379
16393TIP3   OH270669   2.596   2.277   0.929 -0.8132 -0.2964  0.2870
16393TIP3    H170670   2.518   2.223   0.941 -0.5500 -0.7039  0.1463
16393TIP3    H270671   2.581   2.352   0.988 -0.7579 -0.9653  1.1740
16394TIP3   OH270672   6.342   5.138  16.950  0.2150  0.5497 -0.1552
16394TIP3    H170673   6.381   5.212  16.995  0.8828 -0.2672  0.6347
16394TIP3    H270674   6.329   5.169  16.860 -1.7426  2.4136  0.6989
16395TIP3   OH270675   2.805   3.795   5.592 -0.1133  0.3240  0.2889
16395TIP3    H170676   2.809   3.834   5.680 -1.0239  1.0411  0.0271
16395TIP3    H270677   2.801   3.869   5.533 -1.0405 -0.1542 -0.2709
16396TIP3   OH270678   3.152   0.457   2.064  0.3074 -0.0062 -0.2117
16396TIP3    H170679   3.245   0.481   2.072  0.7051 -1.3105 -0.7855
16396TIP3    H270680   3.152   0.373   2.019 -1.2226  0.4985 -1.2125
16397TIP3   OH270681   2.786   4.044  14.958 -0.1861  0.2731 -0.1567
16397TIP3    H170682   2.800   4.000  15.042  0.1016  1.1659  0.2752
16397TIP3    H270683   2.694   4.029  14.938  0.1655 -1.5344 -0.6166
16398TIP3   OH270684   1.777   2.965   3.409 -0.4555 -0.4323  0.2112
16398TIP3    H170685   1.796   2.991   3.500  2.3205  1.0455 -0.6756
16398TIP3    H270686   1.809   2.875   3.403 -2.0214 -1.0749  1.0380
16399TIP3   OH270687   3.038   0.685   3.063  0.4423 -0.3660  1.1507
16399TIP3    H170688   3.123   0.655   3.094  1.2383  0.5793 -0.0292
16399TIP3    H270689   3.055   0.721   2.976 -0.7167  1.9468  1.7844
16400TIP3   OH270690   4.540   3.658   3.838 -0.0047 -0.0805 -0.2038
16400TIP3    H170691   4.574   3.657   3.928 -1.9102 -0.1085  0.5714
16400TIP3    H270692   4.567   3.742   3.803  0.5101  0.0594  0.4926
16401TIP3   OH270693   4.768   4.420  13.284  0.7112  0.4052 -0.1181
16401TIP3    H170694   4.689   4.385  13.327 -0.3884  2.3257 -0.4735
16401TIP3    H270695   4.840   4.371  13.325 -0.5634 -0.6374  1.0165
16402TIP3   OH270696   0.985   3.267  11.725 -0.3251 -0.3489 -0.1321
16402TIP3    H170697   0.971   3.362  11.721  1.7988  0.0060 -0.5661
16402TIP3    H270698   0.898   3.229  11.717 -1.2880  1.5707  0.6144
16403TIP3   OH270699   3.638   1.138  12.545  0.2204 -0.8430 -0.2774
16403TIP3    H170700   3.677   1.073  12.486  0.6604 -0.9381  0.1130
16403TIP3    H270701   3.712   1.170  12.597  0.1991  0.7228 -1.1720
16404TIP3   OH270702   5.333   5.135   5.262 -0.6893 -0.2709 -0.1550
16404TIP3    H170703   5.404   5.199   5.262 -1.2040  0.3348 -1.0609
16404TIP3    H270704   5.260   5.179   5.305 -0.7485 -0.6034  0.0881
16405TIP3   OH270705   0.981   3.000   5.225 -0.1077  0.2009  0.8821
16405TIP3    H170706   1.037   2.954   5.162  0.7810  0.5100  1.4412
16405TIP3    H270707   0.893   2.966   5.206  0.3123 -0.6062  0.2750
16406TIP3   OH270708   4.636   0.210  14.760 -0.2465  0.2426  0.3666
16406TIP3    H170709   4.581   0.275  14.715  0.7941  0.7783 -0.1783
16406TIP3    H270710   4.578   0.136  14.775 -0.5363 -0.1890 -2.3900
16407TIP3   OH270711   1.290   2.943  13.956 -0.1408  0.0884 -0.2111
16407TIP3    H170712   1.259   2.948  14.046  1.6528  2.2937  0.3898
16407TIP3    H270713   1.307   3.034  13.932  1.8485 -0.6364 -1.8391
16408TIP3   OH270714   1.764   4.705  17.142  0.5477 -0.0376  0.3646
16408TIP3    H170715   1.791   4.621  17.178  0.7939 -0.9388 -1.7540
16408TIP3    H270716   1.744   4.759  17.219 -1.6557 -2.6391  1.8149
16409TIP3   OH270717   4.568   5.295   3.920 -0.3967 -0.4691  0.2546
16409TIP3    H170718   4.620   5.375   3.927 -0.0036 -0.7113  0.1143
16409TIP3    H270719   4.543   5.291   3.828 -1.6848  0.2789  0.5417
16410TIP3   OH270720   2.028   5.815   1.072  0.6846  0.1512  0.0784
16410TIP3    H170721   1.933   5.822   1.085  0.5886 -0.4023 -0.2915
16410TIP3    H270722   2.044   5.860   0.989  0.9976  1.7537  0.9533
16411TIP3   OH270723   0.091   0.702  14.435  0.2366 -0.2069  0.1751
16411TIP3    H170724   0.088   0.626  14.493  0.9752 -0.4799 -0.1304
16411TIP3    H270725   0.158   0.758  14.472 -1.1585  0.9165  1.1124
16412TIP3   OH270726   2.589   0.823  15.823 -0.2630  0.1460  0.1221
16412TIP3    H170727   2.674   0.823  15.779  0.0250  1.8611  0.6273
16412TIP3    H270728   2.588   0.903  15.875 -2.8817  1.1028 -1.2207
16413TIP3   OH270729   6.316   1.586  10.543 -0.0322  0.2227 -0.4561
16413TIP3    H170730   6.404   1.614  10.568  0.3337 -0.8036 -0.5657
16413TIP3    H270731   6.305   1.500  10.584 -1.0049  0.3483 -0.4124
16414TIP3   OH270732   2.442   5.846   3.824  0.5326 -0.5680 -0.1624
16414TIP3    H170733   2.444   5.874   3.915  0.5479 -1.3103  0.0684
16414TIP3    H270734   2.531   5.862   3.792  0.6920 -0.8573  0.1259
16415TIP3   OH270735   0.661   1.324  12.878  0.7978  0.2000 -0.1307
16415TIP3    H170736   0.749   1.349  12.904  1.5703 -0.6278 -1.7914
16415TIP3    H270737   0.637   1.389  12.812  0.9097 -0.6148 -0.9952
16416TIP3   OH270738   1.141   2.871  11.547  0.2646 -0.1281  0.0232
16416TIP3    H170739   1.128   2.799  11.609  0.0186  0.1696  0.3203
16416TIP3    H270740   1.053   2.892  11.516  0.3403  0.0182 -0.0955
16417TIP3   OH270741   1.667   0.472  16.127 -0.4480  0.1822  0.5342
16417TIP3    H170742   1.639   0.381  16.123  1.1691 -0.3026 -1.5548
16417TIP3    H270743   1.761   0.467  16.147 -0.1962  1.3339 -0.2385
16418TIP3   OH270744   2.122   3.373  15.799  0.6284 -0.0984 -0.2049
16418TIP3    H170745   2.082   3.291  15.771  1.1168  0.3156 -2.3065
16418TIP3    H270746   2.211   3.349  15.824  0.9789 -0.1489 -1.4396
16419TIP3   OH270747   6.177   2.899  11.252 -0.5037 -0.5527 -1.2343
16419TIP3    H170748   6.158   2.978  11.303 -0.9527 -1.0534 -0.6155
16419TIP3    H270749   6.202   2.932  11.166  3.8617  0.6067  0.1703
16420TIP3   OH270750   2.695   1.736   2.926  0.2421 -0.0001  0.2551
16420TIP3    H170751   2.642   1.744   2.846 -1.2283 -2.5519  0.8656
16420TIP3    H270752   2.632   1.745   2.997  1.5222  2.0981  1.2237
16421TIP3   OH270753   3.218   0.976   0.882 -0.2033 -0.6784 -0.3279
16421TIP3    H170754   3.234   0.924   0.961  0.7239 -1.2336 -0.8585
16421TIP3    H270755   3.305   1.007   0.856 -0.3356 -1.3935 -1.7215
16422TIP3   OH270756   0.727   0.705   3.726  0.0471  0.2657  0.1792
16422TIP3    H170757   0.800   0.740   3.675 -1.7537  0.9985 -2.1594
16422TIP3    H270758   0.708   0.773   3.791 -0.0256  1.2122 -0.7953
16423TIP3   OH270759   6.158   4.214  12.729 -0.3602  0.0248 -0.3131
16423TIP3    H170760   6.199   4.301  12.725 -2.2004  0.9611  0.0477
16423TIP3    H270761   6.067   4.230  12.707 -0.9365 -1.6958  0.6428
16424TIP3   OH270762   1.260   2.573  15.081 -1.1568 -0.0105  0.8378
16424TIP3    H170763   1.251   2.575  14.986 -1.4483 -2.9642  0.7344
16424TIP3    H270764   1.346   2.613  15.098 -1.4478  1.2871 -0.5611
16425TIP3   OH270765   6.695   1.986   2.477  0.1934 -0.1990 -0.1191
16425TIP3    H170766   6.671   1.927   2.406 -0.8946 -0.2376  0.2572
16425TIP3    H270767   6.668   2.073   2.446  1.5935  0.0997 -0.5834
16426TIP3   OH270768   1.717   4.078   4.737 -0.6323  0.0810  0.0261
16426TIP3    H170769   1.739   4.006   4.796  0.7932  1.2724  1.0411
16426TIP3    H270770   1.791   4.084   4.678 -0.2867  1.2729  0.5492
16427TIP3   OH270771   5.246   6.268   0.398  0.4545  0.5681  0.1825
16427TIP3    H170772   5.187   6.266   0.473  0.8561 -0.8251  0.4816
16427TIP3    H270773   5.227   6.188   0.350  1.0053  0.8826 -0.5898
16428TIP3   OH270774   5.608   5.111  11.461  0.7133 -0.2397  0.2977
16428TIP3    H170775   5.652   5.042  11.411  0.5220 -0.3123  0.2312
16428TIP3    H270776   5.654   5.112  11.545  0.6875 -0.4763  0.3144
16429TIP3   OH270777   5.244   3.734  14.682  0.4697  0.8003 -0.0412
16429TIP3    H170778   5.304   3.796  14.639  0.0725  0.5773 -0.9321
16429TIP3    H270779   5.157   3.773  14.670  0.2912  0.4254  0.0289
16430TIP3   OH270780   4.905   0.171   0.113 -0.2884  0.2354  0.0397
16430TIP3    H170781   4.955   0.100   0.153  0.1945  0.7252  0.3103
16430TIP3    H270782   4.887   0.140   0.024  1.5547  0.5582 -0.4832
16431TIP3   OH270783   3.661   5.810  12.171 -0.6194  0.3609  0.1644
16431TIP3    H170784   3.615   5.857  12.240 -0.2559  1.3254 -0.2293
16431TIP3    H270785   3.748   5.850  12.168 -0.4931  0.0546 -0.5653
16432TIP3   OH270786   5.914   1.659   5.724  0.0575  0.2608  0.0631
16432TIP3    H170787   5.929   1.640   5.816  2.1324 -0.5610 -0.3788
16432TIP3    H270788   5.909   1.573   5.682  0.7672  0.6098 -0.7796
16433TIP3   OH270789   0.464   6.498  16.121 -0.0089 -0.1564  0.0078
16433TIP3    H170790   0.488   6.587  16.095 -1.1167  0.0336 -0.4490
16433TIP3    H270791   0.491   6.492  16.212 -2.1421  1.5810  0.8710
16434TIP3   OH270792   2.414   3.827  16.206 -0.1337  0.4867 -0.2408
16434TIP3    H170793   2.481   3.779  16.157 -0.1881 -0.0942  0.2429
16434TIP3    H270794   2.432   3.806  16.298 -1.2805 -0.0790 -0.1279
16435TIP3   OH270795   5.563   2.880   1.314  0.3885 -0.7022  0.2113
16435TIP3    H170796   5.483   2.931   1.310  1.4608  1.0216 -0.2980
16435TIP3    H270797   5.620   2.918   1.247  1.8992 -1.3991  1.0340
16436TIP3   OH270798   4.549   6.678   3.800 -0.5665  0.0710  0.2434
16436TIP3    H170799   4.577   6.729   3.876 -3.5842 -1.3948  2.5543
16436TIP3    H270800   4.502   6.740   3.745  0.2322  0.8036  0.3563
16437TIP3   OH270801   1.888   5.741  13.836 -0.0760  0.2201  0.3603
16437TIP3    H170802   1.821   5.735  13.905 -0.7235 -0.0319 -0.2763
16437TIP3    H270803   1.944   5.664  13.850 -0.8937 -0.4731 -0.0920
16438TIP3   OH270804   0.302   6.139   4.118  0.6121 -0.0799 -0.0976
16438TIP3    H170805   0.214   6.145   4.080  0.4947  1.1924  0.3582
16438TIP3    H270806   0.361   6.157   4.045  0.5138 -0.8287 -0.3797
16439TIP3   OH270807   6.636   0.963   2.500  0.0586 -0.4483 -0.3285
16439TIP3    H170808   6.705   0.979   2.435 -0.4915  0.3406 -0.7304
16439TIP3    H270809   6.555   0.959   2.450 -0.2359 -1.0278  0.1808
16440TIP3   OH270810   6.448   1.531  15.271 -0.0744 -0.0413  0.0861
16440TIP3    H170811   6.477   1.607  15.220 -0.9203 -1.1769 -2.2110
16440TIP3    H270812   6.396   1.568  15.342 -0.9022  1.5533 -1.2773
16441TIP3   OH270813   3.633   6.263   5.326 -0.1336  0.1792  0.4682
16441TIP3    H170814   3.713   6.238   5.281  0.4550  2.1621  0.2885
16441TIP3    H270815   3.589   6.323   5.265 -1.5364 -0.4933  0.7619
16442TIP3   OH270816   6.716   5.357   3.530 -0.3016 -0.0137  0.1421
16442TIP3    H170817   6.726   5.404   3.447  0.9631  0.9853  0.8133
16442TIP3    H270818   6.799   5.373   3.576  0.5774 -3.6170  0.0852
16443TIP3   OH270819   0.912   1.768  17.177 -0.1625  0.3842 -0.0007
16443TIP3    H170820   0.980   1.747  17.113  0.3600  0.0160  0.6544
16443TIP3    H270821   0.854   1.829  17.132 -0.6744 -1.0302 -1.3385
16444TIP3   OH270822   0.300   4.157  17.284 -0.2238  0.0934 -0.2584
16444TIP3    H170823   0.227   4.182  17.341  2.3801  2.4072  2.4603
16444TIP3    H270824   0.336   4.078  17.325 -0.7132 -0.5566 -1.0842
16445TIP3   OH270825   5.070   0.852  13.199 -0.4028  0.0407 -0.3041
16445TIP3    H170826   5.051   0.801  13.278 -0.8239  0.0881 -0.3725
16445TIP3    H270827   5.092   0.939  13.232  0.7606 -0.2920 -0.1562
16446TIP3   OH270828   5.250   3.690   3.770 -0.2702  0.0935  0.0083
16446TIP3    H170829   5.175   3.746   3.750 -0.7426  0.1628  1.8018
16446TIP3    H270830   5.255   3.630   3.696 -2.3219 -0.1403 -0.0009
16447TIP3   OH270831   1.430   4.244   1.734  0.0852 -0.2186  0.0688
16447TIP3    H170832   1.469   4.300   1.801 -2.5358 -1.5855  3.0140
16447TIP3    H270833   1.436   4.295   1.654  1.3107  2.5885  1.7794
16448TIP3   OH270834   5.028   1.585   6.000  0.1696  0.1292  0.2049
16448TIP3    H170835   5.104   1.534   5.973  1.1942  1.4270  0.5548
16448TIP3    H270836   5.014   1.562   6.092 -0.3694 -0.6858 -0.0629
16449TIP3   OH270837   4.466   1.763  16.120  0.4738 -0.4299 -0.1000
16449TIP3    H170838   4.436   1.677  16.150 -0.2165  0.0978  0.7536
16449TIP3    H270839   4.397   1.794  16.061  0.3280 -0.1078  0.2372
16450TIP3   OH270840   6.453   5.550  11.628 -0.0072  0.3498 -0.4345
16450TIP3    H170841   6.526   5.534  11.568 -0.1395  0.1763 -0.5486
16450TIP3    H270842   6.375   5.520  11.580 -0.2840  1.5046 -0.7366
16451TIP3   OH270843   2.895   0.463   5.459  0.3245  0.7317 -0.4961
16451TIP3    H170844   2.936   0.547   5.479  1.4755  0.0993 -0.1134
16451TIP3    H270845   2.964   0.399   5.473 -0.0812 -0.1587 -2.2236
16452TIP3   OH270846   6.626   2.083  12.124  0.0518  0.2040  0.2482
16452TIP3    H170847   6.558   2.094  12.057 -0.3221  0.0860  0.6097
16452TIP3    H270848   6.702   2.129  12.088 -0.5590  1.3392  0.3571
16453TIP3   OH270849   6.051   5.534   1.515  0.2440  0.0011  0.2824
16453TIP3    H170850   6.082   5.467   1.454 -0.7933  0.3019 -0.6220
16453TIP3    H270851   6.003   5.485   1.582  0.7349 -0.2725  0.4364
16454TIP3   OH270852   4.836   6.645  10.742 -0.5371 -0.2654 -0.0019
16454TIP3    H170853   4.892   6.721  10.759 -0.0095 -1.1563  2.9233
16454TIP3    H270854   4.873   6.604  10.664  1.6931  0.2771  0.6968
16455TIP3   OH270855   3.376   0.642   3.473 -0.6900 -0.3051  0.0346
16455TIP3    H170856   3.386   0.737   3.472 -0.5925 -0.3085 -1.6100
16455TIP3    H270857   3.465   0.608   3.478 -0.6441 -0.2967 -0.6035
16456TIP3   OH270858   0.272   0.431  14.609  0.1114 -0.2961 -0.2918
16456TIP3    H170859   0.257   0.446  14.702 -0.6176  0.5334 -0.5237
16456TIP3    H270860   0.364   0.453  14.595 -0.5573  3.0622 -0.3699
16457TIP3   OH270861   3.985   5.167   4.963  0.1991  1.0474 -0.3851
16457TIP3    H170862   3.998   5.200   5.052  1.0343 -2.4205  0.9628
16457TIP3    H270863   4.068   5.184   4.919  0.3469  1.3945  0.0219
16458TIP3   OH270864   5.205   0.045  11.657  0.6659 -0.4108 -0.2200
16458TIP3    H170865   5.275  -0.019  11.645 -0.4225 -1.7710  0.4569
16458TIP3    H270866   5.130   0.008  11.610  0.2768  0.8612 -0.6633
16459TIP3   OH270867   2.004   3.746   5.652  0.0158  0.2545 -0.0846
16459TIP3    H170868   1.948   3.823   5.639  0.5581  0.7312  0.3384
16459TIP3    H270869   2.051   3.736   5.569  1.3311  1.5350  0.4600
16460TIP3   OH270870   0.129   1.741   2.586 -0.5778 -1.0100  0.2619
16460TIP3    H170871   0.116   1.652   2.551  3.4010 -1.4296 -0.6656
16460TIP3    H270872   0.184   1.729   2.663  0.8954  0.6388 -0.4530
16461TIP3   OH270873   0.602   0.428   0.192  0.0219 -0.1955 -0.4741
16461TIP3    H170874   0.549   0.461   0.120 -0.1064 -0.9274 -0.7167
16461TIP3    H270875   0.667   0.371   0.151  0.3995 -0.0625 -0.0796
16462TIP3   OH270876   2.676   4.280   1.424  0.1933  0.1811 -0.9264
16462TIP3    H170877   2.742   4.283   1.355  1.1462 -0.9916 -0.1085
16462TIP3    H270878   2.644   4.190   1.422  0.2005  0.1472  0.1157
16463TIP3   OH270879   4.938   5.222   5.556 -0.0805 -0.1003 -0.0045
16463TIP3    H170880   4.936   5.126   5.552  0.6919 -0.0983 -0.6162
16463TIP3    H270881   4.967   5.249   5.469 -3.3122  0.8325 -0.9290
16464TIP3   OH270882   0.854   6.114   3.085 -0.1787  0.1478 -0.2513
16464TIP3    H170883   0.784   6.155   3.136  1.0090 -1.6944  3.2588
16464TIP3    H270884   0.906   6.187   3.052 -0.4653  1.5443  2.1640
16465TIP3   OH270885   4.212   2.627   1.118  0.3873  0.0590 -0.1306
16465TIP3    H170886   4.217   2.556   1.182  1.8851  1.3652  1.2903
16465TIP3    H270887   4.127   2.667   1.133  0.0928 -0.5920 -0.0257
16466TIP3   OH270888   3.693   3.148  14.123  0.7744  0.1225  0.2363
16466TIP3    H170889   3.706   3.063  14.165  0.2709  1.3095  3.0726
16466TIP3    H270890   3.754   3.206  14.168 -0.5135  1.7072  0.0370
16467TIP3   OH270891   0.373   4.461   6.374  0.3055 -0.6749  0.1263
16467TIP3    H170892   0.328   4.395   6.426 -0.2797 -0.3053  0.0906
16467TIP3    H270893   0.450   4.484   6.426 -0.1993 -0.4154  0.7553
16468TIP3   OH270894   5.452   2.302  12.947 -0.2765  0.1815  0.7331
16468TIP3    H170895   5.482   2.217  12.914  0.7059  0.7265  0.1943
16468TIP3    H270896   5.490   2.366  12.887 -0.8178  1.0170  1.2698
16469TIP3   OH270897   3.763   4.265  10.812 -0.2148  0.0989 -0.0165
16469TIP3    H170898   3.797   4.190  10.861 -3.0406  0.2495  2.4796
16469TIP3    H270899   3.674   4.240  10.789 -0.4904  1.8825 -1.0457
16470TIP3   OH270900   4.986   6.421  11.192  0.2589  0.2203  0.1970
16470TIP3    H170901   4.961   6.464  11.110  1.9813 -1.0253 -1.0438
16470TIP3    H270902   5.080   6.405  11.184  0.5415  0.2772  2.5435
16471TIP3   OH270903   6.759   6.233   3.783 -0.3345 -0.0419 -0.6157
16471TIP3    H170904   6.806   6.273   3.709  0.6106  0.0196 -0.0007
16471TIP3    H270905   6.713   6.158   3.745  0.6275 -0.3703 -1.1589
16472TIP3   OH270906   0.402   3.171  17.001 -0.0791 -0.0487  0.4055
16472TIP3    H170907   0.358   3.172  17.087 -0.2527  2.2797  0.3466
16472TIP3    H270908   0.341   3.216  16.943  0.7662 -0.1189 -0.5485
16473TIP3   OH270909   4.406   2.112  13.735 -0.1581 -0.4877  0.1049
16473TIP3    H170910   4.437   2.023  13.715  2.6012  0.3158  0.3984
16473TIP3    H270911   4.466   2.169  13.688 -1.5898  1.2678  0.3222
16474TIP3   OH270912   4.903   0.011   2.050  0.5285 -0.0321  0.3480
16474TIP3    H170913   4.979   0.069   2.052 -0.4360  1.3051 -0.2405
16474TIP3    H270914   4.835   0.058   2.098 -0.5122 -0.2988 -0.7899
16475TIP3   OH270915   2.794   0.196   0.588 -0.4135  0.0378  0.3101
16475TIP3    H170916   2.863   0.256   0.559 -0.8274 -0.2268 -1.3279
16475TIP3    H270917   2.756   0.162   0.507 -0.0772 -2.6039  1.1514
16476TIP3   OH270918   0.211   6.781  12.518 -0.5351  0.0305 -0.2447
16476TIP3    H170919   0.118   6.791  12.537 -1.0003 -2.1078 -1.0120
16476TIP3    H270920   0.251   6.763  12.603 -0.3934  3.0693  0.4229
16477TIP3   OH270921   6.441   0.137   4.757  0.1449  0.1075  0.0362
16477TIP3    H170922   6.441   0.147   4.662  0.8562  1.6297  0.1624
16477TIP3    H270923   6.528   0.100   4.777 -0.1792 -0.6578  0.0763
16478TIP3   OH270924   2.309   1.872  13.611  0.1456 -0.2045 -0.1925
16478TIP3    H170925   2.250   1.909  13.676 -0.9535  0.8213 -1.7341
16478TIP3    H270926   2.335   1.946  13.556  2.8978 -0.6049  0.3797
16479TIP3   OH270927   0.067   3.427   1.557  0.3723  0.5818  0.7658
16479TIP3    H170928   0.079   3.418   1.462  1.8371  1.0158  0.8856
16479TIP3    H270929   0.059   3.521   1.572 -1.3682  0.4308  0.9363
16480TIP3   OH270930   3.150   6.584  14.597 -0.4285 -0.2970  0.4101
16480TIP3    H170931   3.099   6.625  14.527  1.0795 -0.2746 -0.7266
16480TIP3    H270932   3.174   6.499  14.562 -0.5352 -0.7225  1.3449
16481TIP3   OH270933   3.666   1.399   4.399 -0.3020 -0.1572  0.0208
16481TIP3    H170934   3.657   1.318   4.450 -0.0290  0.0596  0.4232
16481TIP3    H270935   3.705   1.461   4.461  2.6019 -0.6375 -1.1710
16482TIP3   OH270936   3.167   0.424   4.798 -0.0016 -0.7482  0.2389
16482TIP3    H170937   3.106   0.498   4.796  0.7564  0.0436 -4.4111
16482TIP3    H270938   3.111   0.347   4.793 -0.8066 -0.0852 -2.4587
16483TIP3   OH270939   4.635   2.963   3.341  0.6670  0.5863 -0.3240
16483TIP3    H170940   4.730   2.965   3.350  0.7564  1.6495 -1.2299
16483TIP3    H270941   4.612   2.871   3.344  1.9428  0.1598 -1.9502
16484TIP3   OH270942   2.340   1.403  14.646  0.0182 -0.0393 -0.0956
16484TIP3    H170943   2.317   1.422  14.737 -0.6400 -0.0843 -0.2478
16484TIP3    H270944   2.422   1.450  14.632 -0.6907  1.2840  0.0497
16485TIP3   OH270945   6.754   1.988  10.249  0.6592 -0.3837  0.3676
16485TIP3    H170946   6.826   1.925  10.244 -0.5135 -1.7017 -1.1949
16485TIP3    H270947   6.690   1.946  10.308 -0.5926 -1.2665 -1.5011
16486TIP3   OH270948   0.091   6.416   6.640  0.3297  0.2028  0.9473
16486TIP3    H170949   0.097   6.321   6.643  0.5459  0.2043  0.5512
16486TIP3    H270950   0.172   6.444   6.598  0.0177  0.5336  0.5620
16487TIP3   OH270951   4.309   1.077   0.806 -0.0743 -0.5541  0.3489
16487TIP3    H170952   4.316   1.064   0.712  0.3119 -0.0116  0.2976
16487TIP3    H270953   4.255   1.004   0.837 -0.4290 -0.5800 -0.3278
16488TIP3   OH270954   0.070   4.150   3.259  0.2925  0.1439 -0.6388
16488TIP3    H170955   0.070   4.139   3.354 -2.2134 -2.5221 -0.8360
16488TIP3    H270956   0.012   4.225   3.243  0.5798  0.4845 -0.1199
16489TIP3   OH270957   3.288   5.422  12.165 -0.0416 -0.2742 -0.5453
16489TIP3    H170958   3.368   5.435  12.216 -0.1125 -0.9248 -0.2571
16489TIP3    H270959   3.261   5.332  12.185 -0.2143 -0.4528 -1.5233
16490TIP3   OH270960   3.010   1.516  16.812  0.3104  0.6067 -0.1630
16490TIP3    H170961   3.019   1.581  16.882 -0.2988  1.4569 -0.8587
16490TIP3    H270962   2.922   1.481  16.822 -0.2523  1.6496 -1.2570
16491TIP3   OH270963   5.290   1.107  13.753 -0.0850 -0.5977  0.4957
16491TIP3    H170964   5.330   1.084  13.669  1.2985  1.2935  0.5797
16491TIP3    H270965   5.334   1.050  13.817 -1.0082 -1.9046  0.0074
16492TIP3   OH270966   5.753   6.788   0.115  0.4374  0.4597  0.0206
16492TIP3    H170967   5.736   6.830   0.031 -1.0899 -0.3072 -0.0809
16492TIP3    H270968   5.736   6.856   0.180  1.1664  0.9149 -0.2490
16493TIP3   OH270969   6.609   6.175  10.700 -0.5629 -0.4394 -0.1116
16493TIP3    H170970   6.598   6.109  10.768  1.5804  0.0810  0.8312
16493TIP3    H270971   6.582   6.257  10.743  0.8961 -0.0939  0.2012
16494TIP3   OH270972   2.121   0.976  14.564 -0.0254  0.1428  0.2313
16494TIP3    H170973   2.195   1.036  14.556  0.1715 -0.1589 -0.2189
16494TIP3    H270974   2.089   0.989  14.654 -0.2542  1.2242  0.0075
16495TIP3   OH270975   4.638   6.802   4.024  0.1849  0.2282 -0.0908
16495TIP3    H170976   4.607   6.722   4.068  0.6313  0.6851  1.1018
16495TIP3    H270977   4.611   6.873   4.082 -1.1676  1.0685 -1.6768
16496TIP3   OH270978   3.527   2.540   5.055 -0.1139 -0.0607  0.4421
16496TIP3    H170979   3.476   2.596   4.996 -0.3064  0.0228  0.6846
16496TIP3    H270980   3.599   2.507   5.001 -2.3133 -3.0567 -0.9556
16497TIP3   OH270981   2.270   4.593   1.900 -0.1192  0.7253  0.4082
16497TIP3    H170982   2.205   4.639   1.953 -1.8200  0.3729 -1.2806
16497TIP3    H270983   2.241   4.502   1.901 -0.2430  0.7251 -1.1501
16498TIP3   OH270984   3.948   0.683   4.873  0.7505 -0.2282  0.2932
16498TIP3    H170985   3.894   0.657   4.948 -0.9692  0.7424 -0.5558
16498TIP3    H270986   3.992   0.764   4.902  2.5432 -1.4891  1.3032
16499TIP3   OH270987   6.609   2.333  15.145  0.2590 -0.1655 -0.6159
16499TIP3    H170988   6.566   2.360  15.063 -0.7709 -2.9103 -1.0818
16499TIP3    H270989   6.687   2.286  15.116 -0.1341 -1.1961 -0.0353
16500TIP3   OH270990   0.782   3.865   6.252  0.2660  0.4188  0.4918
16500TIP3    H170991   0.788   3.960   6.253  0.6418  0.3921  1.5824
16500TIP3    H270992   0.765   3.840   6.342 -1.2319 -0.4837 -0.0028
16501TIP3   OH270993   6.165   4.423   0.012 -0.5855 -0.1150  0.3034
16501TIP3    H170994   6.123   4.468   0.085 -1.9911  0.1793 -0.6432
16501TIP3    H270995   6.255   4.408   0.041 -0.9071  0.6639  1.7839
16502TIP3   OH270996   5.999   4.793  14.385  0.0097 -0.4464 -0.2917
16502TIP3    H170997   5.906   4.776  14.373 -0.5025 -0.4677  2.8043
16502TIP3    H270998   6.005   4.832  14.472  2.7061  1.5671 -1.2282
16503TIP3   OH270999   1.744   4.572  14.204  0.3298  0.7160  0.1869
16503TIP3    H171000   1.760   4.503  14.140  0.3895 -1.1943  2.1661
16503TIP3    H271001   1.831   4.608  14.224  0.4669  0.3675  0.2104
16504TIP3   OH271002   0.391   6.511  12.798  0.5190  0.2857  0.3118
16504TIP3    H171003   0.324   6.443  12.785 -0.7191  1.4477  0.3228
16504TIP3    H271004   0.456   6.494  12.730 -0.2864 -0.2912 -0.3426
16505TIP3   OH271005   0.261   5.391   1.895  0.6755  0.2316  0.7685
16505TIP3    H171006   0.228   5.372   1.807 -1.2945 -0.9700  1.7070
16505TIP3    H271007   0.296   5.480   1.889  0.1423  0.3499 -1.1142
16506TIP3   OH271008   6.122   6.643  11.200  0.3535  1.0358 -0.7091
16506TIP3    H171009   6.158   6.715  11.148  2.6103  0.7324  0.3350
16506TIP3    H271010   6.183   6.570  11.186 -0.1756  0.2914  0.6741
16507TIP3   OH271011   1.935   4.267  12.598 -0.7989  0.1532 -0.3746
16507TIP3    H171012   1.951   4.240  12.689 -1.3950 -0.1009 -0.3380
16507TIP3    H271013   1.890   4.192  12.559 -0.7830  0.3673 -0.8057
16508TIP3   OH271014   5.134   1.897   2.610 -0.0889 -0.2231 -0.0464
16508TIP3    H171015   5.217   1.871   2.649  1.4751 -0.7364 -3.4373
16508TIP3    H271016   5.147   1.988   2.584  0.0744 -0.7726 -2.0285
16509TIP3   OH271017   3.509   5.474   2.515  0.5920  0.0995 -0.3276
16509TIP3    H171018   3.541   5.512   2.433  0.6913 -1.4373 -1.0342
16509TIP3    H271019   3.569   5.507   2.582  0.9970  0.7318 -0.9901
16510TIP3   OH271020   4.440   4.364  17.225 -0.2976  0.3412 -0.2261
16510TIP3    H171021   4.371   4.411  17.272 -1.5210 -1.9882  0.4983
16510TIP3    H271022   4.426   4.387  17.133 -2.1922 -0.1674 -0.1208
16511TIP3   OH271023   0.310   0.734   1.693  0.3328  0.0417 -0.3258
16511TIP3    H171024   0.259   0.692   1.625  0.2117  1.4805 -1.1553
16511TIP3    H271025   0.396   0.692   1.688  0.2012 -0.1433 -1.0833
16512TIP3   OH271026   3.569   4.674   4.625  0.2166 -0.9946 -1.3119
16512TIP3    H171027   3.589   4.582   4.609 -1.0431 -2.0615  2.3322
16512TIP3    H271028   3.482   4.687   4.586  0.4087 -1.3083 -1.8576
16513TIP3   OH271029   5.649   6.531   0.172  0.0192 -0.2735 -0.4011
16513TIP3    H171030   5.686   6.619   0.159  0.5508 -0.5742 -0.9769
16513TIP3    H271031   5.698   6.495   0.247 -0.7771  0.2235  0.3805
16514TIP3   OH271032   3.972   0.092  15.648 -0.2835  0.4829 -0.5569
16514TIP3    H171033   4.050   0.061  15.694 -0.0070  1.3858 -0.3811
16514TIP3    H271034   3.919   0.014  15.633  1.0226 -0.2894 -1.3808
16515TIP3   OH271035   5.322   5.011   0.071  0.4767  0.3055  0.1790
16515TIP3    H171036   5.288   4.924   0.052  2.1213 -0.5396  0.8671
16515TIP3    H271037   5.354   5.005   0.160 -0.8834  2.1466  0.8494
16516TIP3   OH271038   3.939   0.817  11.619 -0.0476 -0.0799  0.9651
16516TIP3    H171039   3.959   0.908  11.642  0.5882  0.0281  0.0180
16516TIP3    H271040   3.937   0.771  11.703 -0.0016  0.7359  1.4208
16517TIP3   OH271041   2.414   5.302  13.609 -0.3179 -0.2000 -0.2480
16517TIP3    H171042   2.394   5.351  13.529 -0.3122  0.1503 -0.0333
16517TIP3    H271043   2.470   5.360  13.660 -0.4687 -0.3514  0.0949
16518TIP3   OH271044   0.845   4.864   4.334  0.1053  1.0459 -0.7736
16518TIP3    H171045   0.837   4.838   4.242  0.1090  0.1767 -0.5338
16518TIP3    H271046   0.765   4.914   4.351  0.7481  2.4473 -1.6261
16519TIP3   OH271047   5.801   4.009  12.606  0.1998  0.0217 -0.4521
16519TIP3    H171048   5.746   4.087  12.612 -0.1123 -0.2301  0.0115
16519TIP3    H271049   5.797   3.970  12.694 -0.0671 -0.7976 -0.8169
16520TIP3   OH271050   5.272   0.244   1.611  0.7989 -0.5540 -0.4135
16520TIP3    H171051   5.244   0.158   1.641  0.7438 -0.2545  0.4253
16520TIP3    H271052   5.194   0.282   1.571  0.7703 -0.8149 -0.6089
16521TIP3   OH271053   5.273   3.639   3.139 -0.2683 -0.3540  0.8926
16521TIP3    H171054   5.220   3.673   3.211 -0.5597 -1.5620  1.2815
16521TIP3    H271055   5.364   3.658   3.164 -0.3188 -1.4640  1.9839
16522TIP3   OH271056   5.816   4.001   0.526 -0.0402 -0.3554  0.2811
16522TIP3    H171057   5.871   4.079   0.527 -1.3051  0.5808  0.0994
16522TIP3    H271058   5.867   3.935   0.480  0.3877  0.8971 -1.0996
16523TIP3   OH271059   0.147   2.129   1.534 -0.1614 -0.1073 -0.1998
16523TIP3    H171060   0.106   2.105   1.617 -1.9745  0.1659 -0.9875
16523TIP3    H271061   0.203   2.203   1.556  0.2792 -0.7593  0.9790
16524TIP3   OH271062   1.860   0.788  15.439 -0.9520  0.1621  0.4349
16524TIP3    H171063   1.860   0.882  15.419  1.3399  0.0407 -0.3977
16524TIP3    H271064   1.836   0.746  15.356  0.5905 -0.0399  0.0561
16525TIP3   OH271065   2.544   4.065  16.057 -0.2714  0.1198  0.1473
16525TIP3    H171066   2.555   4.040  16.149 -1.1081 -0.1970  0.1715
16525TIP3    H271067   2.633   4.063  16.021  0.0362  0.0160  0.8886
16526TIP3   OH271068   5.392   5.759  16.799 -0.1993 -0.3848 -0.3216
16526TIP3    H171069   5.337   5.714  16.734  1.9843 -0.9667 -1.8764
16526TIP3    H271070   5.340   5.835  16.824 -3.1184 -2.5481  0.8241
16527TIP3   OH271071   2.563   0.058  13.932 -0.1070 -0.2080  0.0520
16527TIP3    H171072   2.620   0.133  13.950 -0.4843  0.3117 -0.7889
16527TIP3    H271073   2.542   0.022  14.018  2.2786 -1.0471  0.3542
16528TIP3   OH271074   1.301   2.118  13.590 -0.5216  0.3841 -0.4211
16528TIP3    H171075   1.346   2.121  13.506 -0.6499 -0.3804 -0.5263
16528TIP3    H271076   1.324   2.200  13.633  2.2219 -0.5984  0.1617
16529TIP3   OH271077   0.863   2.345   4.762 -0.5974 -0.2884  0.0534
16529TIP3    H171078   0.925   2.366   4.692 -1.3658  0.0620 -0.5385
16529TIP3    H271079   0.782   2.323   4.716 -1.3427  0.6971  0.8467
16530TIP3   OH271080   1.074   5.205   5.971 -0.1102  0.0524  0.4167
16530TIP3    H171081   1.028   5.286   5.949 -3.6247 -1.7474  0.4035
16530TIP3    H271082   1.041   5.182   6.058  2.3262 -0.4453  1.2887
16531TIP3   OH271083   3.333   0.775   2.370  0.3184  0.6927 -0.3814
16531TIP3    H171084   3.336   0.693   2.421 -0.6712 -0.3718 -1.9615
16531TIP3    H271085   3.292   0.750   2.287 -0.0936  2.8335 -0.8670
16532TIP3   OH271086   4.975   2.005  12.983 -0.1131 -0.4723 -0.0069
16532TIP3    H171087   5.044   2.039  12.926  1.1355 -0.5216  1.3980
16532TIP3    H271088   5.021   1.978  13.063 -1.3980 -2.9491  0.0014
16533TIP3   OH271089   0.971   3.230  16.328 -0.6155  0.5917  0.4884
16533TIP3    H171090   0.951   3.145  16.289 -0.9370  0.2252  1.4103
16533TIP3    H271091   0.896   3.285  16.305 -0.9508  0.2896  0.8162
16534TIP3   OH271092   0.236   6.807  13.640 -0.1788  0.0870 -0.2315
16534TIP3    H171093   0.177   6.763  13.702  1.6872 -1.1611  0.7517
16534TIP3    H271094   0.305   6.743  13.624 -0.1003  0.7478 -2.9355
16535TIP3   OH271095   5.838   3.086  14.861 -0.4034  0.0584 -0.0720
16535TIP3    H171096   5.826   3.060  14.770 -1.2894  0.5151 -0.0841
16535TIP3    H271097   5.754   3.069  14.903  0.0223 -0.2343  0.6900
16536TIP3   OH271098   6.737   1.959  15.875 -0.0480  0.2185  0.0298
16536TIP3    H171099   6.665   1.941  15.936 -1.0724  0.8798 -0.9563
16536TIP3    H271100   6.808   1.902  15.905 -0.9767 -0.4662  1.0105
16537TIP3   OH271101   4.548   0.823   0.104  0.2143 -0.2441  0.2104
16537TIP3    H171102   4.538   0.819   0.199 -0.7261 -0.4411  0.1141
16537TIP3    H271103   4.578   0.735   0.080  0.7847 -0.0952  0.3489
16538TIP3   OH271104   5.790   0.252   4.300 -0.3263  0.2401 -0.2940
16538TIP3    H171105   5.771   0.209   4.384  1.0302  0.2420  0.0296
16538TIP3    H271106   5.806   0.180   4.239  0.6932  0.2488 -0.0532
16539TIP3   OH271107   6.250   4.348   2.741 -0.1267  0.4639 -0.3689
16539TIP3    H171108   6.164   4.327   2.703 -1.0114  1.2059  1.1186
16539TIP3    H271109   6.258   4.443   2.731  0.1788  0.4973  0.1365
16540TIP3   OH271110   5.112   3.467  15.371  0.3559 -0.4632  0.0868
16540TIP3    H171111   5.198   3.428  15.382  0.5097 -0.1988 -0.1499
16540TIP3    H271112   5.054   3.394  15.350  0.5656 -0.6115  0.0283
16541TIP3   OH271113   4.403   2.285   4.933  0.2788 -0.1539 -0.6224
16541TIP3    H171114   4.352   2.210   4.962 -0.5823  0.7275  0.2360
16541TIP3    H271115   4.353   2.321   4.859  0.4107 -0.1259 -0.6980
16542TIP3   OH271116   6.342   2.776  14.327 -0.7036  0.2039  0.1061
16542TIP3    H171117   6.334   2.699  14.383 -0.3324 -1.3167 -1.8275
16542TIP3    H271118   6.419   2.822  14.360 -0.0528 -1.0533  0.4118
16543TIP3   OH271119   3.844   6.242  16.872  0.0871  0.0188  0.4783
16543TIP3    H171120   3.918   6.296  16.900  0.3605 -0.9950  1.8177
16543TIP3    H271121   3.854   6.160  16.921 -0.6550 -1.0254 -1.0347
16544TIP3   OH271122   5.215   5.917   3.980  0.0990 -0.0858  0.2870
16544TIP3    H171123   5.186   5.832   4.013 -0.2839  0.2512  0.8379
16544TIP3    H271124   5.297   5.899   3.935  1.2621 -0.4121  2.4032
16545TIP3   OH271125   3.198   0.936   1.437 -0.3004 -0.1364 -0.3407
16545TIP3    H171126   3.288   0.949   1.408  0.0644 -1.2665  0.2090
16545TIP3    H271127   3.192   0.842   1.454 -0.3073  0.4117  3.6133
16546TIP3   OH271128   2.130   6.490   1.352 -0.6986 -0.1998  0.6783
16546TIP3    H171129   2.076   6.523   1.281  1.0187  0.9031 -0.1922
16546TIP3    H271130   2.086   6.519   1.432 -1.3636  0.6742  0.0083
16547TIP3   OH271131   1.984   6.355  11.199  0.3131 -0.5653 -0.6364
16547TIP3    H171132   1.973   6.403  11.117  0.3002  0.4359 -0.0737
16547TIP3    H271133   1.894   6.332  11.226 -0.0255  1.9811  0.7155
16548TIP3   OH271134   6.641   1.243   1.219 -0.0326 -0.6877 -0.3112
16548TIP3    H171135   6.628   1.219   1.128  1.6049 -1.3173 -0.4219
16548TIP3    H271136   6.600   1.172   1.269  0.3328 -1.0824 -0.5753
16549TIP3   OH271137   3.529   3.725  13.206  0.5606  0.7081  0.3521
16549TIP3    H171138   3.585   3.700  13.132 -0.5028  2.3491 -1.0863
16549TIP3    H271139   3.446   3.681  13.189 -0.2207  2.3694 -0.3811
16550TIP3   OH271140   0.938   5.642   3.410 -0.7870  0.1574  0.3700
16550TIP3    H171141   0.849   5.673   3.388  0.3899  2.8873 -1.0769
16550TIP3    H271142   0.933   5.620   3.503 -2.9861  0.1873  0.3136
16551TIP3   OH271143   6.798   2.698  11.944 -0.4206  0.5793 -0.1953
16551TIP3    H171144   6.766   2.628  12.002 -1.7990  0.2796 -1.2492
16551TIP3    H271145   6.737   2.770  11.959  0.8199  1.4930  0.6651
16552TIP3   OH271146   1.321   5.667   1.688 -0.4006  0.7564 -0.1338
16552TIP3    H171147   1.411   5.646   1.715 -0.3239  1.0462 -0.1612
16552TIP3    H271148   1.296   5.595   1.630  0.4181  1.4951 -1.4663
16553TIP3   OH271149   0.619   2.017   4.499 -0.1280  0.0550  0.3377
16553TIP3    H171150   0.628   1.937   4.552 -0.1269  0.5663  1.1257
16553TIP3    H271151   0.568   1.989   4.423 -1.9592 -0.2683  1.6051
16554TIP3   OH271152   1.858   1.018  12.360 -0.5791  0.0903 -0.4629
16554TIP3    H171153   1.894   1.019  12.271 -1.2436  0.2104 -0.7377
16554TIP3    H271154   1.774   1.063  12.352 -1.3722 -1.2425 -0.0905
16555TIP3   OH271155   6.601   3.361   6.145 -0.0703  0.0758 -0.0867
16555TIP3    H171156   6.604   3.410   6.227 -0.1019  0.7321 -0.4678
16555TIP3    H271157   6.599   3.269   6.172  1.0556  0.2409  0.6160
16556TIP3   OH271158   6.485   0.975   2.796  0.5307 -0.0965  0.2353
16556TIP3    H171159   6.520   0.922   2.725  0.4526  0.6614 -0.3785
16556TIP3    H271160   6.410   0.926   2.829 -0.1462  0.0851 -0.9717
16557TIP3   OH271161   2.105   2.891   1.186 -0.0874 -0.4371 -0.1183
16557TIP3    H171162   2.022   2.938   1.173  1.4686  1.8939 -2.7956
16557TIP3    H271163   2.157   2.912   1.108  3.4872 -0.8133  1.9407
16558TIP3   OH271164   3.766   1.615   1.445 -0.0055  0.7947  0.3965
16558TIP3    H171165   3.737   1.592   1.357 -2.0753 -0.4617  1.3409
16558TIP3    H271166   3.821   1.693   1.433  0.1209  0.3932 -2.0222
16559TIP3   OH271167   2.887   5.993   3.424 -0.5228  0.4299  0.0510
16559TIP3    H171168   2.797   5.990   3.393 -0.2637  2.1773 -0.9969
16559TIP3    H271169   2.940   6.003   3.345  0.7409 -1.8611  0.5142
16560TIP3   OH271170   5.675   3.120   1.781 -0.3137  0.2553  0.2787
16560TIP3    H171171   5.612   3.061   1.739 -1.5159 -0.8175  3.2566
16560TIP3    H271172   5.758   3.072   1.779 -0.7551 -0.5415  0.6254
16561TIP3   OH271173   2.333   3.446  16.768  0.0296 -0.4790  0.4103
16561TIP3    H171174   2.391   3.521  16.779  2.0142 -1.7874 -0.4650
16561TIP3    H271175   2.268   3.475  16.705 -0.3144  1.0426  1.4184
16562TIP3   OH271176   5.438   6.115  11.401 -0.4692  0.2371 -0.2607
16562TIP3    H171177   5.358   6.068  11.425 -2.0133  1.7029 -2.1468
16562TIP3    H271178   5.439   6.111  11.305  1.1486  1.1731 -0.3096
16563TIP3   OH271179   1.034   6.557  14.510  0.2665 -0.6965 -0.3766
16563TIP3    H171180   1.126   6.534  14.508  0.9729  1.8639 -0.9363
16563TIP3    H271181   1.025   6.627  14.445 -2.6765 -2.7562 -2.4528
16564TIP3   OH271182   4.301   4.959   5.471  0.4581  0.1549  0.0891
16564TIP3    H171183   4.380   4.953   5.418  0.4306  0.2989  0.0297
16564TIP3    H271184   4.283   4.869   5.498 -0.1568 -0.0849 -1.0638
16565TIP3   OH271185   1.923   5.539  14.193 -0.2247  0.0094 -0.0722
16565TIP3    H171186   1.844   5.586  14.167  0.3361  0.2374 -1.4273
16565TIP3    H271187   1.923   5.460  14.138  1.2862  0.7833 -1.2447
16566TIP3   OH271188   1.471   1.058  10.604 -0.2385  0.0331  0.3638
16566TIP3    H171189   1.380   1.072  10.628 -0.6999  0.1173 -1.2999
16566TIP3    H271190   1.497   1.138  10.559 -0.5001 -1.2961 -2.3377
16567TIP3   OH271191   1.640   6.000  14.427 -0.4700 -0.3776  0.1947
16567TIP3    H171192   1.695   6.068  14.464  0.5195 -1.4110  0.7006
16567TIP3    H271193   1.604   6.038  14.348  1.2416  0.2460 -0.3319
16568TIP3   OH271194   2.537   4.941   5.330 -0.0912  0.6897  0.0456
16568TIP3    H171195   2.556   4.961   5.422  0.3697  0.0759  0.0971
16568TIP3    H271196   2.601   4.992   5.281  0.8604 -0.3469  0.1602
16569TIP3   OH271197   0.377   5.131  15.393 -0.5219  0.0570  0.4121
16569TIP3    H171198   0.317   5.181  15.449 -3.0161 -1.9979 -0.2232
16569TIP3    H271199   0.430   5.079  15.454  0.7374  1.9186  0.9847
16570TIP3   OH271200   1.898   6.180  11.519 -0.0641  0.1852  0.0472
16570TIP3    H171201   1.899   6.213  11.609 -2.0992  0.0587  0.1697
16570TIP3    H271202   1.940   6.094  11.525 -2.5682 -1.0543  1.4861
16571TIP3   OH271203   6.023   3.873   0.950 -0.0833 -0.0938  0.3480
16571TIP3    H171204   6.064   3.836   0.872 -1.8350  1.4965 -1.4475
16571TIP3    H271205   6.094   3.917   0.997  0.9458 -0.8451 -0.4572
16572TIP3   OH271206   3.124   0.210  15.416  0.0701 -0.0637  0.4623
16572TIP3    H171207   3.045   0.173  15.377 -0.9451  1.2630  1.2033
16572TIP3    H271208   3.141   0.156  15.493  0.2402 -0.7057 -0.0129
16573TIP3   OH271209   5.247   3.347  14.084 -0.5753  0.5961 -0.6305
16573TIP3    H171210   5.250   3.307  13.997 -0.8372  0.9389 -0.7974
16573TIP3    H271211   5.305   3.292  14.137  0.6172  1.1345 -1.3220
16574TIP3   OH271212   5.301   0.533   1.300 -0.4298 -0.0457 -0.1040
16574TIP3    H171213   5.328   0.444   1.276 -1.6132 -0.7288  0.9075
16574TIP3    H271214   5.272   0.573   1.218 -1.5052 -1.2298 -0.3427
16575TIP3   OH271215   3.090   1.178   1.538 -0.7008 -0.0766  0.2425
16575TIP3    H171216   3.012   1.160   1.590 -0.1944 -0.0485  1.0250
16575TIP3    H271217   3.143   1.098   1.545  0.1895  0.5747  1.2708
16576TIP3   OH271218   6.204   5.428  14.271 -0.2660  0.8304 -0.4108
16576TIP3    H171219   6.131   5.464  14.220 -2.2456 -1.2016  0.8110
16576TIP3    H271220   6.167   5.411  14.358  2.1549  1.2490  0.8024
16577TIP3   OH271221   2.874   2.930  14.081  0.8484  1.0943  0.3613
16577TIP3    H171222   2.800   2.887  14.124  0.6329 -0.7572 -1.6447
16577TIP3    H271223   2.948   2.871  14.096  0.3664 -0.6924 -3.1737
16578TIP3   OH271224   2.660   4.277   2.747  0.2890  0.0827 -0.9966
16578TIP3    H171225   2.596   4.333   2.790  0.8531  1.1280 -1.4871
16578TIP3    H271226   2.744   4.302   2.786  0.4552 -1.1502 -0.4864
16579TIP3   OH271227   1.975   2.744  13.618 -0.1968  0.1653 -0.1452
16579TIP3    H171228   2.034   2.813  13.648 -0.2307 -0.6689  1.9720
16579TIP3    H271229   1.979   2.677  13.686 -2.2393 -0.7098 -0.8092
16580TIP3   OH271230   2.836   3.891   0.426 -0.1598 -0.4361  0.3797
16580TIP3    H171231   2.780   3.960   0.390  0.7133 -0.8036 -1.8189
16580TIP3    H271232   2.783   3.811   0.419 -0.5095 -0.2963  1.2778
16581TIP3   OH271233   2.847   5.922  11.380 -0.4173 -0.5443  0.0188
16581TIP3    H171234   2.904   5.986  11.336 -1.1762  1.6946  2.1119
16581TIP3    H271235   2.900   5.889  11.452 -0.6477 -0.9637 -0.0006
16582TIP3   OH271236   1.107   2.861  13.274  0.3627  0.8539 -0.7026
16582TIP3    H171237   1.029   2.906  13.308  0.9596  1.2699  0.1531
16582TIP3    H271238   1.159   2.931  13.234  0.6038  0.6812 -0.6895
16583TIP3   OH271239   5.777   2.992  13.094 -0.2690 -0.1264 -0.1182
16583TIP3    H171240   5.776   2.958  13.183 -0.1149  1.2548  0.4295
16583TIP3    H271241   5.819   2.923  13.042  0.5670 -0.5183  1.0475
16584TIP3   OH271242   4.004   6.351  15.491  0.1897  0.8311 -0.0292
16584TIP3    H171243   3.977   6.272  15.443 -1.8966  2.0589 -0.9903
16584TIP3    H271244   4.039   6.317  15.574  0.8456 -1.1699 -1.0399
16585TIP3   OH271245   5.554   4.393  11.397  0.0372 -0.0141  0.1347
16585TIP3    H171246   5.577   4.473  11.350  0.4561 -0.1659  0.0789
16585TIP3    H271247   5.458   4.394  11.400 -0.0079 -0.0458 -0.8184
16586TIP3   OH271248   6.054   1.288  14.696  0.1626 -0.1502  0.2951
16586TIP3    H171249   6.001   1.208  14.701 -0.2245  0.1376  0.9158
16586TIP3    H271250   6.015   1.347  14.760 -1.3352  1.6168 -2.1062
16587TIP3   OH271251   4.344   6.770  12.176  0.3570  0.2727  0.3464
16587TIP3    H171252   4.256   6.802  12.155  0.0845  1.3050  2.7246
16587TIP3    H271253   4.370   6.721  12.099 -1.9553  0.6623 -0.7883
16588TIP3   OH271254   3.194   1.602   6.446 -0.5723  0.2690  0.0212
16588TIP3    H171255   3.169   1.633   6.359 -0.0364  0.6613 -0.0020
16588TIP3    H271256   3.187   1.680   6.502 -1.6980 -0.1623  0.5073
16589TIP3   OH271257   1.260   2.342   5.664  0.4734 -0.2151 -0.2909
16589TIP3    H171258   1.199   2.272   5.639 -0.5511  0.8564 -0.9167
16589TIP3    H271259   1.315   2.303   5.732 -1.6934 -0.8988  1.1927
16590TIP3   OH271260   5.837   6.773   2.087  0.6165  0.1889  0.1122
16590TIP3    H171261   5.857   6.685   2.053  0.9664  0.6186 -0.8231
16590TIP3    H271262   5.742   6.782   2.075  0.2239 -0.7828  2.0067
16591TIP3   OH271263   0.405   2.453   5.492  0.0056  0.2704 -0.0163
16591TIP3    H171264   0.456   2.375   5.513  0.0716  0.1532 -0.5899
16591TIP3    H271265   0.320   2.419   5.463 -0.3456  0.4573  0.7605
16592TIP3   OH271266   1.797   0.938   4.483 -0.6442 -0.0982 -0.3692
16592TIP3    H171267   1.717   0.893   4.510  0.2143  0.1904  3.2360
16592TIP3    H271268   1.867   0.884   4.520  0.4619  3.3688  3.2908
16593TIP3   OH271269   0.633   2.660  17.163  0.2977  0.3961 -0.6823
16593TIP3    H171270   0.639   2.732  17.225 -2.1082  0.3389 -0.2954
16593TIP3    H271271   0.716   2.613  17.172  1.3852  2.3380 -0.0115
16594TIP3   OH271272   3.679   0.002   4.584  0.1450  0.1900  0.1418
16594TIP3    H171273   3.741   0.051   4.638  0.4306 -1.2883  1.2149
16594TIP3    H271274   3.734  -0.048   4.524 -0.0091 -0.6589  0.6887
16595TIP3   OH271275   4.013   6.785  13.684 -0.4289  0.1171  0.3089
16595TIP3    H171276   4.036   6.693  13.698  0.5917  0.3501  0.2756
16595TIP3    H271277   3.962   6.809  13.762  0.1787 -0.2064  0.8165
16596TIP3   OH271278   3.031   0.292  17.244 -0.2059  0.0000 -0.3715
16596TIP3    H171279   3.079   0.210  17.230  1.9400  0.6450  2.4297
16596TIP3    H271280   3.030   0.333  17.157 -0.6945 -2.5690 -1.6998
16597TIP3   OH271281   6.797   4.596   2.427  0.0980 -0.2396  0.8924
16597TIP3    H171282   6.724   4.534   2.425  1.1219 -1.4623 -0.7929
16597TIP3    H271283   6.865   4.551   2.478  1.6245 -1.5676 -2.0475
16598TIP3   OH271284   3.934   0.651  13.965  0.2546 -0.0800  0.1454
16598TIP3    H171285   3.933   0.703  13.885  0.0803  1.3031  1.0045
16598TIP3    H271286   4.014   0.599  13.960 -1.0542 -2.0655 -2.1442
16599TIP3   OH271287   0.128   1.844  13.125 -0.2868 -0.3205  0.1865
16599TIP3    H171288   0.099   1.761  13.161 -0.0447  0.0251  1.2185
16599TIP3    H271289   0.054   1.903  13.137 -1.3634 -0.9084 -2.6666
16600TIP3   OH271290   3.851   5.392  10.435 -0.5990  0.0007  0.2328
16600TIP3    H171291   3.849   5.349  10.349 -1.1734 -0.9922  0.7193
16600TIP3    H271292   3.942   5.384  10.464 -0.3207  0.6605 -0.4236
16601TIP3   OH271293   1.568   4.731   5.474 -0.3013  0.3889 -0.0753
16601TIP3    H171294   1.477   4.700   5.468 -0.3310  0.2056  1.1899
16601TIP3    H271295   1.616   4.675   5.412 -0.7021 -0.8883  0.7364
16602TIP3   OH271296   2.923   3.098  13.880  0.0646 -0.4573 -0.4226
16602TIP3    H171297   2.901   3.050  13.960 -3.3525 -0.0629 -0.9567
16602TIP3    H271298   2.946   3.030  13.817 -0.9189 -1.1131 -0.1030
16603TIP3   OH271299   3.392   3.473   0.754 -0.1877  0.0735 -0.0078
16603TIP3    H171300   3.484   3.500   0.751  0.4628 -1.6539  1.9290
16603TIP3    H271301   3.347   3.548   0.792  0.3020  1.1156 -1.4012
16604TIP3   OH271302   2.170   3.020   2.223 -0.2140  0.0820  0.5763
16604TIP3    H171303   2.220   2.959   2.169 -0.3609 -0.1767  0.7249
16604TIP3    H271304   2.093   2.969   2.251  0.2281 -0.0299  1.6258
16605TIP3   OH271305   5.426   0.092   2.788  0.2476 -0.6087 -0.2984
16605TIP3    H171306   5.335   0.104   2.762  0.6198 -1.1389 -1.9448
16605TIP3    H271307   5.467   0.050   2.713  2.1439  0.7507 -0.0878
16606TIP3   OH271308   6.584   6.057   0.487  0.5187  0.5036 -0.2069
16606TIP3    H171309   6.606   6.050   0.395  1.3539  0.7981 -0.0358
16606TIP3    H271310   6.569   5.966   0.515 -0.6143  0.4792 -0.8246
16607TIP3   OH271311   5.295   5.173  15.546  0.8971  0.3699  0.0306
16607TIP3    H171312   5.266   5.228  15.473 -0.6246  0.1453  0.4243
16607TIP3    H271313   5.269   5.222  15.624  0.2042 -0.5509  0.3899
16608TIP3   OH271314   0.931   6.265  17.029  0.2707 -0.2386 -0.0721
16608TIP3    H171315   0.899   6.245  17.116 -2.5286  0.3623 -0.8828
16608TIP3    H271316   0.921   6.183  16.980  1.4183 -0.4511  0.0080
16609TIP3   OH271317   3.053   1.530  14.154  0.0240  1.0001  0.0631
16609TIP3    H171318   3.090   1.586  14.222 -0.6038 -0.6351  1.8396
16609TIP3    H271319   3.128   1.484  14.116  0.2872  1.2942  0.2292
16610TIP3   OH271320   1.673   3.070  13.393 -0.6771 -0.2436 -0.3866
16610TIP3    H171321   1.713   2.991  13.357  1.3090  0.9530 -0.9550
16610TIP3    H271322   1.733   3.099  13.461 -2.4401 -0.3247  1.2949
16611TIP3   OH271323   3.374   1.416   5.811 -0.3441  0.0252  0.4383
16611TIP3    H171324   3.319   1.364   5.869 -0.5895  0.0815  0.2593
16611TIP3    H271325   3.426   1.470   5.869  0.0406 -0.5423  0.6343
16612TIP3   OH271326   2.271   3.022  13.538 -0.5977  0.3675 -0.8396
16612TIP3    H171327   2.295   3.043  13.448 -1.7182 -0.0097 -1.2391
16612TIP3    H271328   2.297   3.099  13.589  3.5834 -0.8331 -0.8006
16613TIP3   OH271329   5.875   2.307   4.702 -0.1718  0.1819 -0.1122
16613TIP3    H171330   5.967   2.305   4.676  0.2808  1.2700  1.2917
16613TIP3    H271331   5.874   2.263   4.787 -0.2796  3.2465  1.6080
16614TIP3   OH271332   2.431   1.981  13.174 -0.2021 -0.1421 -0.5659
16614TIP3    H171333   2.358   1.941  13.127 -0.0560 -1.1727  0.0532
16614TIP3    H271334   2.474   1.908  13.219  0.3179  0.6582  0.2769
16615TIP3   OH271335   6.639   3.895   3.143  0.1580  0.2443 -0.1698
16615TIP3    H171336   6.706   3.840   3.105  0.4742  1.1774 -0.9889
16615TIP3    H271337   6.652   3.981   3.103 -0.3628  0.9082  1.0250
16616TIP3   OH271338   2.127   1.765  14.125  0.4217  0.3104  0.0010
16616TIP3    H171339   2.119   1.847  14.175 -1.5968 -0.1896  0.6082
16616TIP3    H271340   2.200   1.719  14.166  3.3347  2.8066 -1.9550
16617TIP3   OH271341   1.734   4.490   4.456  0.7668 -0.0017 -0.1189
16617TIP3    H171342   1.792   4.462   4.386 -0.9261 -0.6873 -1.3309
16617TIP3    H271343   1.667   4.422   4.460  1.4695 -0.6499  3.0814
16618TIP3   OH271344   2.249   1.851   0.894  0.5764  0.1327  0.1350
16618TIP3    H171345   2.247   1.943   0.868 -1.1983  0.5536  1.5844
16618TIP3    H271346   2.176   1.811   0.846 -0.7177  0.2401  1.9049
16619TIP3   OH271347   3.818   1.583  11.387  0.4387  0.0282 -0.2104
16619TIP3    H171348   3.835   1.607  11.296  1.9103 -2.2323 -0.6063
16619TIP3    H271349   3.880   1.636  11.438 -0.3337  1.2393 -0.5076
16620TIP3   OH271350   3.128   4.471   0.805  0.1976  0.3211  0.1283
16620TIP3    H171351   3.213   4.515   0.796  0.6593 -0.5376  0.1006
16620TIP3    H271352   3.071   4.516   0.743  1.5804 -1.3092 -2.5277
16621TIP3   OH271353   5.416   4.348  14.635  0.3224 -0.2484  0.0538
16621TIP3    H171354   5.466   4.354  14.717 -0.4848  1.0189  0.4840
16621TIP3    H271355   5.435   4.431  14.590 -3.5307  1.7332  1.5628
16622TIP3   OH271356   0.708   5.992   0.569  0.3786  0.4881  0.0844
16622TIP3    H171357   0.622   5.951   0.579  0.7466 -0.0574  1.2189
16622TIP3    H271358   0.690   6.086   0.570 -0.3780  0.4004 -1.5800
16623TIP3   OH271359   0.284   2.843   5.765 -0.4348 -0.1095  0.0830
16623TIP3    H171360   0.238   2.924   5.745  0.4528 -0.2020 -2.7768
16623TIP3    H271361   0.342   2.866   5.838 -1.2254  1.3919  0.2825
16624TIP3   OH271362   3.531   1.650   0.472  0.9392 -0.0238 -0.1943
16624TIP3    H171363   3.544   1.558   0.447 -0.8070 -0.5857  0.8348
16624TIP3    H271364   3.509   1.694   0.389 -0.4694 -1.0153 -0.3929
16625TIP3   OH271365   4.400   0.407  16.980 -0.1774  0.2563 -0.2958
16625TIP3    H171366   4.476   0.426  17.035 -0.1899 -0.2889 -0.0723
16625TIP3    H271367   4.429   0.335  16.923 -0.1569  0.8398 -1.0299
16626TIP3   OH271368   4.128   3.092   4.359 -0.8098  0.2772  0.2426
16626TIP3    H171369   4.149   3.017   4.414 -0.4689  0.3223  0.1735
16626TIP3    H271370   4.086   3.054   4.281  1.7516 -0.1094 -1.0595
16627TIP3   OH271371   5.434   2.234   1.889 -0.0505 -0.0626 -0.2629
16627TIP3    H171372   5.384   2.203   1.964  0.0053 -0.5552 -0.4276
16627TIP3    H271373   5.483   2.158   1.859 -0.2526  0.0661 -0.9410
16628TIP3   OH271374   5.113   4.815  14.392  0.3860 -0.4593 -0.7586
16628TIP3    H171375   5.204   4.834  14.415  1.2585 -3.8563 -0.9597
16628TIP3    H271376   5.110   4.821  14.297  0.2009  0.3060 -0.7113
16629TIP3   OH271377   5.895   0.501   2.527  0.1667  0.3752  0.3631
16629TIP3    H171378   5.859   0.498   2.616  1.3620 -3.5148  0.8880
16629TIP3    H271379   5.821   0.526   2.472 -1.3923 -0.0588  2.1531
16630TIP3   OH271380   3.609   2.608  15.100 -0.0360  0.1407  0.3160
16630TIP3    H171381   3.588   2.608  15.007 -1.8181  3.8934  0.5433
16630TIP3    H271382   3.631   2.699  15.120 -0.4447 -0.3634  3.7124
16631TIP3   OH271383   1.264   3.574   3.934  0.4283 -0.2658 -0.3939
16631TIP3    H171384   1.271   3.546   3.843  0.2171  0.4500 -0.6409
16631TIP3    H271385   1.237   3.496   3.981 -0.4208 -0.4158 -1.1018
16632TIP3   OH271386   2.525   2.911  16.150 -0.7231  0.7157  0.4417
16632TIP3    H171387   2.471   2.833  16.140  1.9636 -1.2389 -0.1086
16632TIP3    H271388   2.604   2.879  16.194  1.0331  2.8090 -0.9803
16633TIP3   OH271389   2.957   1.550   0.003 -0.3210  0.5319 -0.7425
16633TIP3    H171390   2.927   1.501   0.079  0.3628  2.3392  0.7827
16633TIP3    H271391   2.897   1.625  -0.002 -0.4526  0.3696 -2.1194
16634TIP3   OH271392   1.375   5.602  15.228  0.3042  0.3780  0.1062
16634TIP3    H171393   1.343   5.645  15.308  1.7893  1.5840  0.1086
16634TIP3    H271394   1.385   5.510  15.253  0.9941  0.7746  1.4162
16635TIP3   OH271395   3.624   2.195   4.033  0.1889  0.8085  0.1101
16635TIP3    H171396   3.555   2.261   4.030 -0.2075  0.3881 -0.1451
16635TIP3    H271397   3.590   2.122   3.981  0.3942  0.1879  0.8178
16636TIP3   OH271398   1.740   3.762   4.149  0.1631  0.0693  0.2128
16636TIP3    H171399   1.734   3.796   4.239  1.3537  0.5010  0.1514
16636TIP3    H271400   1.655   3.722   4.133 -0.7625  1.7080  0.8269
16637TIP3   OH271401   0.762   1.585  10.425  0.7852 -0.2157 -0.1821
16637TIP3    H171402   0.749   1.635  10.345  0.3595 -0.5704 -0.3378
16637TIP3    H271403   0.683   1.602  10.477  1.6165  1.0497  0.7366
16638TIP3   OH271404   2.618   4.751   4.687 -0.4657  0.2418  0.1296
16638TIP3    H171405   2.636   4.817   4.753  0.9294 -0.5260  0.5551
16638TIP3    H271406   2.575   4.799   4.616 -1.7074  1.1273  1.4418
16639TIP3   OH271407   0.348   0.940  10.425 -0.2497  0.2419 -0.5412
16639TIP3    H171408   0.332   0.868  10.364 -0.5978  0.3809 -0.6174
16639TIP3    H271409   0.437   0.969  10.406  0.4128 -1.0860  0.4453
16640TIP3   OH271410   1.259   5.888   1.538 -0.2697  0.0146 -0.0796
16640TIP3    H171411   1.274   5.806   1.586  0.1412 -0.3520 -0.8206
16640TIP3    H271412   1.307   5.954   1.589  0.0840 -0.3508  0.0678
16641TIP3   OH271413   5.845   0.727   4.966  0.0109 -0.4343  0.7050
16641TIP3    H171414   5.886   0.687   5.043  0.3895 -0.5526  0.4476
16641TIP3    H271415   5.830   0.654   4.906 -2.2318 -0.6928  1.4802
16642TIP3   OH271416   0.627   5.629  11.697 -0.5252  0.5833  0.2271
16642TIP3    H171417   0.668   5.638  11.783  2.7480 -4.9650 -0.2638
16642TIP3    H271418   0.697   5.651  11.635 -1.5130  0.4741 -0.9598
16643TIP3   OH271419   1.558   0.582  16.978  0.1927 -0.2751  0.1071
16643TIP3    H171420   1.574   0.586  17.073  0.5845  1.1710  0.0046
16643TIP3    H271421   1.465   0.601  16.968 -0.7732 -4.0006  0.3832
16644TIP3   OH271422   5.505   1.358  16.999  0.3831 -0.2353  0.0296
16644TIP3    H171423   5.507   1.294  16.927 -0.2641 -0.4710  0.2139
16644TIP3    H271424   5.415   1.353  17.032  0.6213  0.0304  0.7167
16645TIP3   OH271425   3.916   2.564  15.612  0.3764  0.4479 -0.7336
16645TIP3    H171426   3.863   2.486  15.600  0.7733  0.4952 -3.2138
16645TIP3    H271427   4.006   2.535  15.602  0.7565  0.7531  1.3008
16646TIP3   OH271428   6.219   3.236  12.129  0.0462 -0.6553  0.2324
16646TIP3    H171429   6.201   3.303  12.195  2.2280 -1.2533  1.5320
16646TIP3    H271430   6.138   3.184  12.126 -0.3013 -0.3088  2.0819
16647TIP3   OH271431   6.460   5.684  14.045  0.0087 -0.1833 -0.0670
16647TIP3    H171432   6.489   5.772  14.068 -1.3220 -0.4091  2.8983
16647TIP3    H271433   6.462   5.635  14.128  2.9432 -3.7374 -1.8973
16648TIP3   OH271434   2.879   0.758  13.008 -0.6785  0.5352 -0.0235
16648TIP3    H171435   2.840   0.711  12.935  1.7934 -1.3001 -0.3099
16648TIP3    H271436   2.847   0.713  13.086 -0.3703  0.0323 -0.1828
16649TIP3   OH271437   5.770   6.142   5.856  0.6673  0.3306  0.5086
16649TIP3    H171438   5.801   6.122   5.944 -0.2403  2.2012  1.3075
16649TIP3    H271439   5.815   6.223   5.833 -0.2815  0.6965 -0.1058
16650TIP3   OH271440   2.585   1.397  12.714  0.0080  0.0970 -0.1288
16650TIP3    H171441   2.590   1.491  12.732  1.6567 -0.3432  2.1894
16650TIP3    H271442   2.514   1.365  12.770  0.8038 -0.3074  0.6816
16651TIP3   OH271443   4.072   3.618  11.236 -0.7333  0.4147 -0.0214
16651TIP3    H171444   4.123   3.697  11.218  0.5008 -0.3469  0.0514
16651TIP3    H271445   4.114   3.549  11.185 -0.7207 -0.5671  1.2614
16652TIP3   OH271446   0.586   2.841  16.772 -0.1955  0.6988 -0.2283
16652TIP3    H171447   0.619   2.931  16.774  0.5965  0.4250 -0.4999
16652TIP3    H271448   0.561   2.823  16.863  1.7269  0.4562  0.3010
16653TIP3   OH271449   0.313   4.631  11.635  0.1890 -0.0604  0.3802
16653TIP3    H171450   0.382   4.633  11.701 -0.1021  0.6378  0.6741
16653TIP3    H271451   0.233   4.655  11.683 -0.2169 -0.6279 -0.0038
16654TIP3   OH271452   3.941   3.883  14.701  0.0351  0.0588  0.1868
16654TIP3    H171453   3.954   3.917  14.789  2.4123 -1.0171  0.3405
16654TIP3    H271454   3.892   3.801  14.714 -0.3145  0.3064  0.4273
16655TIP3   OH271455   2.188   3.865   5.889 -0.0361  0.1354  0.3174
16655TIP3    H171456   2.146   3.915   5.820 -1.6246 -0.9530  0.4323
16655TIP3    H271457   2.270   3.834   5.850 -0.0689  0.9957 -0.4633
16656TIP3   OH271458   6.321   3.878  15.929  0.1514 -0.6928 -0.0656
16656TIP3    H171459   6.373   3.803  15.958 -0.7602 -0.9001  1.0664
16656TIP3    H271460   6.321   3.938  16.003  1.9806  1.0851 -1.4087
16657TIP3   OH271461   1.769   2.411  11.959  0.0788  0.1124  0.2716
16657TIP3    H171462   1.862   2.386  11.964  0.5027  1.1788 -1.3402
16657TIP3    H271463   1.746   2.437  12.047  1.2521 -0.3997  0.7554
16658TIP3   OH271464   2.626   6.259  14.169  0.0639 -0.1730  0.1801
16658TIP3    H171465   2.718   6.273  14.189  0.1015 -0.0167 -0.0969
16658TIP3    H271466   2.582   6.264  14.254  0.2642  0.1170  0.2686
16659TIP3   OH271467   3.177   6.413  12.419 -0.3721  0.2663 -0.5564
16659TIP3    H171468   3.090   6.420  12.460 -0.1352  3.6629 -0.3863
16659TIP3    H271469   3.231   6.475  12.467  2.1511 -1.4874 -0.9182
16660TIP3   OH271470   0.270   3.493  14.174  1.3669 -0.3193  0.1926
16660TIP3    H171471   0.311   3.407  14.180  1.8876 -0.0277  1.0497
16660TIP3    H271472   0.341   3.551  14.147  1.3206  0.0502  0.8580
16661TIP3   OH271473   1.057   0.653  11.539  0.3367 -0.4861  0.4023
16661TIP3    H171474   1.078   0.562  11.518  1.8918 -0.4410  1.5868
16661TIP3    H271475   1.137   0.701  11.519 -1.3289  1.1734 -2.9772
16662TIP3   OH271476   0.130   5.657   4.647 -0.2122 -1.0351  0.1597
16662TIP3    H171477   0.218   5.627   4.672 -1.0994 -2.5941  1.6214
16662TIP3    H271478   0.086   5.674   4.731 -0.4726  2.5285 -0.5343
16663TIP3   OH271479   6.747   3.721   5.742 -0.1590 -0.1877  0.0022
16663TIP3    H171480   6.660   3.746   5.709  0.5861  0.0663 -1.9097
16663TIP3    H271481   6.755   3.766   5.826 -1.5357  0.4755 -0.1954
16664TIP3   OH271482   1.630   4.696  16.179  0.1099 -0.0225  0.0338
16664TIP3    H171483   1.559   4.680  16.241  0.7221 -0.1492  0.7133
16664TIP3    H271484   1.656   4.787  16.196  1.1791 -0.4753  0.9176
16665TIP3   OH271485   6.721   3.762   2.185 -0.4833  0.2795 -0.1633
16665TIP3    H171486   6.741   3.784   2.094 -1.6766 -1.1965 -0.8183
16665TIP3    H271487   6.734   3.667   2.191  1.3801  0.5670  1.7266
16666TIP3   OH271488   5.207   6.579  10.986 -0.2495  0.5501 -0.1544
16666TIP3    H171489   5.132   6.529  10.952  0.7739 -0.6828 -0.7240
16666TIP3    H271490   5.260   6.596  10.908  0.9987 -0.2990  0.4726
16667TIP3   OH271491   1.522   1.264  15.724  0.2235 -0.0634  0.2867
16667TIP3    H171492   1.480   1.179  15.742 -1.5472  1.0718  1.8603
16667TIP3    H271493   1.508   1.278  15.630  0.9154 -1.6847 -0.0891
16668TIP3   OH271494   3.594   6.678   0.270  0.0667 -0.0225  0.6703
16668TIP3    H171495   3.531   6.638   0.210 -0.3401  0.1631  0.9659
16668TIP3    H271496   3.603   6.768   0.239 -2.4310  1.0140  2.5877
16669TIP3   OH271497   2.503   4.371   1.713 -0.5541  0.1432  0.4151
16669TIP3    H171498   2.577   4.417   1.674 -0.3606 -0.6068 -0.1114
16669TIP3    H271499   2.535   4.339   1.797 -1.3854  3.0009  1.9591
16670TIP3   OH271500   5.188   0.683   1.738 -0.4634 -0.1864  0.1560
16670TIP3    H171501   5.099   0.717   1.752 -0.5595 -0.1988 -0.3868
16670TIP3    H271502   5.243   0.732   1.799 -1.0120 -0.9835  1.3282
16671TIP3   OH271503   5.765   4.814   0.271 -0.0372 -0.3101 -0.0360
16671TIP3    H171504   5.752   4.776   0.185 -1.7682 -0.0120  0.0642
16671TIP3    H271505   5.681   4.805   0.315  0.6550  0.0286  1.4372
16672TIP3   OH271506   2.971   0.228  14.155 -0.1305  0.4203  0.1147
16672TIP3    H171507   2.913   0.252  14.227 -1.3477  1.1907 -1.0749
16672TIP3    H271508   3.058   0.253  14.185 -0.6197  0.7721  1.2950
16673TIP3   OH271509   4.582   4.073   5.056  0.5772  0.0421  0.4216
16673TIP3    H171510   4.649   4.006   5.048 -0.3922 -0.8521 -0.3960
16673TIP3    H271511   4.509   4.029   5.101  0.5718  1.0418  1.4527
16674TIP3   OH271512   3.133   4.611  14.247  1.0045  0.5843  0.0098
16674TIP3    H171513   3.092   4.527  14.224  1.7455 -0.1469  1.2441
16674TIP3    H271514   3.166   4.597  14.335  2.6071  1.6416 -0.3966
16675TIP3   OH271515   1.569   3.369   4.928 -0.0451 -0.1924 -0.0021
16675TIP3    H171516   1.599   3.282   4.955 -0.2668 -0.5184 -0.7769
16675TIP3    H271517   1.586   3.372   4.834 -1.2345  0.1079 -0.2261
16676TIP3   OH271518   1.671   5.364   1.559 -0.8082 -0.3690 -0.2748
16676TIP3    H171519   1.589   5.358   1.510 -1.0461  1.4959 -0.1854
16676TIP3    H271520   1.644   5.389   1.648 -0.2160 -1.0822  0.1168
16677TIP3   OH271521   5.701   3.082  12.319  0.1842 -0.4568  0.3866
16677TIP3    H171522   5.607   3.068  12.322 -0.0240  0.4638 -1.2249
16677TIP3    H271523   5.736   3.000  12.283 -0.2896  0.1150 -1.5060
16678TIP3   OH271524   0.594   4.656   2.169 -1.5350  0.3540  0.4546
16678TIP3    H171525   0.634   4.691   2.089 -3.6929 -0.4003 -1.0741
16678TIP3    H271526   0.594   4.729   2.231  0.0732  1.0044 -0.2673
16679TIP3   OH271527   1.959   2.794   0.649  0.4346 -0.1917  0.3762
16679TIP3    H171528   2.052   2.781   0.634  0.0094 -2.2566 -0.7431
16679TIP3    H271529   1.930   2.851   0.578  0.7923  0.3000  0.6206
16680TIP3   OH271530   6.258   1.387  17.269  0.1832  0.1436 -0.5774
16680TIP3    H171531   6.267   1.344  17.354 -0.8559  0.3785 -0.3383
16680TIP3    H271532   6.245   1.316  17.207  1.6949 -0.0804 -0.6661
16681TIP3   OH271533   4.930   3.860   6.064 -0.4977  0.0396 -0.0116
16681TIP3    H171534   4.858   3.797   6.065 -2.4758  2.1297  0.7034
16681TIP3    H271535   4.958   3.867   6.156 -1.3214  1.1922  0.1855
16682TIP3   OH271536   0.369   3.798  16.155  0.1524 -0.2407 -0.1930
16682TIP3    H171537   0.414   3.787  16.239  0.0700  1.1242  0.0417
16682TIP3    H271538   0.422   3.748  16.093 -0.7726 -2.8350  0.9530
16683TIP3   OH271539   0.046   6.621  12.012 -0.0892  0.2847  0.3356
16683TIP3    H171540   0.124   6.589  11.967 -0.2016 -0.1418  0.4393
16683TIP3    H271541  -0.026   6.600  11.952 -0.2031  0.0151  0.5658
16684TIP3   OH271542   2.174   5.254   0.699  0.2184 -0.4189 -0.3697
16684TIP3    H171543   2.153   5.327   0.757 -0.3911  0.6138 -1.8097
16684TIP3    H271544   2.150   5.176   0.748  1.2959  0.2973  1.3960
16685TIP3   OH271545   5.740   1.784  14.875 -0.0643 -0.3071 -0.5016
16685TIP3    H171546   5.681   1.859  14.885 -0.5237 -0.2820 -2.8804
16685TIP3    H271547   5.788   1.780  14.958 -0.2263  2.4255 -0.1922
16686TIP3   OH271548   3.257   3.659  13.167  0.1487  0.5283  0.1530
16686TIP3    H171549   3.166   3.680  13.188  0.2620  0.2160  1.0201
16686TIP3    H271550   3.252   3.605  13.088 -0.4376  0.3233  0.3227
16687TIP3   OH271551   6.796   6.755  16.538  0.2910 -0.0135 -0.3198
16687TIP3    H171552   6.824   6.727  16.625  0.7209 -1.1759 -0.8109
16687TIP3    H271553   6.717   6.807  16.553 -0.7589 -1.8249  0.6345
16688TIP3   OH271554   0.008   3.130   0.800 -0.3723 -0.2255  0.1764
16688TIP3    H171555   0.005   3.159   0.709 -1.2484 -1.4203 -0.2210
16688TIP3    H271556   0.004   3.210   0.852  1.0248  0.5267 -0.8174
16689TIP3   OH271557   0.417   6.350   3.932 -0.2501  0.4646  0.1899
16689TIP3    H171558   0.508   6.324   3.917 -0.2067  1.0018 -0.5798
16689TIP3    H271559   0.421   6.445   3.941 -0.7857  0.5417 -0.3211
16690TIP3   OH271560   1.959   4.005   0.896  0.0113  0.6195 -0.4483
16690TIP3    H171561   1.973   4.099   0.880 -0.1445  0.8018  0.4376
16690TIP3    H271562   1.994   3.990   0.983 -1.8619  0.2983  0.2957
16691TIP3   OH271563   3.368   1.815  10.965 -0.2630 -0.2168  0.2335
16691TIP3    H171564   3.321   1.823  10.882  1.0650  0.9763 -0.4416
16691TIP3    H271565   3.388   1.721  10.972 -0.9219 -0.4170 -0.4799
16692TIP3   OH271566   5.271   2.213  13.369  0.0168  0.0372 -0.0306
16692TIP3    H171567   5.353   2.165  13.377  0.0005 -0.5388 -2.4893
16692TIP3    H271568   5.278   2.260  13.285 -2.7895 -1.4451 -1.2556
16693TIP3   OH271569   3.771   0.420  11.092 -0.4086 -0.9462  0.2967
16693TIP3    H171570   3.775   0.325  11.082  0.7545 -1.0010  1.0724
16693TIP3    H271571   3.849   0.452  11.045 -0.8792 -0.3533 -0.1032
16694TIP3   OH271572   3.831   5.963   6.188 -0.3465  0.0910 -0.9520
16694TIP3    H171573   3.864   6.030   6.248 -0.5227 -2.0930  1.7827
16694TIP3    H271574   3.742   5.992   6.167  0.0808  1.4229 -0.9973
16695TIP3   OH271575   6.814   3.598  12.567 -0.6193 -0.1347  0.1129
16695TIP3    H171576   6.769   3.514  12.555  0.3656 -0.7092  0.4016
16695TIP3    H271577   6.897   3.589  12.521 -0.6651  0.8318 -0.1924
16696TIP3   OH271578   2.247   1.092   6.408 -0.3786  0.2580 -0.2362
16696TIP3    H171579   2.254   1.182   6.438  0.7294  0.2712 -0.4767
16696TIP3    H271580   2.318   1.046   6.452 -1.5960 -0.7643  0.7317
16697TIP3   OH271581   5.311   3.515   1.954  0.0826  1.0055 -0.1623
16697TIP3    H171582   5.305   3.419   1.950 -2.3080  1.1368 -0.7385
16697TIP3    H271583   5.387   3.531   2.010 -0.3025 -1.2450  1.1300
16698TIP3   OH271584   3.503   3.201   3.814  0.2055  0.0967  0.3446
16698TIP3    H171585   3.597   3.184   3.813 -0.0458 -1.5747  1.3864
16698TIP3    H271586   3.462   3.115   3.806 -1.2344  0.7043  0.7318
16699TIP3   OH271587   3.438   6.591   4.941 -0.1920 -0.0512  0.0519
16699TIP3    H171588   3.388   6.669   4.965 -0.7613  0.4292 -2.3648
16699TIP3    H271589   3.439   6.593   4.845  3.7820 -0.4856 -0.0699
16700TIP3   OH271590   2.020   4.094   5.386 -0.4046 -0.1590 -0.3472
16700TIP3    H171591   2.029   4.177   5.340  1.5975  0.8910  1.6770
16700TIP3    H271592   1.929   4.092   5.416 -1.1069  0.1686 -2.3366
16701TIP3   OH271593   3.732   5.819   2.570  0.5411 -0.1608  0.0688
16701TIP3    H171594   3.637   5.832   2.569  0.4387 -0.7639 -1.4420
16701TIP3    H271595   3.766   5.894   2.618 -0.7004  0.0739  0.6124
16702TIP3   OH271596   2.749   4.153   5.671  0.0226  0.1001 -0.1844
16702TIP3    H171597   2.779   4.109   5.591  1.9792 -0.4609  0.8027
16702TIP3    H271598   2.755   4.087   5.739  1.3535  1.3693  1.0081
16703TIP3   OH271599   2.516   2.005  15.131  0.3941  0.2143  0.2341
16703TIP3    H171600   2.483   1.916  15.133 -0.4647  0.5184  0.0667
16703TIP3    H271601   2.577   2.010  15.204  1.3098 -0.8217 -0.4189
16704TIP3   OH271602   4.365   0.511  12.400  0.1395 -0.6469 -0.6568
16704TIP3    H171603   4.388   0.604  12.399  2.1640 -1.0942 -0.2467
16704TIP3    H271604   4.279   0.507  12.359 -0.5226  1.5314  0.3575
16705TIP3   OH271605   4.137   1.311  14.408  0.0407  1.1473  0.6747
16705TIP3    H171606   4.061   1.255  14.428 -0.0334  1.3256  0.8994
16705TIP3    H271607   4.208   1.249  14.390  0.2087  0.9639  1.8729
16706TIP3   OH271608   2.995   0.708   5.516 -0.1317 -0.2742  0.1935
16706TIP3    H171609   2.945   0.788   5.532  0.0033 -0.2901  0.7017
16706TIP3    H271610   3.084   0.738   5.497 -0.2739 -0.2594 -0.4775
16707TIP3   OH271611   2.177   0.248   6.426 -0.2294 -0.1287 -0.1032
16707TIP3    H171612   2.094   0.291   6.443 -0.0040 -0.2949  1.6118
16707TIP3    H271613   2.155   0.156   6.412 -0.4538  0.0716 -1.1761
16708TIP3   OH271614   4.448   3.665   3.375 -0.0061 -0.3557 -0.4855
16708TIP3    H171615   4.425   3.758   3.383 -0.7249 -0.3845 -1.8987
16708TIP3    H271616   4.542   3.662   3.390 -0.0813  0.5087  0.2541
16709TIP3   OH271617   3.244   1.134   2.362  0.0623  0.9140  0.5150
16709TIP3    H171618   3.248   1.199   2.293 -0.0169  1.3371  0.9061
16709TIP3    H271619   3.269   1.181   2.442 -0.3061  0.5503  0.8526
16710TIP3   OH271620   0.721   6.675   1.586 -0.3928  0.1671 -0.5129
16710TIP3    H171621   0.752   6.586   1.567  1.1311  0.2603  1.2719
16710TIP3    H271622   0.710   6.715   1.500 -1.2725 -1.7848 -1.3631
16711TIP3   OH271623   2.585   2.995   0.672  0.4165 -0.2022 -1.0511
16711TIP3    H171624   2.511   3.000   0.733  1.6197 -3.7594  1.0042
16711TIP3    H271625   2.546   2.970   0.588 -0.9875  1.7358 -1.0319
16712TIP3   OH271626   4.854   3.634  15.281  0.3919  0.1669  0.3975
16712TIP3    H171627   4.903   3.571  15.335 -0.8549 -1.3288 -0.1487
16712TIP3    H271628   4.801   3.580  15.224 -0.2587  1.7505 -0.5488
16713TIP3   OH271629   1.096   1.820   6.290  0.2883  0.1653 -0.5054
16713TIP3    H171630   1.028   1.794   6.352  1.2763 -1.4592 -0.0396
16713TIP3    H271631   1.049   1.837   6.209 -0.7608 -0.0733  0.0322
16714TIP3   OH271632   4.337   3.038  11.690 -0.0702 -0.4648 -0.0729
16714TIP3    H171633   4.374   3.111  11.641  0.6540 -1.4918 -1.0942
16714TIP3    H271634   4.242   3.049  11.682  0.0251  0.5553  0.1033
16715TIP3   OH271635   6.662   4.673   5.881 -0.3898 -0.6515  0.5749
16715TIP3    H171636   6.688   4.649   5.793 -0.0094  1.0006  0.2066
16715TIP3    H271637   6.582   4.725   5.869 -0.5033 -0.6579  1.2399
16716TIP3   OH271638   2.561   3.570  11.863 -0.2274 -0.4931 -0.6710
16716TIP3    H171639   2.620   3.590  11.791 -1.2664  0.3936 -1.3111
16716TIP3    H271640   2.487   3.526  11.822 -0.1187 -1.4409  0.0931
16717TIP3   OH271641   6.784   2.244  16.104  0.3917 -0.3496 -0.4779
16717TIP3    H171642   6.762   2.328  16.063  0.1580 -0.4190 -0.4957
16717TIP3    H271643   6.700   2.200  16.114  0.7266 -1.9781 -3.5008
16718TIP3   OH271644   5.046   1.039   6.260  0.1899 -0.3597  0.5853
16718TIP3    H171645   4.995   1.116   6.285  0.7352  0.4754 -0.7111
16718TIP3    H271646   5.136   1.062   6.285  0.2680 -0.8040  0.7038
16719TIP3   OH271647   6.412   5.308  14.664 -0.1506  0.4316  0.2693
16719TIP3    H171648   6.390   5.325  14.756 -0.5631 -0.9047  0.4384
16719TIP3    H271649   6.452   5.221  14.665  2.2813  1.4451 -0.4820
16720TIP3   OH271650   6.244   5.298  15.831 -0.0477  0.1687  0.0056
16720TIP3    H171651   6.261   5.385  15.866 -1.2385 -0.2419  1.7080
16720TIP3    H271652   6.184   5.312  15.758 -1.0481  0.7071  0.9158
16721TIP3   OH271653   3.311   0.285  11.603 -0.2613  0.1540  0.5408
16721TIP3    H171654   3.404   0.298  11.620  0.0714 -0.8804 -0.4077
16721TIP3    H271655   3.295   0.326  11.518 -0.5348 -0.2231  0.4071
16722TIP3   OH271656   6.384   4.000   1.372 -0.1722 -0.6959  0.3690
16722TIP3    H171657   6.396   3.909   1.397  0.8205 -0.5490  0.4646
16722TIP3    H271658   6.382   4.048   1.455  0.4543 -0.5060  0.2760
16723TIP3   OH271659   6.449   0.492  10.695 -0.0391  0.3157  0.2079
16723TIP3    H171660   6.534   0.537  10.690 -0.1750  0.4309 -2.7155
16723TIP3    H271661   6.471   0.399  10.693  0.0805  0.2569  2.3763
16724TIP3   OH271662   2.234   2.994   5.014 -0.8476 -0.2732  0.6074
16724TIP3    H171663   2.201   3.081   4.990 -0.4377 -0.2752 -0.0102
16724TIP3    H271664   2.180   2.933   4.964 -0.4701 -0.3160  0.2428
16725TIP3   OH271665   6.677   2.326  16.615  0.1611 -0.3418  0.1604
16725TIP3    H171666   6.591   2.353  16.584  0.2903 -1.6101 -1.4761
16725TIP3    H271667   6.731   2.325  16.536  1.9516  1.3243  1.2879
16726TIP3   OH271668   4.409   3.188   4.190 -0.3114  0.2547 -0.8264
16726TIP3    H171669   4.339   3.180   4.125  0.6887  2.0710 -2.2442
16726TIP3    H271670   4.486   3.215   4.139  0.8824  0.4010  0.9540
16727TIP3   OH271671   5.297   0.201  11.843  0.7802  0.3827  0.2226
16727TIP3    H171672   5.325   0.123  11.891 -1.7722  0.2394  1.6685
16727TIP3    H271673   5.272   0.168  11.757  1.3218 -0.0863  0.2357
16728TIP3   OH271674   2.213   3.528  13.915 -0.5021  0.3185  0.3386
16728TIP3    H171675   2.292   3.480  13.892 -2.1513 -2.4566 -0.0310
16728TIP3    H271676   2.193   3.501  14.004 -2.1757 -0.8134 -0.3275
16729TIP3   OH271677   2.744   2.882   1.594 -0.1644 -0.2922 -0.0039
16729TIP3    H171678   2.835   2.867   1.618 -0.6717  1.8488  4.0995
16729TIP3    H271679   2.695   2.815   1.641 -0.8717  0.3560  0.2007
16730TIP3   OH271680   0.016   0.307  14.561  0.5615 -0.0307 -0.0785
16730TIP3    H171681   0.106   0.323  14.533  0.9186 -2.2841 -0.3869
16730TIP3    H271682   0.019   0.315  14.656  1.4596 -1.5057  0.0523
16731TIP3   OH271683   2.827   4.438   6.316 -0.0540 -0.1731 -0.9115
16731TIP3    H171684   2.840   4.347   6.342  0.9029  0.8999  3.0469
16731TIP3    H271685   2.912   4.480   6.333 -1.7173  2.3309  2.1157
16732TIP3   OH271686   3.662   0.806  16.615  0.1004  0.6997  0.0095
16732TIP3    H171687   3.735   0.866  16.629 -0.9959  2.0494  0.0606
16732TIP3    H271688   3.639   0.775  16.703  0.8621 -0.0644 -0.0460
16733TIP3   OH271689   3.772   6.560  14.852  0.0788  0.0777  0.7169
16733TIP3    H171690   3.833   6.550  14.925 -0.3371 -2.4557  0.8099
16733TIP3    H271691   3.691   6.591  14.892  0.2648  0.0363  1.1277
16734TIP3   OH271692   2.445   1.416   0.659 -0.2977 -0.0931  0.0134
16734TIP3    H171693   2.386   1.459   0.599  1.3998  1.0332 -0.9098
16734TIP3    H271694   2.490   1.350   0.606 -1.3271 -1.5994  0.9192
16735TIP3   OH271695   2.820   2.489   2.320  0.1231 -0.5128  0.0460
16735TIP3    H171696   2.872   2.409   2.318  0.3067 -0.4050  0.5140
16735TIP3    H271697   2.743   2.466   2.372 -0.6235 -0.8633 -1.1697
16736TIP3   OH271698   1.011   0.625   4.944  0.3011  0.0201 -0.2291
16736TIP3    H171699   0.981   0.654   5.031  1.8395 -0.8099  0.6158
16736TIP3    H271700   0.942   0.567   4.913 -0.5558  0.8022  0.1546
16737TIP3   OH271701   2.645   6.309  16.382  0.5204  0.4616 -0.6637
16737TIP3    H171702   2.575   6.357  16.338  0.6513  0.8416 -0.4631
16737TIP3    H271703   2.600   6.261  16.452 -0.0581 -1.9729 -2.5441
16738TIP3   OH271704   1.282   3.727   4.649 -0.4205  0.1807  0.4559
16738TIP3    H171705   1.255   3.654   4.593  1.0756  0.5253 -0.7785
16738TIP3    H271706   1.286   3.689   4.737 -1.9850 -0.5884  0.2269
16739TIP3   OH271707   4.673   5.581   1.815 -0.0269 -0.3389  0.0728
16739TIP3    H171708   4.678   5.489   1.839 -2.0707 -0.6947 -0.7260
16739TIP3    H271709   4.764   5.606   1.799  0.5465 -2.2628  0.0865
16740TIP3   OH271710   3.800   5.207   1.977 -0.3882 -0.9409 -0.4157
16740TIP3    H171711   3.802   5.165   2.063 -0.1021  0.0050  0.0540
16740TIP3    H271712   3.738   5.279   1.987  0.9819  0.2998 -0.4409
16741TIP3   OH271713   4.995   6.597   2.660  0.1105  0.2983  0.1914
16741TIP3    H171714   4.943   6.576   2.582 -0.9601  0.9466  0.7047
16741TIP3    H271715   5.075   6.638   2.626 -0.4629  0.8074 -0.5573
16742TIP3   OH271716   5.800   4.997   5.304 -1.2813 -0.0569 -0.1257
16742TIP3    H171717   5.731   5.012   5.368 -2.1215 -1.6440 -0.6104
16742TIP3    H271718   5.825   4.905   5.317 -0.2798  0.0783 -0.9537
16743TIP3   OH271719   0.105   0.670  10.809  0.0939 -0.2764  0.0103
16743TIP3    H171720   0.137   0.581  10.791 -0.2191 -0.2015 -1.0170
16743TIP3    H271721   0.132   0.720  10.732 -0.2011  0.3979  0.3428
16744TIP3   OH271722   4.408   6.068  17.207 -0.2368  1.0261 -0.5169
16744TIP3    H171723   4.476   6.011  17.170  1.0542  0.8816  1.8826
16744TIP3    H271724   4.330   6.013  17.211  0.8339 -0.5102  1.2138
16745TIP3   OH271725   4.369   3.196  13.967 -0.7005  0.0741  0.2613
16745TIP3    H171726   4.330   3.277  13.934 -0.5115  0.3120  0.6224
16745TIP3    H271727   4.462   3.203  13.945 -0.5640  0.2596  0.8913
16746TIP3   OH271728   6.589   5.808   4.415  0.1268  0.2644 -0.5728
16746TIP3    H171729   6.629   5.860   4.346  0.7608  0.4731 -0.0546
16746TIP3    H271730   6.507   5.777   4.376 -1.8446  4.0937  0.0673
16747TIP3   OH271731   1.202   4.213  15.219  0.6321 -0.1435 -0.3680
16747TIP3    H171732   1.269   4.281  15.214  1.2218 -0.7002 -0.2211
16747TIP3    H271733   1.119   4.260  15.212  1.0166  0.6359  0.1499
16748TIP3   OH271734   1.688   3.140  13.835  0.3313 -0.4834  0.0756
16748TIP3    H171735   1.719   3.208  13.774  0.6635  1.6015  2.3864
16748TIP3    H271736   1.605   3.110  13.798  1.4428 -0.7745 -2.3781
16749TIP3   OH271737   4.337   1.449  13.260  0.2172  0.2826 -0.0069
16749TIP3    H171738   4.339   1.468  13.166 -0.4941 -0.0624 -0.0922
16749TIP3    H271739   4.295   1.526  13.299  1.0024  0.6697  0.0965
16750TIP3   OH271740   2.520   6.530   3.981  0.0454 -0.0077 -0.1680
16750TIP3    H171741   2.478   6.612   4.005  0.7063  0.4804 -0.6386
16750TIP3    H271742   2.517   6.528   3.886 -0.8037 -0.9933 -0.1436
16751TIP3   OH271743   3.309   5.497   0.826 -0.1872  0.2030  0.8013
16751TIP3    H171744   3.315   5.425   0.764  1.2562  0.8548  0.1235
16751TIP3    H271745   3.318   5.456   0.912  3.6177 -0.2711  0.3623
16752TIP3   OH271746   4.572   4.475  10.342 -0.1083  0.1790 -0.4135
16752TIP3    H171747   4.609   4.558  10.373 -2.9564  0.6572  2.2950
16752TIP3    H271748   4.605   4.409  10.404 -1.3647  0.1525  0.2797
16753TIP3   OH271749   0.034   1.176   3.327  0.2629  0.2556  0.2580
16753TIP3    H171750  -0.011   1.254   3.294  1.4126 -0.1208 -2.5355
16753TIP3    H271751  -0.023   1.103   3.302  0.8449 -0.0037 -0.3331
16754TIP3   OH271752   3.604   0.942   2.409  0.1762 -0.0025 -0.2876
16754TIP3    H171753   3.519   0.901   2.422  0.0209  1.2794  4.7448
16754TIP3    H271754   3.585   1.031   2.381 -0.1468  0.1681  0.4634
16755TIP3   OH271755   3.644   1.733  10.959  0.0155 -0.4779 -0.2762
16755TIP3    H171756   3.705   1.797  10.922  1.1143 -2.1180 -1.4750
16755TIP3    H271757   3.559   1.778  10.959  0.5911  0.7109 -1.8195
16756TIP3   OH271758   0.212   3.589   3.825  0.0006  0.5450  0.6450
16756TIP3    H171759   0.119   3.585   3.846  0.0497  2.1991  1.3835
16756TIP3    H271760   0.220   3.546   3.740 -1.1827 -0.9233  1.2430
16757TIP3   OH271761   4.353   4.700  14.233  0.3395  0.2395 -0.0436
16757TIP3    H171762   4.433   4.662  14.271  0.9710 -0.4509 -1.8941
16757TIP3    H271763   4.282   4.653  14.275  1.0166 -0.7638  0.0354
16758TIP3   OH271764   1.133   1.571  14.713  0.2984 -0.6200  0.6219
16758TIP3    H171765   1.080   1.491  14.719 -0.0112 -0.4899 -0.2175
16758TIP3    H271766   1.221   1.540  14.691  0.7117 -0.8695  2.4456
16759TIP3   OH271767   3.822   5.452  11.051 -0.4406  0.0754 -0.3899
16759TIP3    H171768   3.770   5.515  11.002 -0.9968  0.3226  0.4952
16759TIP3    H271769   3.906   5.448  11.004 -1.4568 -0.8392 -2.2234
16760TIP3   OH271770   3.890   1.113   2.998 -0.6081  0.0223 -0.8908
16760TIP3    H171771   3.826   1.154   2.940  0.6251  2.5318 -0.6078
16760TIP3    H271772   3.973   1.156   2.976  0.3006 -0.5155  1.2365
16761TIP3   OH271773   6.581   4.120  11.335 -0.5526  0.3066 -0.0771
16761TIP3    H171774   6.626   4.043  11.301  0.1342  0.7715 -0.2618
16761TIP3    H271775   6.636   4.194  11.308 -0.5340  0.7716  1.1250
16762TIP3   OH271776   1.714   6.495  14.518  0.1189 -0.2809  0.0306
16762TIP3    H171777   1.749   6.582  14.535 -0.3424 -0.0468 -0.1961
16762TIP3    H271778   1.671   6.469  14.599  0.6817 -0.5079  0.2612
16763TIP3   OH271779   0.223   0.604   2.001  0.5627 -0.1053  0.0575
16763TIP3    H171780   0.204   0.551   1.924  0.2749  2.6750 -1.9310
16763TIP3    H271781   0.153   0.669   2.003  1.5099  0.9298  1.6857
16764TIP3   OH271782   1.338   1.390   5.414  0.4994 -0.1790  0.1937
16764TIP3    H171783   1.320   1.439   5.495 -0.5606  0.3408 -0.3297
16764TIP3    H271784   1.328   1.298   5.438 -0.5425 -0.0005  0.5042
16765TIP3   OH271785   2.373   3.792  12.494 -0.0970  0.1248  0.0757
16765TIP3    H171786   2.390   3.831  12.580 -1.5017  1.5010 -0.2225
16765TIP3    H271787   2.433   3.836  12.434 -0.4216  0.5202  0.0409
16766TIP3   OH271788   2.725   4.869  11.664 -0.3314 -0.0132 -0.3519
16766TIP3    H171789   2.674   4.948  11.685 -1.0280 -1.0092  1.9992
16766TIP3    H271790   2.659   4.802  11.647  0.2410 -0.4633 -0.8151
16767TIP3   OH271791   3.936   5.161   0.194  0.0920  0.0140  0.2983
16767TIP3    H171792   4.031   5.158   0.207  0.1519 -2.0577 -0.3550
16767TIP3    H271793   3.924   5.136   0.102 -1.1442 -0.9764  0.7148
16768TIP3   OH271794   3.281   2.438  14.251  0.2889  0.0267 -0.2694
16768TIP3    H171795   3.317   2.349  14.245 -0.7143 -0.3244 -1.5113
16768TIP3    H271796   3.249   2.456  14.163  1.2120  1.9536 -0.2444
16769TIP3   OH271797   0.962   0.371   5.539 -0.2148 -0.3514  0.3536
16769TIP3    H171798   0.869   0.349   5.547 -0.5687  0.7260 -0.6576
16769TIP3    H271799   0.987   0.399   5.627 -1.0503  0.0889  0.4644
16770TIP3   OH271800   4.895   0.314   4.442  0.0857 -0.1425 -0.2729
16770TIP3    H171801   4.957   0.383   4.419  0.5868 -0.7970 -0.9282
16770TIP3    H271802   4.845   0.299   4.362  0.7149 -1.2815 -0.4723
16771TIP3   OH271803   3.708   5.366  15.085 -0.1034 -0.0142  0.3742
16771TIP3    H171804   3.721   5.374  14.991  0.5458 -2.2132  0.2148
16771TIP3    H271805   3.629   5.313  15.094 -0.0108 -0.0492  1.0733
16772TIP3   OH271806   3.711   4.919  11.380  0.0955  0.4505 -0.0120
16772TIP3    H171807   3.783   4.912  11.443 -0.9277  0.2513  1.1641
16772TIP3    H271808   3.634   4.940  11.433 -0.6562  1.0574 -1.2884
16773TIP3   OH271809   0.085   0.675  11.415  0.2845  0.0892  0.2752
16773TIP3    H171810   0.077   0.733  11.339 -1.5869  0.4065  0.6722
16773TIP3    H271811   0.125   0.595  11.381  1.2993  0.9480 -0.6242
16774TIP3   OH271812   2.624   2.365  13.146 -0.2891 -0.0638  0.7128
16774TIP3    H171813   2.704   2.408  13.175 -0.2540  0.8611 -0.6439
16774TIP3    H271814   2.592   2.419  13.073 -0.6462 -1.9345 -0.6153
16775TIP3   OH271815   5.026   4.653  17.136 -0.1392  0.8992 -0.0030
16775TIP3    H171816   4.975   4.691  17.207 -1.7918  0.4155 -0.8844
16775TIP3    H271817   5.101   4.712  17.126 -0.2629  1.3824  1.6132
16776TIP3   OH271818   0.796   6.491  16.563 -0.4827 -0.3402 -0.2820
16776TIP3    H171819   0.719   6.437  16.574 -1.7291  1.0949 -1.4482
16776TIP3    H271820   0.775   6.573  16.607 -0.7240  1.0058 -2.7117
16777TIP3   OH271821   3.565   6.483  11.895  0.3695 -0.9332  1.0507
16777TIP3    H171822   3.494   6.424  11.872  0.2915 -0.4763  0.0735
16777TIP3    H271823   3.550   6.504  11.987 -3.0769  2.2134  0.0055
16778TIP3   OH271824   4.188   0.268  16.897  0.2625  0.0551 -0.2592
16778TIP3    H171825   4.249   0.292  16.968  0.3009  0.2137 -0.3447
16778TIP3    H271826   4.174   0.350  16.849 -0.1135  0.0461 -0.1676
16779TIP3   OH271827   6.172   6.176  12.414  0.4886  0.1695  0.1915
16779TIP3    H171828   6.187   6.187  12.508 -0.6107  0.7048  0.3162
16779TIP3    H271829   6.113   6.101  12.407  0.2337  0.3913 -0.0448
16780TIP3   OH271830   2.013   2.654   4.014 -0.0157  0.2088 -0.2275
16780TIP3    H171831   2.021   2.630   4.107  2.4555  0.3165 -0.3267
16780TIP3    H271832   2.001   2.749   4.014 -1.4882  0.0472 -0.0258
16781TIP3   OH271833   4.388   0.670   2.150 -0.0686  0.7344 -0.2619
16781TIP3    H171834   4.479   0.651   2.128 -0.6195 -1.6288 -0.7655
16781TIP3    H271835   4.371   0.618   2.229 -0.8044  1.6961  0.2405
16782TIP3   OH271836   6.333   2.636   6.037  0.1150 -0.3089  0.0730
16782TIP3    H171837   6.283   2.554   6.036 -1.4314  0.5918 -0.4274
16782TIP3    H271838   6.424   2.608   6.036 -0.3622 -2.0294  0.3225
16783TIP3   OH271839   6.195   2.695  12.697 -0.4330 -0.4100 -0.2694
16783TIP3    H171840   6.167   2.751  12.625  1.2372 -0.0235 -0.6556
16783TIP3    H271841   6.265   2.641  12.660 -0.0904 -0.7673  0.8487
16784TIP3   OH271842   4.587   0.643  13.694 -0.3493 -0.3029  0.0961
16784TIP3    H171843   4.571   0.551  13.716  0.4301 -0.9373 -1.8389
16784TIP3    H271844   4.647   0.673  13.763 -0.9265 -1.0977  0.9809
16785TIP3   OH271845   0.173   1.833  11.554 -0.4482 -0.1838 -0.3775
16785TIP3    H171846   0.229   1.769  11.510 -0.8948 -0.6724 -0.2451
16785TIP3    H271847   0.092   1.785  11.573 -0.3258  0.0662  0.8248
16786TIP3   OH271848   0.189   1.319   3.817  0.3018  0.0585  0.1249
16786TIP3    H171849   0.129   1.382   3.776  0.8265  0.7654  0.4115
16786TIP3    H271850   0.133   1.246   3.843 -0.2733  0.2718 -0.4849
16787TIP3   OH271851   5.452   2.325  11.014  0.0840 -0.1745  0.2458
16787TIP3    H171852   5.405   2.352  10.935  0.5455  0.2222  0.0974
16787TIP3    H271853   5.475   2.234  10.999 -1.5103 -0.6908  0.7518
16788TIP3   OH271854   2.564   5.171  14.253 -0.0447 -0.5108 -0.4631
16788TIP3    H171855   2.575   5.095  14.311 -0.3025 -0.3012 -0.1383
16788TIP3    H271856   2.631   5.233  14.281 -1.9485  0.7833  1.5375
16789TIP3   OH271857   2.296   2.421  11.892 -0.7058 -0.2953  0.0962
16789TIP3    H171858   2.218   2.396  11.842 -1.9045  1.1424  1.1488
16789TIP3    H271859   2.290   2.371  11.973 -0.4262 -0.3395  0.0907
16790TIP3   OH271860   0.663   1.854   3.242 -0.2578 -0.2999  0.5647
16790TIP3    H171861   0.598   1.802   3.291  0.1538 -1.8746 -0.4828
16790TIP3    H271862   0.611   1.900   3.176 -0.5471  0.0806  1.0519
16791TIP3   OH271863   4.730   0.856   6.429 -0.3301 -0.0562  0.4811
16791TIP3    H171864   4.826   0.847   6.431 -0.1844  0.4804 -1.6736
16791TIP3    H271865   4.714   0.944   6.464  0.0840  0.3895 -0.4263
16792TIP3   OH271866   0.738   1.988  16.759  0.0924 -0.3984  0.1964
16792TIP3    H171867   0.798   2.059  16.783 -0.3128 -0.1758  0.5681
16792TIP3    H271868   0.651   2.028  16.761 -0.2195 -1.0799  1.1842
16793TIP3   OH271869   6.682   3.831  11.248 -0.6013 -0.1201  0.3417
16793TIP3    H171870   6.635   3.806  11.327 -0.5209  0.6719  0.6418
16793TIP3    H271871   6.766   3.865  11.280 -0.2895 -0.4377 -0.1244
16794TIP3   OH271872   1.487   4.314   1.186  0.0332 -0.4143 -0.2215
16794TIP3    H171873   1.509   4.398   1.225 -0.7567 -0.2792 -0.0492
16794TIP3    H271874   1.512   4.249   1.252 -1.4377 -0.1768  0.6034
16795TIP3   OH271875   6.655   1.150  15.983  0.0793 -0.1435  0.2099
16795TIP3    H171876   6.667   1.068  15.935  0.5024 -0.2483  0.4854
16795TIP3    H271877   6.561   1.163  15.986  0.0550  0.1291 -1.0913
16796TIP3   OH271878   3.300   1.703   4.412  0.0902  0.0531  0.1197
16796TIP3    H171879   3.210   1.731   4.397  0.3926  0.5907 -0.7481
16796TIP3    H271880   3.344   1.779   4.450 -0.1832 -0.6921  2.0761
16797TIP3   OH271881   1.853   2.990   1.825 -0.1864 -0.3556 -0.0201
16797TIP3    H171882   1.849   2.940   1.906 -2.4432  1.0925  0.8602
16797TIP3    H271883   1.865   3.081   1.854  1.6134 -0.0854 -1.4620
16798TIP3   OH271884   4.996   0.477  14.683 -0.3365 -0.5476 -0.3796
16798TIP3    H171885   4.982   0.463  14.777  0.4320  3.6465  0.5870
16798TIP3    H271886   5.089   0.497  14.675 -0.8623  1.9243 -1.4387
16799TIP3   OH271887   4.070   3.635  12.460 -0.1284 -0.5782 -0.1469
16799TIP3    H171888   4.113   3.707  12.413  1.1688 -0.2293  1.4413
16799TIP3    H271889   4.027   3.678  12.534 -2.0305 -1.1188 -0.8814
16800TIP3   OH271890   1.649   2.607   6.393  0.5573  0.5345 -0.3226
16800TIP3    H171891   1.743   2.606   6.375  0.7941 -0.8085  0.8671
16800TIP3    H271892   1.629   2.520   6.428 -1.5962 -0.0897 -2.7608
16801TIP3   OH271893   4.895   3.060   5.456  0.2823 -0.2859 -0.3322
16801TIP3    H171894   4.910   2.979   5.406 -2.4892 -0.4495 -1.0672
16801TIP3    H271895   4.849   3.032   5.535  1.1618  0.3937  0.4418
16802TIP3   OH271896   5.564   2.910   0.834 -0.2713  0.2666  0.4095
16802TIP3    H171897   5.534   2.999   0.852 -1.9527 -0.0436 -0.6895
16802TIP3    H271898   5.484   2.859   0.824  0.6453 -1.0399 -0.5570
16803TIP3   OH271899   6.293   4.578   3.711 -0.3542  0.4179  0.3160
16803TIP3    H171900   6.290   4.614   3.800 -2.2216  1.7098 -0.1990
16803TIP3    H271901   6.385   4.582   3.686  0.4313 -1.2040  2.6378
16804TIP3   OH271902   1.876   6.169   3.290 -0.3822 -0.0191 -0.2983
16804TIP3    H171903   1.839   6.238   3.345 -2.1823  0.2041 -1.7276
16804TIP3    H271904   1.936   6.214   3.231 -2.5793  0.6370 -2.1636
16805TIP3   OH271905   3.967   3.623   5.859  0.2499 -0.3607 -0.2845
16805TIP3    H171906   3.892   3.564   5.866  1.0358 -1.4326 -0.6103
16805TIP3    H271907   4.004   3.625   5.947 -1.5413  2.1494  0.5426
16806TIP3   OH271908   0.015   2.775  15.991 -0.1533 -0.0013 -0.1797
16806TIP3    H171909  -0.021   2.727  15.917  0.6897 -2.2909  0.8156
16806TIP3    H271910   0.099   2.807  15.961 -1.3362  2.3124 -1.3383
16807TIP3   OH271911   3.669   1.583  16.090  0.0135 -0.3820 -0.0793
16807TIP3    H171912   3.625   1.638  16.155 -0.0851  0.0115 -0.4763
16807TIP3    H271913   3.693   1.643  16.020 -0.0852 -0.8409 -0.5119
16808TIP3   OH271914   2.714   2.299   5.292 -0.3005 -0.2137 -0.2113
16808TIP3    H171915   2.690   2.337   5.376  0.5546  0.7103 -0.3616
16808TIP3    H271916   2.646   2.328   5.232 -0.3821 -0.0465 -0.0380
16809TIP3   OH271917   2.544   2.435   0.122 -0.1480 -0.0895  0.2944
16809TIP3    H171918   2.543   2.527   0.096 -1.7155  0.7118  2.8660
16809TIP3    H271919   2.637   2.414   0.132  0.2133  1.8975  1.7288
16810TIP3   OH271920   3.230   1.000  11.136  0.1777 -0.1828 -0.1065
16810TIP3    H171921   3.209   1.054  11.060 -0.1264  0.0664  0.1552
16810TIP3    H271922   3.150   0.951  11.154 -0.1936  0.7441  0.8663
16811TIP3   OH271923   4.192   5.895  17.158 -0.1206  0.0827 -0.4542
16811TIP3    H171924   4.205   5.896  17.063 -1.1204  2.6207 -0.6465
16811TIP3    H271925   4.104   5.861  17.170  0.3956 -1.2665 -0.3192
16812TIP3   OH271926   0.852   1.563  14.854 -0.5118  0.1423  0.3043
16812TIP3    H171927   0.805   1.484  14.826 -0.8734  0.6436 -0.5131
16812TIP3    H271928   0.911   1.583  14.782 -0.6243  0.7864  0.3872
16813TIP3   OH271929   1.328   3.064  14.950  0.5815 -0.0708  0.5879
16813TIP3    H171930   1.362   2.990  14.901  3.3287  1.3119  0.1637
16813TIP3    H271931   1.353   3.141  14.898  0.7202  1.2887  2.5310
16814TIP3   OH271932   4.677   2.985  17.074 -0.6524 -0.5714  0.5325
16814TIP3    H171933   4.613   3.049  17.044  2.1090  2.4630  0.6310
16814TIP3    H271934   4.722   2.957  16.994 -1.3760 -1.9484  0.5772
16815TIP3   OH271935   3.722   4.170  16.677  0.7601  0.2408  0.1963
16815TIP3    H171936   3.647   4.116  16.701 -0.5818  1.8062 -0.3331
16815TIP3    H271937   3.726   4.164  16.582  1.9359 -0.5966  0.2756
16816TIP3   OH271938   4.203   4.704   4.965  0.2508 -0.6633 -0.0716
16816TIP3    H171939   4.268   4.660   4.910 -0.1258 -1.6002  0.2233
16816TIP3    H271940   4.119   4.684   4.923  0.0699 -0.2374  0.0806
16817TIP3   OH271941   6.478   0.792   0.585 -0.0197  0.1886 -0.5512
16817TIP3    H171942   6.472   0.882   0.554 -0.4515  0.2064 -0.4333
16817TIP3    H271943   6.568   0.766   0.567  0.8945  1.4929  1.7550
16818TIP3   OH271944   3.018   5.361  11.575 -0.2999 -0.1493 -0.0500
16818TIP3    H171945   2.968   5.279  11.584  1.1122 -0.9054  1.6005
16818TIP3    H271946   3.038   5.367  11.482 -0.0687 -1.9384 -0.1537
16819TIP3   OH271947   3.017   2.828   4.281 -0.3509 -0.4645  0.0209
16819TIP3    H171948   3.098   2.868   4.311 -0.2355  0.1189 -1.0487
16819TIP3    H271949   2.968   2.810   4.362  1.5727 -2.4916  0.8447
16820TIP3   OH271950   1.842   3.278   4.500  0.5822  0.5037  0.0968
16820TIP3    H171951   1.850   3.369   4.472 -1.6201  0.2846 -1.5586
16820TIP3    H271952   1.919   3.234   4.462  1.6693  1.6255  0.9255
16821TIP3   OH271953   0.233   5.509   6.768 -0.8805  0.3429 -0.2845
16821TIP3    H171954   0.265   5.526   6.679 -0.7870 -0.1500 -0.3505
16821TIP3    H271955   0.168   5.440   6.757 -2.3047  1.6115 -0.1975
16822TIP3   OH271956   6.031   1.171   1.976  0.1053 -0.4723 -0.1930
16822TIP3    H171957   6.102   1.167   2.040 -0.0422  0.4548  0.0473
16822TIP3    H271958   5.992   1.084   1.978  0.2320 -0.5163  0.8272
16823TIP3   OH271959   2.330   1.477  15.650  0.9057  0.2082 -0.2321
16823TIP3    H171960   2.289   1.416  15.589 -1.2394  0.0776  1.2429
16823TIP3    H271961   2.424   1.471  15.630  0.7106 -2.9324 -0.7240
16824TIP3   OH271962   3.544   1.700   1.747 -0.0162 -0.7655  0.0272
16824TIP3    H171963   3.535   1.754   1.668  0.0964 -0.4990  0.1958
16824TIP3    H271964   3.635   1.672   1.746  0.4889  0.7330  1.0161
16825TIP3   OH271965   0.641   2.020   1.107 -0.1196  0.1224  0.0996
16825TIP3    H171966   0.643   1.928   1.081 -4.5267 -0.7282  1.8631
16825TIP3    H271967   0.605   2.066   1.031 -1.0993 -0.2479  0.3184
16826TIP3   OH271968   1.294   0.435  12.444  0.8247  0.4891 -0.4964
16826TIP3    H171969   1.232   0.399  12.508  1.6263 -0.3526 -0.1614
16826TIP3    H271970   1.274   0.389  12.362  2.3022 -1.3480  0.0931
16827TIP3   OH271971   5.014   2.046   2.868 -0.0943 -0.4067 -0.1276
16827TIP3    H171972   4.933   2.078   2.827 -1.7827  0.9502  3.7171
16827TIP3    H271973   5.080   2.110   2.845 -0.8938  0.1732 -0.8653
16828TIP3   OH271974   2.530   3.092  14.282 -0.5436 -0.7411 -0.1005
16828TIP3    H171975   2.475   3.061  14.353 -1.0308 -0.2150 -0.2476
16828TIP3    H271976   2.563   3.177  14.311 -0.3475 -0.7493 -0.2922
16829TIP3   OH271977   0.809   1.239   0.878 -0.5106 -0.2649  0.8266
16829TIP3    H171978   0.795   1.165   0.938 -0.6076  1.0113  2.4519
16829TIP3    H271979   0.893   1.276   0.906 -0.7011  0.5385  0.3541
16830TIP3   OH271980   4.725   3.218   1.967 -0.6319 -0.0775 -0.3902
16830TIP3    H171981   4.820   3.212   1.979 -0.7246  0.2437  0.5897
16830TIP3    H271982   4.696   3.127   1.960 -0.3576 -0.2096  0.1893
16831TIP3   OH271983   5.405   0.346  16.105 -0.2301 -0.1294  0.1652
16831TIP3    H171984   5.439   0.288  16.174 -0.2742 -0.2200  0.1099
16831TIP3    H271985   5.330   0.389  16.146 -1.2965 -1.4266 -0.3599
16832TIP3   OH271986   0.185   0.957   4.507  0.1115  0.3315  0.2499
16832TIP3    H171987   0.124   1.012   4.458 -0.9925 -0.0576  1.1597
16832TIP3    H271988   0.177   0.988   4.598 -0.1440 -0.9830  0.6891
16833TIP3   OH271989   2.972   1.791   1.738  0.2853 -0.7801  0.0060
16833TIP3    H171990   2.970   1.697   1.720  0.4137 -0.8585  0.3991
16833TIP3    H271991   2.900   1.805   1.799  0.3079 -0.6355 -0.0007
16834TIP3   OH271992   6.747   2.383  17.130 -0.3746 -0.2844 -0.0535
16834TIP3    H171993   6.771   2.424  17.047 -2.0455 -1.4068 -1.1390
16834TIP3    H271994   6.692   2.448  17.174 -2.6066 -1.0677 -1.5470
16835TIP3   OH271995   3.625   6.251   3.127 -0.1814 -0.5805  0.2718
16835TIP3    H171996   3.564   6.231   3.198 -0.5760 -0.5529 -0.0566
16835TIP3    H271997   3.710   6.221   3.159 -0.3662 -0.6108  0.7356
16836TIP3   OH271998   3.214   6.252   0.839 -0.6537 -0.8266 -0.1422
16836TIP3    H171999   3.286   6.218   0.786  0.4014  0.7359  0.2083
16836TIP3    H272000   3.255   6.282   0.920 -1.5481  0.8307 -0.2552
16837TIP3   OH272001   4.865   6.294   3.167 -0.4395  0.2903 -0.4220
16837TIP3    H172002   4.770   6.311   3.165 -0.3846  0.7774  0.6394
16837TIP3    H272003   4.885   6.279   3.259  0.2208 -1.6857 -0.8408
16838TIP3   OH272004   0.923   5.125   0.071  0.1521  0.0772 -0.3547
16838TIP3    H172005   0.898   5.195   0.131  0.3409  0.6032 -0.8758
16838TIP3    H272006   0.871   5.142  -0.008 -3.2437 -2.9183  0.9674
16839TIP3   OH272007   0.302   2.253  16.358  1.1656 -0.5395 -0.4400
16839TIP3    H172008   0.396   2.243  16.346  1.1662  0.1313 -1.1145
16839TIP3    H272009   0.272   2.168  16.388  2.3416 -0.0870  2.3241
16840TIP3   OH272010   2.647   0.055  16.806  0.3413 -0.3790  0.0397
16840TIP3    H172011   2.717   0.101  16.759 -0.5473 -0.2015 -1.1566
16840TIP3    H272012   2.584   0.124  16.828  0.5150 -0.5384  1.1038
16841TIP3   OH272013   3.931   0.125   3.231 -0.0651  0.1536 -0.5668
16841TIP3    H172014   3.864   0.158   3.291  1.7788  2.7115  0.2902
16841TIP3    H272015   3.993   0.080   3.288 -0.0611 -0.4923 -1.0761
16842TIP3   OH272016   0.100   1.995   3.340 -0.0457 -0.0682 -0.4340
16842TIP3    H172017   0.104   1.900   3.351  0.3738  0.2006  3.3325
16842TIP3    H272018   0.022   2.010   3.286 -0.2619 -2.5278 -0.8991
16843TIP3   OH272019   6.230   6.752  13.655 -0.2233 -0.6315  0.3244
16843TIP3    H172020   6.295   6.732  13.588  0.1593 -0.0605  0.5126
16843TIP3    H272021   6.150   6.711  13.624 -0.2278  0.1867 -0.8386
16844TIP3   OH272022   3.937   2.594   3.718  0.3520  0.3561  0.0188
16844TIP3    H172023   4.014   2.650   3.706  1.4113 -1.1450 -0.5584
16844TIP3    H272024   3.957   2.542   3.796 -0.5520  0.6658  0.4728
16845TIP3   OH272025   4.435   1.802  13.100  0.1456 -0.7318 -0.0261
16845TIP3    H172026   4.513   1.848  13.067 -0.6070  0.4488 -0.2172
16845TIP3    H272027   4.412   1.848  13.181 -0.3333 -1.0923  0.0478
16846TIP3   OH272028   3.677   3.940   4.799  0.0613  0.0590  0.8009
16846TIP3    H172029   3.707   3.950   4.889  1.5569 -2.2483  0.6558
16846TIP3    H272030   3.611   3.871   4.803  0.4379 -0.3531  0.0779
16847TIP3   OH272031   0.970   2.402  11.288 -0.0568 -0.6243 -0.1565
16847TIP3    H172032   0.899   2.465  11.295 -0.0027 -0.5521 -0.2573
16847TIP3    H272033   0.926   2.318  11.275 -0.1678 -0.7679  1.0240
16848TIP3   OH272034   6.696   4.010   4.567  0.3941  0.1497 -0.1057
16848TIP3    H172035   6.720   4.053   4.486  3.2479  1.0193  1.0826
16848TIP3    H272036   6.767   3.948   4.584 -0.2810 -0.2405  1.5718
16849TIP3   OH272037   4.705   5.733   0.929 -0.2297  0.0408  0.2711
16849TIP3    H172038   4.724   5.811   0.877 -0.2146  0.5764  1.0698
16849TIP3    H272039   4.654   5.765   1.003 -1.8003 -0.9777 -0.3344
16850TIP3   OH272040   1.274   5.685  13.331 -0.0467  0.4370 -0.7066
16850TIP3    H172041   1.360   5.727  13.338 -0.9127  2.2801 -0.4413
16850TIP3    H272042   1.255   5.656  13.420 -0.0139  0.6843 -0.6185
16851TIP3   OH272043   1.029   6.517  13.272  0.0434 -0.2332  0.5280
16851TIP3    H172044   1.070   6.591  13.317  1.2572  0.2152 -1.1925
16851TIP3    H272045   1.078   6.509  13.190 -1.7682 -1.2865 -0.5221
16852TIP3   OH272046   4.968   1.110  10.979  0.6174 -0.0778 -0.1756
16852TIP3    H172047   4.916   1.113  10.899  0.6594  0.2682 -0.1916
16852TIP3    H272048   4.948   1.025  11.018  0.1919 -0.0266 -0.2819
16853TIP3   OH272049   0.672   2.992  16.449 -0.6410  0.3148  0.7151
16853TIP3    H172050   0.592   2.940  16.449  0.7827 -2.0263  0.7247
16853TIP3    H272051   0.679   3.026  16.539 -1.1198 -0.2899  0.9854
16854TIP3   OH272052   2.020   0.067   2.616 -0.2254 -0.0695 -0.5086
16854TIP3    H172053   1.989   0.134   2.677 -2.3029 -1.8307  0.5150
16854TIP3    H272054   2.110   0.049   2.643 -0.0159  1.4829 -0.0938
16855TIP3   OH272055   3.092   2.845   2.070 -0.4946  1.0284 -0.4817
16855TIP3    H172056   3.135   2.835   1.985  1.2111  0.6887  0.3674
16855TIP3    H272057   3.025   2.777   2.071  2.1544 -1.7691 -0.0172
16856TIP3   OH272058   2.209   1.854  16.378 -0.6178  0.1230  0.0087
16856TIP3    H172059   2.138   1.825  16.321 -0.4525 -0.5007  0.1105
16856TIP3    H272060   2.176   1.935  16.418  0.2938  2.0963 -2.9371
16857TIP3   OH272061   4.759   4.798   6.569  0.1512 -0.3893  0.1500
16857TIP3    H172062   4.804   4.743   6.634  0.2531  0.1326  0.5248
16857TIP3    H272063   4.687   4.838   6.617  1.6390  1.9230  0.6374
16858TIP3   OH272064   6.727   3.339   3.876 -0.0042 -0.0430  0.2320
16858TIP3    H172065   6.732   3.278   3.949 -0.3374 -0.4143 -0.0510
16858TIP3    H272066   6.781   3.300   3.808 -1.8414 -1.0819 -0.6908
16859TIP3   OH272067   4.245   5.336   6.332 -0.2786 -0.3313  0.1412
16859TIP3    H172068   4.236   5.309   6.240  1.0057 -3.6652  0.8432
16859TIP3    H272069   4.157   5.357   6.360 -0.7623  0.3003 -1.7344
16860TIP3   OH272070   1.422   6.656  12.488  0.2898  0.7218 -0.3341
16860TIP3    H172071   1.359   6.628  12.554 -0.1790  1.0080 -0.6545
16860TIP3    H272072   1.507   6.648  12.531  0.0015  0.7448  0.2471
16861TIP3   OH272073   2.666   5.460  15.692 -0.2873  0.6604 -0.2188
16861TIP3    H172074   2.751   5.502  15.680 -0.4158  0.7607 -0.7952
16861TIP3    H272075   2.623   5.468  15.607 -0.1517 -1.0118 -0.4642
16862TIP3   OH272076   0.257   2.824   1.472  0.7788  0.2186 -0.4190
16862TIP3    H172077   0.319   2.843   1.543  1.4611 -2.0795 -0.3089
16862TIP3    H272078   0.311   2.826   1.393  0.3163  1.3328 -0.7182
16863TIP3   OH272079   0.021   3.423   1.292  0.2982  0.5783  0.2058
16863TIP3    H172080   0.065   3.415   1.208  1.4507  1.1267  0.7235
16863TIP3    H272081  -0.032   3.502   1.284  0.0029  0.3420 -0.1732
16864TIP3   OH272082   2.448   4.531   2.770 -0.4701  0.6969 -0.2664
16864TIP3    H172083   2.418   4.451   2.811  0.2365  0.9117  0.6928
16864TIP3    H272084   2.377   4.555   2.710 -1.4108  0.2450  0.6353
16865TIP3   OH272085   2.031   3.360  14.422  0.5052 -0.4306  0.5449
16865TIP3    H172086   2.121   3.329  14.414  0.5599 -0.4644  1.1906
16865TIP3    H272087   1.990   3.298  14.483  0.7478  1.0011  2.2465
16866TIP3   OH272088   5.907   6.372  13.356  0.5735  0.3432 -0.0093
16866TIP3    H172089   5.842   6.442  13.353  0.0363 -0.1168  0.4529
16866TIP3    H272090   5.991   6.417  13.355  0.2494  0.9507 -0.6141
16867TIP3   OH272091   4.854   3.032   5.029  0.1636 -0.0304 -0.7378
16867TIP3    H172092   4.810   2.975   5.092 -0.5529  1.5329  0.2426
16867TIP3    H272093   4.782   3.073   4.980  0.6611  0.0412 -1.4280
16868TIP3   OH272094   4.318   2.141  15.529  0.0153  0.4028  0.0701
16868TIP3    H172095   4.311   2.143  15.433  0.3594 -2.3643 -0.0818
16868TIP3    H272096   4.242   2.091  15.558  0.7126 -0.0963  1.1004
16869TIP3   OH272097   3.937   3.276  16.893 -0.1162  0.4314  0.3971
16869TIP3    H172098   3.896   3.262  16.808  1.0400  2.3959 -0.5799
16869TIP3    H272099   3.878   3.335  16.939  0.3294  1.2333 -0.0157
16870TIP3   OH272100   0.764   2.593   4.579  0.1404 -0.2202  0.2720
16870TIP3    H172101   0.674   2.563   4.566  0.2243 -0.3024 -0.1306
16870TIP3    H272102   0.818   2.521   4.547  0.3661  1.0832 -2.6767
16871TIP3   OH272103   0.826   1.729   2.074 -0.3227 -0.2777 -0.3036
16871TIP3    H172104   0.914   1.739   2.111 -0.4346 -0.4562  0.0117
16871TIP3    H272105   0.832   1.771   1.988 -0.2962  0.9458  0.2745
16872TIP3   OH272106   6.797   3.368  14.797  0.9099 -0.3076  0.2849
16872TIP3    H172107   6.823   3.291  14.747  0.7460 -1.6502  2.1606
16872TIP3    H272108   6.702   3.359  14.808  0.7802  0.5496 -0.0895
16873TIP3   OH272109   5.477   6.317   4.904  0.0439  0.6890  0.6459
16873TIP3    H172110   5.507   6.324   4.994  3.6821 -0.0135 -0.3183
16873TIP3    H272111   5.492   6.404   4.867 -2.3652  1.2661  0.8495
16874TIP3   OH272112   1.025   5.500  16.419 -0.3473  0.0613 -0.0185
16874TIP3    H172113   1.048   5.565  16.353 -1.1193 -0.3279 -0.7025
16874TIP3    H272114   1.050   5.416  16.380  0.9616 -0.0568  0.9968
16875TIP3   OH272115   3.004   5.875  12.339  0.2623 -0.5136 -0.4256
16875TIP3    H172116   2.957   5.829  12.408  0.7593  0.6523  0.7133
16875TIP3    H272117   3.078   5.818  12.318  0.1570 -0.8303  0.0573
16876TIP3   OH272118   6.495   3.748  16.979 -0.3026  0.2743  0.1760
16876TIP3    H172119   6.448   3.672  17.011  2.0474 -0.3429  2.5522
16876TIP3    H272120   6.461   3.821  17.030 -2.0807  0.7888 -1.6325
16877TIP3   OH272121   4.781   2.982  13.511 -0.2060 -0.1433 -0.2736
16877TIP3    H172122   4.874   2.960  13.501 -0.2719 -0.2427 -0.7177
16877TIP3    H272123   4.771   3.064  13.463 -0.1023  0.5105  0.8117
16878TIP3   OH272124   4.788   2.736   5.174 -0.0316  0.4536 -0.0367
16878TIP3    H172125   4.819   2.647   5.158  2.4837  0.7401  2.4736
16878TIP3    H272126   4.707   2.725   5.223  0.7747 -0.4913  1.1279
16879TIP3   OH272127   5.802   3.795  15.555  0.4598 -1.1592 -0.0335
16879TIP3    H172128   5.807   3.835  15.642 -1.4282 -0.8330 -0.0342
16879TIP3    H272129   5.855   3.852  15.499  0.4583 -0.5183  0.5993
16880TIP3   OH272130   6.133   1.085  12.928 -0.6865 -0.2407 -0.1694
16880TIP3    H172131   6.194   1.099  12.856  0.2101  0.6848  0.7439
16880TIP3    H272132   6.051   1.123  12.898 -0.4563 -0.3030 -0.8900
16881TIP3   OH272133   5.092   4.356  16.719  0.0713  0.1497 -0.1959
16881TIP3    H172134   5.142   4.340  16.639 -1.9995  0.3367 -1.6131
16881TIP3    H272135   5.066   4.448  16.713 -2.4444 -0.5123 -0.8166
16882TIP3   OH272136   5.639   2.578  16.331  0.2064 -0.1355 -0.2562
16882TIP3    H172137   5.705   2.643  16.306  0.9929 -0.4286  0.9708
16882TIP3    H272138   5.604   2.609  16.414 -0.5897 -0.4353 -0.4725
16883TIP3   OH272139   3.077   4.870   4.363 -0.4458  0.2597 -0.3465
16883TIP3    H172140   3.035   4.873   4.449 -1.9790  0.4696 -1.0676
16883TIP3    H272141   3.115   4.782   4.358 -1.1888 -0.1014  0.1723
16884TIP3   OH272142   4.885   3.133   4.738 -0.0079 -0.4023  0.1031
16884TIP3    H172143   4.868   3.058   4.795  0.5759  0.0874  0.9398
16884TIP3    H272144   4.817   3.127   4.671 -0.7447 -0.9624  0.8733
16885TIP3   OH272145   4.198   3.891   2.776  0.2981  0.5007 -0.0192
16885TIP3    H172146   4.115   3.938   2.777  0.1808  0.3191 -0.6453
16885TIP3    H272147   4.173   3.799   2.762  0.6822  0.7002 -2.4311
16886TIP3   OH272148   5.245   3.195  12.044  0.1496  0.4724 -0.0647
16886TIP3    H172149   5.257   3.109  12.004  1.5027  1.1552 -1.2093
16886TIP3    H272150   5.162   3.188  12.092  0.6149 -1.6877  0.5130
16887TIP3   OH272151   4.170   3.794  14.416 -0.2996  0.6641 -0.3302
16887TIP3    H172152   4.097   3.794  14.354  1.3134 -0.9952 -2.3944
16887TIP3    H272153   4.243   3.754  14.368  1.6445  1.0871  2.0284
16888TIP3   OH272154   4.363   5.353   4.468  0.2184  0.3049 -0.4163
16888TIP3    H172155   4.435   5.291   4.477 -2.0365 -2.6099 -0.6792
16888TIP3    H272156   4.302   5.330   4.538 -0.3961  2.8313 -0.0106
16889TIP3   OH272157   5.324   3.413   2.562  0.0991  0.0378 -0.6545
16889TIP3    H172158   5.301   3.485   2.504  0.6323 -0.0136 -0.9299
16889TIP3    H272159   5.274   3.430   2.642 -1.2120 -0.2879 -1.3866
16890TIP3   OH272160   3.601   4.509  13.684  0.0247  0.4836  0.6201
16890TIP3    H172161   3.595   4.584  13.743  2.5152 -0.3120  2.0336
16890TIP3    H272162   3.612   4.548  13.597  1.2634  1.7988  1.3176
16891TIP3   OH272163   5.043   1.652  12.583  0.1170  0.0376  0.4031
16891TIP3    H172164   5.036   1.724  12.646 -0.5220  1.8192 -1.5783
16891TIP3    H272165   5.001   1.686  12.504  1.2981 -1.9159 -1.1447
16892TIP3   OH272166   4.430   6.385  11.201  0.0009 -0.1620  0.0217
16892TIP3    H172167   4.358   6.437  11.235 -0.4810 -1.2257  0.6895
16892TIP3    H272168   4.404   6.365  11.111 -1.9282 -2.7911  1.0199
16893TIP3   OH272169   4.409   5.492  16.408  0.2582 -0.2900  0.2245
16893TIP3    H172170   4.428   5.461  16.497  0.3779 -2.4626 -0.4891
16893TIP3    H272171   4.494   5.520  16.375  0.2768  0.1984  0.6794
16894TIP3   OH272172   5.974   6.741  15.523 -0.3256  0.5397  0.3186
16894TIP3    H172173   6.052   6.797  15.533 -0.3799  0.7745 -0.5564
16894TIP3    H272174   5.900   6.800  15.540 -0.3301  0.3080  1.1865
16895TIP3   OH272175   2.646   5.718   3.292  0.1429  0.0449  0.2929
16895TIP3    H172176   2.652   5.775   3.368  1.3605  1.1996 -0.6221
16895TIP3    H272177   2.725   5.663   3.298  1.2588  1.4147 -1.0749
16896TIP3   OH272178   2.964   1.000   1.854  0.1342 -0.2397  0.2066
16896TIP3    H172179   3.026   0.927   1.859  0.5398  0.0129 -0.9107
16896TIP3    H272180   2.887   0.963   1.812  0.4798  0.0512 -0.7046
16897TIP3   OH272181   5.693   3.287   0.236 -0.3201  0.1227  0.1334
16897TIP3    H172182   5.726   3.326   0.317 -0.1606  1.5100 -0.5523
16897TIP3    H272183   5.600   3.312   0.233 -0.1624  0.6741 -0.4258
16898TIP3   OH272184   2.072   4.512  12.987  0.2791 -0.2177 -0.2188
16898TIP3    H172185   2.107   4.542  13.071 -1.3591 -0.1366  0.4664
16898TIP3    H272186   2.103   4.578  12.924  0.2789  0.5549  0.5687
16899TIP3   OH272187   2.972   4.502   5.833 -0.0348  0.3776 -0.3433
16899TIP3    H172188   3.002   4.411   5.840 -0.3518  0.1598 -1.5893
16899TIP3    H272189   3.001   4.543   5.915  1.2838 -0.5017 -0.3297
16900TIP3   OH272190   5.253   0.957  12.742 -0.5678  0.0538 -0.4082
16900TIP3    H172191   5.235   1.037  12.792  1.5418 -0.0184  0.5855
16900TIP3    H272192   5.189   0.894  12.774  0.1672  0.2789  1.6793
16901TIP3   OH272193   2.955   4.867   0.390 -0.2177  0.0899  0.8049
16901TIP3    H172194   2.994   4.818   0.318  1.9758  1.7462  0.7513
16901TIP3    H272195   2.928   4.950   0.351  1.0630  1.0392  1.8432
16902TIP3   OH272196   1.797   2.650   3.060  0.4762  0.3746  0.1984
16902TIP3    H172197   1.807   2.737   3.100 -0.2314  2.1293 -3.0903
16902TIP3    H272198   1.886   2.624   3.038  0.7370 -0.0013  1.5902
16903TIP3   OH272199   5.117   0.034  13.785  0.0341 -0.5661 -0.1105
16903TIP3    H172200   5.188   0.098  13.773 -0.3017 -0.2826 -0.6411
16903TIP3    H272201   5.163  -0.049  13.799  0.4811 -0.0892  1.3952
16904TIP3   OH272202   0.236   1.187   4.862 -0.1137  0.2629  0.0048
16904TIP3    H172203   0.327   1.167   4.841  0.1648  0.8739  0.5592
16904TIP3    H272204   0.240   1.275   4.900 -0.7534 -0.2247  1.2614
16905TIP3   OH272205   0.379   2.167  13.458 -0.6766  0.1206  0.6206
16905TIP3    H172206   0.324   2.121  13.395  0.3820  1.0832 -1.0997
16905TIP3    H272207   0.393   2.254  13.419  2.0650 -0.0994  0.8977
16906TIP3   OH272208   5.270   2.664  16.257 -0.2383 -0.1709 -0.1316
16906TIP3    H172209   5.181   2.632  16.240 -0.4273 -0.5646  1.4108
16906TIP3    H272210   5.322   2.584  16.265  0.1978  0.0525 -0.7436
16907TIP3   OH272211   3.415   1.038  14.092 -0.2154 -0.3794  1.1100
16907TIP3    H172212   3.441   1.096  14.021  1.4124 -2.1660  0.1480
16907TIP3    H272213   3.488   1.043  14.155 -0.9566  0.0585  1.9608
16908TIP3   OH272214   2.833   4.112  15.583 -0.6917  0.4843  0.1146
16908TIP3    H172215   2.865   4.154  15.663  1.0106 -0.4364 -0.0307
16908TIP3    H272216   2.749   4.074  15.608  1.1834 -2.6271  2.5685
16909TIP3   OH272217   6.242   3.079  15.404 -0.0956 -0.8507 -0.1452
16909TIP3    H172218   6.303   3.135  15.453  0.0057 -0.6640 -0.4841
16909TIP3    H272219   6.298   3.024  15.349 -0.2574 -0.0577 -1.1269
16910TIP3   OH272220   4.127   2.742  12.604 -0.1630 -0.0224 -0.0148
16910TIP3    H172221   4.130   2.756  12.510  1.5752 -0.4062 -0.0505
16910TIP3    H272222   4.117   2.648  12.614 -0.4654  0.0307  0.1841
16911TIP3   OH272223   3.845   6.146   0.302 -0.2383 -0.1107 -0.3405
16911TIP3    H172224   3.873   6.064   0.344  0.0453  0.9383  1.6608
16911TIP3    H272225   3.780   6.182   0.362 -0.6649  0.9479 -1.3976
16912TIP3   OH272226   2.821   5.159   5.498 -0.4185 -0.1056 -0.3330
16912TIP3    H172227   2.733   5.143   5.532 -0.2859  0.1902  0.1572
16912TIP3    H272228   2.871   5.081   5.520  0.2513  0.9192  2.1237
16913TIP3   OH272229   1.213   2.841   3.664  0.0394 -0.1620  0.3490
16913TIP3    H172230   1.120   2.865   3.667 -0.0452 -0.3711 -0.5735
16913TIP3    H272231   1.218   2.771   3.599  0.6726 -0.9518  1.2224
16914TIP3   OH272232   1.803   2.858  11.407 -0.0930  0.3422  0.1493
16914TIP3    H172233   1.760   2.786  11.454  0.6812  0.4148  0.9941
16914TIP3    H272234   1.818   2.824  11.319  2.9944 -1.7087  1.3238
16915TIP3   OH272235   3.325   3.509  15.112 -0.6213 -0.8369 -0.4424
16915TIP3    H172236   3.391   3.568  15.077 -1.0197 -0.2458 -0.2275
16915TIP3    H272237   3.252   3.516  15.051 -0.5252 -1.4063 -0.6230
16916TIP3   OH272238   0.993   5.335   6.341  0.1846  0.0688  0.0591
16916TIP3    H172239   0.912   5.329   6.392 -0.7796  0.7253 -1.3248
16916TIP3    H272240   1.025   5.245   6.335 -0.6698 -0.2597  0.2805
16917TIP3   OH272241   4.903   3.478  10.857 -0.3235  0.0856  0.0023
16917TIP3    H172242   4.988   3.434  10.849 -0.0108  0.6811  0.0073
16917TIP3    H272243   4.897   3.534  10.780  0.1469  1.4774  0.9316
16918TIP3   OH272244   2.662   3.116  13.026 -0.0188  0.0830  0.0206
16918TIP3    H172245   2.653   3.021  13.034  1.2049 -0.1980 -1.4146
16918TIP3    H272246   2.698   3.129  12.938  1.1220  1.7814  0.6818
16919TIP3   OH272247   1.768   5.558  15.803 -0.1756  0.2625  0.6719
16919TIP3    H172248   1.699   5.597  15.749 -1.3070 -1.1698  1.0372
16919TIP3    H272249   1.724   5.534  15.885  0.1366 -2.8530  0.0356
16920TIP3   OH272250   2.472   0.908   0.869 -0.2698  0.2729  0.1080
16920TIP3    H172251   2.443   0.945   0.953 -0.7944 -1.2382  0.6280
16920TIP3    H272252   2.456   0.814   0.878  2.3338 -0.3256 -0.5893
16921TIP3   OH272253   0.059   0.685  13.954 -0.3238 -0.6575  0.7260
16921TIP3    H172254   0.092   0.608  13.909 -0.0794  0.1235 -0.4879
16921TIP3    H272255   0.042   0.656  14.044  2.2176 -1.4757  1.0110
16922TIP3   OH272256   0.517   0.357  12.617 -0.5432  0.2918 -0.4821
16922TIP3    H172257   0.569   0.404  12.552 -1.4617 -0.0343 -1.4580
16922TIP3    H272258   0.462   0.424  12.657  0.7072  0.6818  0.7054
16923TIP3   OH272259   1.245   4.880   0.566 -0.2038  0.0756  0.3029
16923TIP3    H172260   1.162   4.888   0.614 -0.7319 -0.9331 -0.4187
16923TIP3    H272261   1.311   4.870   0.634 -0.9048 -1.0021  0.8456
16924TIP3   OH272262   3.179   2.021   4.846 -0.5552  0.0468  0.1994
16924TIP3    H172263   3.171   2.055   4.757 -0.3809 -1.4167 -0.4050
16924TIP3    H272264   3.122   1.943   4.847 -0.3522 -0.1057  1.2835
16925TIP3   OH272265   3.394   5.859  17.270 -0.4098 -0.3962  0.3131
16925TIP3    H172266   3.432   5.942  17.241  0.7534 -0.3485  1.8358
16925TIP3    H272267   3.407   5.799  17.197  2.6510 -0.3482  0.6904
16926TIP3   OH272268   0.845   4.106  14.743 -0.2942  0.5996 -0.2681
16926TIP3    H172269   0.874   4.061  14.663  0.7054 -0.3941  0.6201
16926TIP3    H272270   0.828   4.196  14.715  2.0510  0.8229 -1.2064
16927TIP3   OH272271   4.336   1.290  14.019  0.2494  0.0053 -0.0999
16927TIP3    H172272   4.429   1.290  14.041  0.3022 -0.7176 -0.3035
16927TIP3    H272273   4.332   1.335  13.934  0.2235  1.3948  0.6114
16928TIP3   OH272274   3.008   3.624  15.989 -0.7533  0.4646  0.4465
16928TIP3    H172275   3.014   3.634  16.084 -1.0027  1.5870  0.3685
16928TIP3    H272276   3.082   3.676  15.956 -0.5543 -0.0794  0.0270
16929TIP3   OH272277   0.461   1.249  13.390 -0.1612 -0.1217 -0.0756
16929TIP3    H172278   0.439   1.214  13.476  0.2839  0.2609  0.1925
16929TIP3    H272279   0.454   1.173  13.332  0.0793 -0.5048  0.3865
16930TIP3   OH272280   0.808   4.667   2.405 -0.0922  0.4046  0.3228
16930TIP3    H172281   0.734   4.721   2.431  0.3709  0.8349  0.7737
16930TIP3    H272282   0.863   4.664   2.483 -0.8224 -1.9544  0.8285
16931TIP3   OH272283   0.173   2.338   0.747 -0.0324 -0.1971  0.5329
16931TIP3    H172284   0.100   2.282   0.775  1.2062 -1.6471  0.9883
16931TIP3    H272285   0.205   2.377   0.828  0.2350 -0.2497  0.4539
16932TIP3   OH272286   3.523   0.584  13.757  0.4986 -0.0701  0.4864
16932TIP3    H172287   3.546   0.676  13.748 -0.9675  0.1744 -1.4292
16932TIP3    H272288   3.607   0.538  13.760  1.2450  1.2200  0.0106
16933TIP3   OH272289   3.860   6.550  15.116  0.1404 -0.0054  0.7236
16933TIP3    H172290   3.799   6.523  15.184  0.3705 -1.1874  0.4705
16933TIP3    H272291   3.946   6.526  15.150  0.2825 -0.3421  0.1369
16934TIP3   OH272292   3.193   4.160  14.828 -0.3288  0.0995 -0.3305
16934TIP3    H172293   3.191   4.243  14.874  0.8166 -0.7130  1.3083
16934TIP3    H272294   3.273   4.117  14.860 -1.1999 -1.8767 -0.6431
16935TIP3   OH272295   3.303   3.483  14.205 -0.0010 -0.0090 -0.2760
16935TIP3    H172296   3.386   3.517  14.173 -1.6874  1.8843 -3.1017
16935TIP3    H272297   3.249   3.561  14.220 -2.5007 -1.1699 -2.3863
16936TIP3   OH272298   5.423   0.024  15.334 -0.4757  0.2015 -0.0601
16936TIP3    H172299   5.476  -0.028  15.394 -0.8309  0.8446  0.8432
16936TIP3    H272300   5.397  -0.037  15.265  1.7700 -0.0346 -0.7625
16937TIP3   OH272301   1.871   1.241   1.990 -0.2335  0.7086  0.5666
16937TIP3    H172302   1.851   1.148   2.004 -0.3473  0.6684  0.1400
16937TIP3    H272303   1.964   1.243   1.968 -0.4389  0.5998 -0.3347
16938TIP3   OH272304   1.794   6.495   0.897  0.2000 -0.5497 -0.0326
16938TIP3    H172305   1.777   6.510   0.804  0.8606  0.2000 -0.0459
16938TIP3    H272306   1.771   6.578   0.939  0.3950 -0.7151  0.4052
16939TIP3   OH272307   6.485   5.269  13.839  0.0154  0.5537 -0.0899
16939TIP3    H172308   6.518   5.199  13.783  1.0230  0.9075  0.0427
16939TIP3    H272309   6.499   5.236  13.928 -1.9112 -0.1610 -0.0084
16940TIP3   OH272310   4.312   1.853  12.712 -0.4526  0.4254 -0.5643
16940TIP3    H172311   4.258   1.897  12.646 -3.1168  0.0127  1.1597
16940TIP3    H272312   4.271   1.767  12.723  0.7427 -0.0194  0.6608
16941TIP3   OH272313   3.458   4.655  11.969  0.1258  0.0663  0.0758
16941TIP3    H172314   3.409   4.585  11.926  1.3040 -0.5588 -0.2821
16941TIP3    H272315   3.411   4.735  11.943 -0.6574 -0.4993 -0.3133
16942TIP3   OH272316   3.121   3.275  13.904 -0.1442  0.5417 -0.5280
16942TIP3    H172317   3.199   3.229  13.874 -0.8746 -0.8419 -0.3708
16942TIP3    H272318   3.052   3.209  13.905 -0.8179  1.1909  1.4591
16943TIP3   OH272319   2.898   2.187  16.320  0.4207  0.1489  0.0965
16943TIP3    H172320   2.924   2.220  16.406  0.6372 -0.3800  0.2347
16943TIP3    H272321   2.971   2.132  16.291  0.8309  1.1710 -0.9134
16944TIP3   OH272322   4.583   4.314  11.764  0.1163  0.6427 -0.1253
16944TIP3    H172323   4.500   4.296  11.808 -1.5478  1.2593 -2.7622
16944TIP3    H272324   4.589   4.409  11.761 -0.0592  0.6415 -1.5052
16945TIP3   OH272325   3.813   4.854   4.027  0.3199 -0.1471 -0.2016
16945TIP3    H172326   3.801   4.943   4.061  1.7353 -0.1420  0.3687
16945TIP3    H272327   3.775   4.797   4.094 -0.8665  0.0031 -0.7078
16946TIP3   OH272328   4.066   6.690   5.419 -0.4957  0.0560  0.0706
16946TIP3    H172329   4.089   6.620   5.481  0.0042  0.6071  0.5259
16946TIP3    H272330   3.998   6.653   5.364 -1.2273 -0.3291  1.2121
16947TIP3   OH272331   4.865   2.017   4.897  0.7756  0.0650 -0.2563
16947TIP3    H172332   4.826   1.965   4.826  0.3002 -2.2200  1.5498
16947TIP3    H272333   4.932   1.960   4.934  0.8855  1.1357  1.2688
16948TIP3   OH272334   1.519   1.699   3.256  0.1862  0.1952 -0.3781
16948TIP3    H172335   1.532   1.779   3.205  1.3497  0.9286  0.9810
16948TIP3    H272336   1.548   1.629   3.198 -1.5481  0.6342 -1.8713
16949TIP3   OH272337   2.690   2.082   5.055  0.7487  0.2062  0.2360
16949TIP3    H172338   2.698   2.178   5.058 -0.1367  0.3474 -1.0742
16949TIP3    H272339   2.707   2.054   5.145 -0.0191  1.6846  0.8824
16950TIP3   OH272340   3.284   0.820  15.119 -0.2656  0.0886 -0.4935
16950TIP3    H172341   3.365   0.792  15.162 -0.2563  0.3453 -0.3402
16950TIP3    H272342   3.214   0.782  15.172 -0.2598  0.6427 -0.0754
16951TIP3   OH272343   0.573   4.128   5.463 -0.2014  0.3323 -0.2581
16951TIP3    H172344   0.519   4.206   5.449 -0.1811  0.2429 -0.8620
16951TIP3    H272345   0.511   4.055   5.462  0.1203 -0.0228 -3.3177
16952TIP3   OH272346   0.685   4.779  17.166  0.2579  0.3048  0.2208
16952TIP3    H172347   0.763   4.798  17.218 -0.1476 -0.3358  1.0985
16952TIP3    H272348   0.616   4.833  17.205  0.0464  0.1444  0.0754
16953TIP3   OH272349   6.608   0.476  14.912  0.1417  0.1118 -0.4410
16953TIP3    H172350   6.536   0.474  14.975 -0.5676  0.0582 -1.2416
16953TIP3    H272351   6.603   0.563  14.872  2.5672  1.4120  1.7946
16954TIP3   OH272352   3.115   6.733   2.664 -0.3570  0.2162 -0.3497
16954TIP3    H172353   3.040   6.794   2.664 -0.9272 -0.4728  0.2639
16954TIP3    H272354   3.076   6.647   2.676  0.4969 -0.2247 -0.6445
16955TIP3   OH272355   0.926   6.814   5.848  0.4185  0.5115  0.0338
16955TIP3    H172356   0.996   6.868   5.887  0.8749  2.1164 -2.7227
16955TIP3    H272357   0.972   6.749   5.796 -0.1734 -0.6321  0.9031
16956TIP3   OH272358   4.902   4.616  15.796 -0.3445  0.2747 -0.4347
16956TIP3    H172359   4.888   4.574  15.881 -1.2949 -0.3429 -0.8746
16956TIP3    H272360   4.995   4.606  15.779 -0.2237  0.0341  0.3416
16957TIP3   OH272361   5.942   5.368  11.508 -0.1570 -0.1265  1.1702
16957TIP3    H172362   5.875   5.374  11.577 -1.4769 -0.5130 -0.0384
16957TIP3    H272363   5.951   5.274  11.492 -1.5729  0.0069 -0.7455
16958TIP3   OH272364   0.151   0.920  17.140 -0.4969 -0.1556 -0.0176
16958TIP3    H172365   0.145   0.937  17.046  0.2075 -1.5832 -0.3553
16958TIP3    H272366   0.085   0.977  17.179 -0.2997  0.9952 -1.2945
16959TIP3   OH272367   0.201   5.849   1.948 -0.3083  0.1700 -0.7312
16959TIP3    H172368   0.190   5.810   1.862  1.3683 -1.1879 -0.3981
16959TIP3    H272369   0.186   5.778   2.010  1.6470  0.2610 -0.0570
16960TIP3   OH272370   6.736   2.482   0.183 -0.0149 -0.6313  0.7327
16960TIP3    H172371   6.695   2.442   0.260 -1.1626 -1.7220 -0.3949
16960TIP3    H272372   6.830   2.481   0.202 -0.2610 -1.0704  2.0208
16961TIP3   OH272373   3.662   5.069  15.702  0.6918  0.2987  0.1012
16961TIP3    H172374   3.617   5.032  15.778  0.0945 -1.4800 -1.0910
16961TIP3    H272375   3.611   5.147  15.680  0.6853  0.6642  1.2849
16962TIP3   OH272376   1.877   0.221  12.709 -0.8323 -0.1690  0.4023
16962TIP3    H172377   1.897   0.245  12.799  2.0002 -0.7492  0.0411
16962TIP3    H272378   1.962   0.223  12.664 -1.4301 -3.8398 -1.2907
16963TIP3   OH272379   6.461   2.608   4.684  0.0353  0.1027  0.6391
16963TIP3    H172380   6.458   2.516   4.661 -1.1818  0.5665 -1.3281
16963TIP3    H272381   6.551   2.634   4.667 -0.4737  0.1055 -2.7908
16964TIP3   OH272382   5.440   3.215   6.348  0.0338 -0.9976 -0.1957
16964TIP3    H172383   5.352   3.199   6.383 -0.3149  0.4539 -0.3329
16964TIP3    H272384   5.488   3.134   6.365 -0.4763 -0.8179  2.4838
16965TIP3   OH272385   1.708   4.011   2.144 -0.2762  0.0444 -0.1447
16965TIP3    H172386   1.675   4.019   2.055  0.0472 -1.3836 -0.4143
16965TIP3    H272387   1.631   3.989   2.196  0.1163 -3.6356 -0.8281
16966TIP3   OH272388   2.648   4.593  11.636  0.8924  0.6564  0.3949
16966TIP3    H172389   2.609   4.558  11.557 -0.5724  0.0940  1.3189
16966TIP3    H272390   2.659   4.517  11.694  1.7519  1.0782  0.8073
16967TIP3   OH272391   5.925   6.312  12.000  0.4202  0.0614 -0.1926
16967TIP3    H172392   5.903   6.405  12.005 -0.8563 -0.1064 -1.7530
16967TIP3    H272393   5.861   6.276  11.938  2.3508 -1.3996 -1.4530
16968TIP3   OH272394   4.506   4.226  15.291  0.3728  0.3878  0.6115
16968TIP3    H172395   4.432   4.287  15.286  0.0632 -0.0051  0.3479
16968TIP3    H272396   4.564   4.264  15.357 -1.8511 -1.2649  3.7302
16969TIP3   OH272397   3.048   4.300   2.342  0.4907  0.0369 -0.0835
16969TIP3    H172398   3.139   4.323   2.362  0.8483 -0.2750 -1.2632
16969TIP3    H272399   3.026   4.353   2.265 -0.9999  1.6058  1.3320
16970TIP3   OH272400   3.084   2.050  16.180  0.2078 -0.3867  0.1484
16970TIP3    H172401   3.133   2.130  16.158 -0.9388 -0.0901 -1.4592
16970TIP3    H272402   3.152   1.989  16.211  0.8838  1.8363  3.5763
16971TIP3   OH272403   1.930   0.033   6.448  0.0364  0.1907 -0.2874
16971TIP3    H172404   1.979   0.018   6.528 -0.1194 -0.8495 -0.3692
16971TIP3    H272405   1.997   0.049   6.381  0.1289  3.0824  0.3806
16972TIP3   OH272406   2.537   0.259   2.808  0.1907  0.0281  0.3570
16972TIP3    H172407   2.573   0.318   2.742 -1.3515  1.8131  1.0561
16972TIP3    H272408   2.442   0.269   2.801 -0.0667 -1.2931  1.4832
16973TIP3   OH272409   2.846   5.277   0.935 -0.2584  0.6703 -0.4164
16973TIP3    H172410   2.928   5.313   0.969  0.2277 -1.3333  0.7475
16973TIP3    H272411   2.826   5.330   0.858  1.8876  1.5040 -0.4731
16974TIP3   OH272412   0.860   6.632  11.060 -0.0843 -0.4618 -0.4348
16974TIP3    H172413   0.927   6.567  11.082  1.5101  0.7423 -1.4649
16974TIP3    H272414   0.907   6.715  11.062 -1.9691  0.6437  0.4503
16975TIP3   OH272415   0.081   3.817  14.396 -0.1797 -0.2595  0.1806
16975TIP3    H172416   0.031   3.824  14.315  3.6562 -2.8774 -2.7880
16975TIP3    H272417   0.100   3.724  14.406  0.2995  0.0608  3.7029
16976TIP3   OH272418   0.014   3.902   3.926 -0.1561  0.0543  0.4830
16976TIP3    H172419   0.044   3.811   3.930 -0.1942  0.0542  0.8153
16976TIP3    H272420   0.094   3.954   3.932 -0.0660  0.0436 -0.4097
16977TIP3   OH272421   2.626   2.220  14.820 -0.3434 -0.0480  0.3326
16977TIP3    H172422   2.555   2.241  14.881 -1.0026  0.2707 -0.5237
16977TIP3    H272423   2.605   2.268  14.740  0.9721  0.2456  0.1346
16978TIP3   OH272424   2.419   4.233  15.487 -0.2725 -0.1199 -0.0002
16978TIP3    H172425   2.501   4.283  15.486  0.0548 -0.6449  0.1269
16978TIP3    H272426   2.364   4.278  15.551  0.0874 -0.0297  0.2471
16979TIP3   OH272427   3.760   6.706   3.027  0.1783 -0.4086  0.3283
16979TIP3    H172428   3.744   6.712   2.933  0.9469 -1.4459  0.1128
16979TIP3    H272429   3.696   6.642   3.059 -0.6143  0.5319  0.6654
16980TIP3   OH272430   0.160   4.985  15.281 -0.3436  0.0679 -0.2183
16980TIP3    H172431   0.210   4.932  15.218  0.8812  1.2869 -0.3257
16980TIP3    H272432   0.222   5.053  15.308 -0.7175 -0.6048  2.5781
16981TIP3   OH272433   1.789   2.841  11.103  0.0558 -0.0753  0.0984
16981TIP3    H172434   1.762   2.771  11.163  0.4923  0.0062  0.4000
16981TIP3    H272435   1.872   2.810  11.067  1.0481  0.9549  1.4118
16982TIP3   OH272436   4.983   4.442  12.707  0.3806 -0.0925 -0.0809
16982TIP3    H172437   5.036   4.474  12.780 -0.8997  0.5070  0.6353
16982TIP3    H272438   5.019   4.356  12.687  0.8031 -0.2513  1.2396
16983TIP3   OH272439   5.916   4.093   4.182  0.7082 -0.5864  0.0569
16983TIP3    H172440   5.826   4.101   4.214 -0.1596 -0.5829 -2.1750
16983TIP3    H272441   5.965   4.160   4.231 -1.1515  1.5112 -0.7449
16984TIP3   OH272442   2.631   1.876   0.881  0.5209  0.1930 -0.5556
16984TIP3    H172443   2.591   1.916   0.958  1.0021  0.4042 -0.4078
16984TIP3    H272444   2.598   1.786   0.881  0.9153  0.0360  0.2034
16985TIP3   OH272445   1.377   1.688  11.192 -0.4779  0.2481 -0.3394
16985TIP3    H172446   1.286   1.718  11.193 -0.7949 -0.5442 -2.1022
16985TIP3    H272447   1.415   1.727  11.270 -1.6169  2.8455 -0.9572
16986TIP3   OH272448   3.830   5.013  12.633  0.1537  0.5548  0.2605
16986TIP3    H172449   3.790   4.940  12.680  0.4489  1.0384  1.2824
16986TIP3    H272450   3.856   4.975  12.548 -2.3723  0.2326 -0.4281
16987TIP3   OH272451   4.956   4.746  10.602 -0.8320  0.5526 -0.1733
16987TIP3    H172452   4.929   4.707  10.686  0.3886  0.0545  0.0195
16987TIP3    H272453   4.968   4.839  10.621 -1.1115  0.5408  0.0637
16988TIP3   OH272454   0.048   5.462   5.655  0.6031 -0.4366 -0.0585
16988TIP3    H172455   0.046   5.366   5.661  0.2050 -0.4471 -0.3204
16988TIP3    H272456   0.031   5.492   5.744 -3.8063 -0.5891 -0.6249
16989TIP3   OH272457   4.753   3.391  15.289 -0.0263 -0.4684 -0.0279
16989TIP3    H172458   4.671   3.422  15.328 -1.2697 -0.4397 -2.4641
16989TIP3    H272459   4.727   3.313  15.239  1.4710 -0.5396 -0.7483
16990TIP3   OH272460   2.971   6.718   0.248  0.0999  0.1427  0.0335
16990TIP3    H172461   2.955   6.770   0.169  0.9107  0.5970  0.1623
16990TIP3    H272462   3.048   6.665   0.227 -0.6126 -0.9015 -0.0347
16991TIP3   OH272463   1.092   6.604   1.672  0.5655  0.0801 -0.3765
16991TIP3    H172464   1.022   6.558   1.719 -0.7825 -0.0275 -2.3558
16991TIP3    H272465   1.092   6.564   1.585  0.3875  2.7404 -1.6929
16992TIP3   OH272466   5.247   1.223  14.131  0.1183  0.3424  0.2077
16992TIP3    H172467   5.305   1.230  14.056  1.3835  2.1895  1.2867
16992TIP3    H272468   5.190   1.299  14.124 -2.0704 -1.2665 -0.6586
16993TIP3   OH272469   1.801   5.122  12.493  0.0736 -0.8177  0.0417
16993TIP3    H172470   1.848   5.135  12.411 -1.1270  0.0210 -0.5303
16993TIP3    H272471   1.747   5.045  12.477 -0.0121 -0.7729  0.1159
16994TIP3   OH272472   2.587   0.454   3.750  0.1302  0.0463 -0.5256
16994TIP3    H172473   2.558   0.383   3.808 -1.9249 -0.1418 -1.6836
16994TIP3    H272474   2.540   0.531   3.781 -1.0366 -0.0698 -1.9232
16995TIP3   OH272475   6.699   6.038  17.158  0.4654  0.1637  0.3169
16995TIP3    H172476   6.650   6.067  17.082  0.3308 -2.9909 -0.9187
16995TIP3    H272477   6.654   6.079  17.232 -1.5509  0.5417 -1.0450
16996TIP3   OH272478   5.897   4.249   0.586  0.5234  0.0716  0.1647
16996TIP3    H172479   5.865   4.300   0.512  1.2678  0.4561  0.0968
16996TIP3    H272480   5.902   4.311   0.658 -0.0674 -0.2710  0.5118
16997TIP3   OH272481   1.593   1.566  15.675  0.4734 -0.0264  0.5713
16997TIP3    H172482   1.552   1.491  15.717  0.1270 -1.2424 -1.8134
16997TIP3    H272483   1.525   1.605  15.621  1.5738 -0.2284 -1.0474
16998TIP3   OH272484   4.727   6.410   4.770 -0.2114  0.3668 -0.5370
16998TIP3    H172485   4.755   6.341   4.829  0.0600  0.9314  0.0142
16998TIP3    H272486   4.795   6.414   4.703 -0.9151 -0.8079 -1.3657
16999TIP3   OH272487   2.560   5.150   1.853 -0.2958 -0.3045 -0.7085
16999TIP3    H172488   2.560   5.149   1.758 -0.2076  0.1648 -0.7187
16999TIP3    H272489   2.555   5.243   1.876 -2.1049 -0.4655 -0.2508
17000TIP3   OH272490   2.214   6.200   1.412  1.0754 -0.0825 -0.3717
17000TIP3    H172491   2.162   6.280   1.405 -1.4993 -1.6848 -0.8512
17000TIP3    H272492   2.149   6.130   1.423  3.0255 -2.3980 -2.3901
17001TIP3   OH272493   3.472   0.379   1.820  0.1471  0.2698 -0.2511
17001TIP3    H172494   3.444   0.449   1.878  0.5677  0.2364 -0.0006
17001TIP3    H272495   3.548   0.341   1.864 -0.0467 -0.3102 -0.4080
17002TIP3   OH272496   2.568   4.442  11.404  0.0883 -0.0762 -0.0364
17002TIP3    H172497   2.650   4.458  11.358  1.7972 -1.0124  2.5190
17002TIP3    H272498   2.543   4.353  11.378 -0.6435  0.5087 -1.4675
17003TIP3   OH272499   3.784   0.756   2.324 -0.0605 -0.1358  0.1546
17003TIP3    H172500   3.729   0.829   2.352  1.5034  0.9027  0.6254
17003TIP3    H272501   3.733   0.678   2.348 -0.5571  0.7579  2.2503
17004TIP3   OH272502   3.640   3.857  15.983 -0.1435 -0.3218 -0.2064
17004TIP3    H172503   3.712   3.896  15.934 -0.0555 -0.5453 -0.2591
17004TIP3    H272504   3.603   3.929  16.034  1.8232 -0.6897  1.9351
17005TIP3   OH272505   4.242   0.944  16.997  0.2706 -0.0036 -0.6241
17005TIP3    H172506   4.336   0.959  17.009  0.0754  0.2268  0.9317
17005TIP3    H272507   4.215   0.901  17.078 -0.9934  0.0718 -0.9867
17006TIP3   OH272508   4.594   1.557   5.612 -0.0870 -0.1186  0.5870
17006TIP3    H172509   4.543   1.521   5.539 -0.1558  0.4592  0.3476
17006TIP3    H272510   4.678   1.511   5.607  0.1496  0.3893 -0.2657
17007TIP3   OH272511   3.731   5.285   2.725 -0.5869 -0.1218  0.5131
17007TIP3    H172512   3.794   5.260   2.657 -1.8236  0.4590 -0.9061
17007TIP3    H272513   3.738   5.380   2.731 -2.6885  0.2332 -1.1802
17008TIP3   OH272514   4.018   6.118  16.631  0.2138 -0.2652  0.0710
17008TIP3    H172515   4.076   6.106  16.706 -0.8315 -1.4344  0.7353
17008TIP3    H272516   4.055   6.062  16.563  1.4319  1.1509 -0.5065
17009TIP3   OH272517   0.700   6.288  14.496  0.1583 -0.1084  0.5312
17009TIP3    H172518   0.711   6.209  14.444 -0.8550 -0.9534  1.5158
17009TIP3    H272519   0.687   6.255  14.586 -2.2788  1.0211  0.6723
17010TIP3   OH272520   0.070   5.327  14.639  0.2712 -0.0956  0.4171
17010TIP3    H172521   0.110   5.367  14.716  2.3246 -0.4358 -0.4236
17010TIP3    H272522  -0.023   5.320  14.662  0.6514  0.7215  2.4497
17011TIP3   OH272523   1.910   4.613  16.192  0.1955 -0.2544 -0.2647
17011TIP3    H172524   1.910   4.517  16.192 -2.5680 -0.3298  0.2282
17011TIP3    H272525   1.822   4.637  16.165  0.4831  2.1469  0.6836
17012TIP3   OH272526   4.597   5.649   0.477  0.3099 -0.4363  0.3142
17012TIP3    H172527   4.554   5.627   0.560  1.8625  0.4784  1.4159
17012TIP3    H272528   4.687   5.617   0.488  0.6003 -0.0709 -0.9201
17013TIP3   OH272529   2.170   3.976   4.745 -0.7506 -0.2024 -0.1400
17013TIP3    H172530   2.253   3.990   4.700 -0.3799  1.6309  1.0288
17013TIP3    H272531   2.186   3.902   4.803  0.1217  0.2487  0.1986
17014TIP3   OH272532   5.820   0.301  13.738 -0.2841 -0.4022 -0.2988
17014TIP3    H172533   5.730   0.281  13.710 -0.9442  2.3408 -0.4592
17014TIP3    H272534   5.857   0.348  13.663  1.3499 -1.5088 -0.2335
17015TIP3   OH272535   5.791   0.774   6.199  0.0270  0.0202  0.1233
17015TIP3    H172536   5.882   0.765   6.171  0.5185 -1.0095  1.9415
17015TIP3    H272537   5.758   0.684   6.202 -1.0956  0.3933 -0.6092
17016TIP3   OH272538   4.775   5.268   0.431 -0.2180 -0.1275 -1.0414
17016TIP3    H172539   4.681   5.287   0.428  0.1192  2.4399  0.8802
17016TIP3    H272540   4.792   5.249   0.523  1.0568 -1.3583 -1.4977
17017TIP3   OH272541   1.270   5.421  12.123 -0.6859  0.6318  0.4088
17017TIP3    H172542   1.207   5.458  12.061  1.8755  2.0270 -1.5483
17017TIP3    H272543   1.338   5.488  12.131  1.7713 -1.7003  0.5442
17018TIP3   OH272544   6.426   0.905   1.681 -0.6898  0.0236  0.1397
17018TIP3    H172545   6.515   0.914   1.646 -0.4858 -1.0213  0.3696
17018TIP3    H272546   6.369   0.926   1.607 -0.3037 -3.5539 -1.3924
17019TIP3   OH272547   4.269   3.766  12.342  0.0895 -0.2174  0.2493
17019TIP3    H172548   4.318   3.817  12.407 -0.4653  1.7844 -0.8143
17019TIP3    H272549   4.333   3.703  12.309  1.5333  1.2907  0.0079
17020TIP3   OH272550   0.765   0.079   1.921  0.4381  1.0872 -0.3242
17020TIP3    H172551   0.826   0.078   1.995  1.9628  0.0810 -1.5244
17020TIP3    H272552   0.793   0.154   1.868  0.1024  1.1179 -0.4563
17021TIP3   OH272553   5.213   2.619   1.441 -0.4561  0.2235  0.2877
17021TIP3    H172554   5.155   2.685   1.403 -0.1139  0.8204  0.7844
17021TIP3    H272555   5.297   2.631   1.397 -0.6007 -0.3940 -0.1669
17022TIP3   OH272556   5.930   4.158  11.347 -0.0554  0.4743  0.8352
17022TIP3    H172557   5.837   4.150  11.369  0.0509  0.7492  1.4135
17022TIP3    H272558   5.971   4.083  11.391  0.2199  1.2658  1.9617
17023TIP3   OH272559   0.898   1.861  12.183 -0.3704  0.2680  0.2246
17023TIP3    H172560   0.896   1.766  12.177  2.0513  0.1480  0.2569
17023TIP3    H272561   0.820   1.884  12.234 -0.2899 -1.7971  1.3891
17024TIP3   OH272562   2.972   0.453   3.664  0.2913 -0.3997 -0.0156
17024TIP3    H172563   3.007   0.518   3.602 -0.5356 -1.1065 -1.2695
17024TIP3    H272564   3.019   0.372   3.642 -1.2582 -1.0919 -0.9826
17025TIP3   OH272565   2.403   5.973   4.088  0.1387 -0.1041 -0.5008
17025TIP3    H172566   2.377   6.020   4.167  0.7672 -0.4256 -0.0970
17025TIP3    H272567   2.462   6.033   4.042  0.0869 -0.0771 -0.5335
17026TIP3   OH272568   2.826   3.086  12.168  0.2456 -0.3481  0.2269
17026TIP3    H172569   2.821   3.092  12.264  0.0069  0.9094  0.1510
17026TIP3    H272570   2.915   3.117  12.148  0.1654 -0.2624  0.0137
17027TIP3   OH272571   4.811   4.354   2.213  0.2081 -0.6967  0.1808
17027TIP3    H172572   4.732   4.334   2.262  0.6698 -0.9460  0.8266
17027TIP3    H272573   4.868   4.398   2.276  1.3924 -2.3244  0.3068
17028TIP3   OH272574   5.692   3.445  12.917  0.0974 -0.4866 -0.3552
17028TIP3    H172575   5.668   3.362  12.875  0.3668  0.0764 -1.6897
17028TIP3    H272576   5.714   3.421  13.007 -0.9576 -1.6844 -0.3897
17029TIP3   OH272577   0.882   6.356  15.788  0.0949  0.2779 -0.0040
17029TIP3    H172578   0.882   6.359  15.884  0.6691 -0.1667  0.0147
17029TIP3    H272579   0.944   6.425  15.762  0.8188 -0.3672 -0.0173
17030TIP3   OH272580   4.526   5.147  17.112  0.0139 -0.8159  0.2371
17030TIP3    H172581   4.488   5.062  17.135  1.2085 -1.5401 -0.3519
17030TIP3    H272582   4.503   5.204  17.185 -0.2241 -1.8226  0.9690
17031TIP3   OH272583   5.504   5.573  14.595  0.2335  0.1515  0.5925
17031TIP3    H172584   5.547   5.654  14.623 -2.3682  2.2746 -1.1056
17031TIP3    H272585   5.559   5.539  14.525  1.4604  0.2707  1.4620
17032TIP3   OH272586   6.521   4.754   3.388 -0.5331  0.2861 -0.9461
17032TIP3    H172587   6.612   4.727   3.401 -1.2075 -1.6939  0.0893
17032TIP3    H272588   6.485   4.689   3.328 -2.0266 -0.8514  1.0386
17033TIP3   OH272589   3.604   1.588   2.227 -0.5341 -0.5557  0.7016
17033TIP3    H172590   3.634   1.553   2.143 -0.0553 -0.0990  0.6839
17033TIP3    H272591   3.662   1.549   2.292  1.1166  1.4803  0.5377
17034TIP3   OH272592   3.393   2.992   2.559  0.3209  0.0959 -0.3219
17034TIP3    H172593   3.440   3.001   2.476 -0.6583  0.8009 -0.8157
17034TIP3    H272594   3.425   3.065   2.612 -1.3987  1.6063 -1.2678
17035TIP3   OH272595   1.958   5.151   4.110  0.3785  0.1337 -0.3623
17035TIP3    H172596   1.906   5.135   4.031 -0.9363 -1.3762  0.7439
17035TIP3    H272597   2.031   5.088   4.104 -0.4653 -0.9326  0.2317
17036TIP3   OH272598   2.989   4.448  14.896 -0.1167  0.2951 -0.2009
17036TIP3    H172599   2.906   4.465  14.851  0.4559 -0.4812 -1.5870
17036TIP3    H272600   2.963   4.422  14.985 -1.3269  0.4627 -0.4902
17037TIP3   OH272601   1.184   2.594   4.312  0.5396 -0.1058  0.5575
17037TIP3    H172602   1.206   2.501   4.314  0.2740 -0.1947 -0.2157
17037TIP3    H272603   1.106   2.599   4.257  0.7496  0.6130  0.3124
17038TIP3   OH272604   4.052   0.265  12.702  0.3256  0.1332  0.5252
17038TIP3    H172605   4.072   0.172  12.705 -2.1527 -0.4973 -0.0391
17038TIP3    H272606   3.975   0.274  12.758 -0.6902  1.4678 -1.0042
17039TIP3   OH272607   5.768   4.788   2.847  0.2328  0.2153  0.3587
17039TIP3    H172608   5.859   4.791   2.816  0.5171  0.4832  1.1881
17039TIP3    H272609   5.776   4.785   2.942 -0.6260 -0.1362  0.4218
17040TIP3   OH272610   4.673   1.745   1.916 -0.1921 -0.0413  0.4692
17040TIP3    H172611   4.588   1.708   1.938 -0.2018  0.8251  2.0589
17040TIP3    H272612   4.717   1.758   2.001  1.3011  0.0415 -0.2737
17041TIP3   OH272613   0.452   1.290  11.544 -0.3370 -0.5886 -0.7966
17041TIP3    H172614   0.463   1.246  11.460  1.4401  1.2886 -1.6396
17041TIP3    H272615   0.497   1.234  11.607 -0.6439 -1.4126 -1.2994
17042TIP3   OH272616   1.557   5.057   5.405  0.4645 -0.6308 -0.1818
17042TIP3    H172617   1.536   4.970   5.371  1.4350 -0.8608 -0.2188
17042TIP3    H272618   1.478   5.109   5.389 -0.6467 -1.8640  1.1009
17043TIP3   OH272619   4.375   1.731   4.821  0.3370 -0.3212  0.5884
17043TIP3    H172620   4.415   1.758   4.738 -0.3126  1.1776  0.7365
17043TIP3    H272621   4.416   1.646   4.841  1.9585  0.2238 -0.2646
17044TIP3   OH272622   6.205   3.855   2.033 -0.0199  0.3892  0.4049
17044TIP3    H172623   6.116   3.867   2.065  0.3488 -0.4260  1.8128
17044TIP3    H272624   6.246   3.941   2.042 -0.8192  0.9194 -0.8304
17045TIP3   OH272625   1.804   4.334   1.736  0.1167 -0.0505  0.3438
17045TIP3    H172626   1.738   4.381   1.785 -0.5212  0.2765 -0.7827
17045TIP3    H272627   1.772   4.244   1.733  0.0530 -0.0287  0.3671
17046TIP3   OH272628   2.510   5.496  14.134 -0.3567  0.3827  0.0089
17046TIP3    H172629   2.494   5.424  14.195 -0.8264  0.3094 -0.2046
17046TIP3    H272630   2.478   5.573  14.179  1.2031  0.6507  0.7308
17047TIP3   OH272631   2.801   4.955  16.022 -0.9101 -0.1672  0.0966
17047TIP3    H172632   2.840   4.999  15.946 -0.7159 -1.1852 -0.4057
17047TIP3    H272633   2.845   4.995  16.097 -0.8887  0.6398 -0.3287
17048TIP3   OH272634   6.171   5.824  12.937 -0.0248 -0.0695 -0.1072
17048TIP3    H172635   6.135   5.874  12.864 -1.5245  0.2822  0.8135
17048TIP3    H272636   6.208   5.745  12.897  0.3451  0.7135 -1.3509
17049TIP3   OH272637   4.571   5.524   0.769 -0.2295 -0.1545  0.4069
17049TIP3    H172638   4.485   5.501   0.803  0.6648 -0.9828  2.2343
17049TIP3    H272639   4.600   5.598   0.822  0.7954 -0.8508  0.8512
17050TIP3   OH272640   5.823   0.833  12.002  0.3316  0.5949 -0.2850
17050TIP3    H172641   5.794   0.871  11.919 -0.8399 -1.2795 -0.7995
17050TIP3    H272642   5.761   0.761  12.019  1.0976  0.3298  1.7468
17051TIP3   OH272643   2.962   1.643   3.464  0.2387 -0.3402 -0.0647
17051TIP3    H172644   2.922   1.641   3.550 -0.3679 -1.1235 -0.3491
17051TIP3    H272645   2.895   1.678   3.406  1.1787  1.7194  0.0163
17052TIP3   OH272646   1.158   4.761  13.337  0.0540  0.0825 -0.4525
17052TIP3    H172647   1.105   4.811  13.275 -0.1772 -0.8637 -1.0396
17052TIP3    H272648   1.130   4.670  13.324  0.4393 -0.2006  0.6083
17053TIP3   OH272649   6.570   4.572   5.533 -0.1444 -0.3312  0.3263
17053TIP3    H172650   6.558   4.655   5.487  0.0577 -0.0090  0.8538
17053TIP3    H272651   6.664   4.563   5.543 -0.2136  0.0726  1.5198
17054TIP3   OH272652   3.951   5.450  15.186  0.5771 -0.2960 -0.5380
17054TIP3    H172653   3.993   5.375  15.226  1.8898 -0.7077 -2.5440
17054TIP3    H272654   3.870   5.416  15.148 -0.1115 -0.1266  0.7193
17055TIP3   OH272655   1.170   4.576  15.548 -0.8383  0.3177 -0.3870
17055TIP3    H172656   1.173   4.654  15.493 -2.2036  1.2747  0.8034
17055TIP3    H272657   1.255   4.572  15.590 -0.1884  0.2203 -1.6496
17056TIP3   OH272658   6.749   1.388  13.873 -0.3204 -0.1693 -0.0338
17056TIP3    H172659   6.679   1.362  13.932 -3.2430 -1.3561 -3.6920
17056TIP3    H272660   6.709   1.450  13.813  2.3187  0.6062 -1.1642
17057TIP3   OH272661   1.274   3.978  13.241  0.4736  0.1948  0.1124
17057TIP3    H172662   1.248   4.030  13.317 -0.9915  0.4070 -0.5079
17057TIP3    H272663   1.369   3.990  13.236  0.4444  1.1194  1.2019
17058TIP3   OH272664   2.309   4.940   0.079 -0.2265  0.1602  0.6246
17058TIP3    H172665   2.370   4.871   0.053  0.8073  1.0668  0.5952
17058TIP3    H272666   2.230   4.922   0.027  0.3408 -0.4676 -0.0476
17059TIP3   OH272667   2.355   2.438   0.638 -0.0124  1.0086 -0.0953
17059TIP3    H172668   2.410   2.508   0.674 -2.0834  3.1502 -0.8808
17059TIP3    H272669   2.358   2.451   0.544  0.9857 -1.1594 -0.4205
17060TIP3   OH272670   1.302   6.090  12.599  0.3526 -0.0331  0.4233
17060TIP3    H172671   1.293   6.002  12.561 -0.4323  0.3334 -0.2876
17060TIP3    H272672   1.316   6.075  12.692  1.1763 -0.9348  0.1701
17061TIP3   OH272673   4.063   3.751   4.237 -0.0395  0.0743  0.4461
17061TIP3    H172674   4.063   3.838   4.197  0.9340  0.7640  1.8534
17061TIP3    H272675   3.991   3.705   4.193  0.0862  1.2269 -1.0593
17062TIP3   OH272676   5.572   6.204   5.367  0.0771  0.0551  0.1305
17062TIP3    H172677   5.656   6.226   5.407  1.9268 -1.8348 -2.4184
17062TIP3    H272678   5.559   6.272   5.300  0.4109 -0.5564 -0.5631
17063TIP3   OH272679   5.473   3.179   0.874  0.2413  0.3473 -0.0700
17063TIP3    H172680   5.499   3.229   0.797  0.6009  0.2443 -0.0160
17063TIP3    H272681   5.396   3.225   0.907  0.9329  1.2428  0.3362
17064TIP3   OH272682   4.456   6.439   4.725 -0.0362  0.1489 -0.2043
17064TIP3    H172683   4.431   6.347   4.723  2.4147 -0.5788 -1.3843
17064TIP3    H272684   4.548   6.438   4.751 -0.2024  2.3569  0.6989
17065TIP3   OH272685   1.558   2.615  16.721 -0.2562  0.0446  0.0068
17065TIP3    H172686   1.559   2.521  16.737 -0.9084  0.1386  0.6436
17065TIP3    H272687   1.635   2.631  16.667  0.2768 -0.7431  0.5194
17066TIP3   OH272688   0.808   0.716   2.458  0.5003 -0.1473  0.5274
17066TIP3    H172689   0.760   0.785   2.504  1.3644 -0.1489  1.4655
17066TIP3    H272690   0.740   0.667   2.411 -0.1873  0.9626  0.3385
17067TIP3   OH272691   3.444   3.982   5.809 -0.0919  0.1031 -0.5394
17067TIP3    H172692   3.381   3.953   5.875 -0.9892  2.1367 -0.4254
17067TIP3    H272693   3.520   4.013   5.860  1.1625 -2.4764 -0.6795
17068TIP3   OH272694   4.694   5.315   3.139  0.2664  0.1271 -0.5173
17068TIP3    H172695   4.735   5.231   3.118  0.4225  0.5047 -1.8359
17068TIP3    H272696   4.738   5.344   3.218 -0.3833 -1.4256  0.4576
17069TIP3   OH272697   0.367   0.150   0.550  0.0106  0.0482  0.1858
17069TIP3    H172698   0.304   0.112   0.489  1.4723 -0.6888 -0.9395
17069TIP3    H272699   0.443   0.170   0.496  0.0813  2.6823  1.1423
17070TIP3   OH272700   0.567   0.381  14.997  0.4141  0.2550  0.0249
17070TIP3    H172701   0.575   0.475  14.980 -2.1022  0.0150 -3.4710
17070TIP3    H272702   0.648   0.344  14.961  1.1999  0.9879  0.9788
17071TIP3   OH272703   1.513   2.375  13.411  0.4449  0.1221 -0.0688
17071TIP3    H172704   1.464   2.306  13.368 -0.1656 -0.2441  1.1788
17071TIP3    H272705   1.588   2.391  13.353  0.0321 -0.8352 -0.8948
17072TIP3   OH272706   2.214   4.988   4.181  0.3537  0.2059 -0.4850
17072TIP3    H172707   2.295   4.977   4.231 -0.2863  0.0653  0.5481
17072TIP3    H272708   2.243   5.013   4.093  1.4912  1.5040  0.2211
17073TIP3   OH272709   4.328   6.206   1.439 -0.1481  0.1881  0.3100
17073TIP3    H172710   4.344   6.300   1.431 -1.0893  0.5224  1.9456
17073TIP3    H272711   4.244   6.200   1.484  0.4765 -1.4269  1.3281
17074TIP3   OH272712   5.090   2.772   4.993  0.1778  0.1100  0.2976
17074TIP3    H172713   5.076   2.692   5.043  0.8447 -1.7362 -2.2358
17074TIP3    H272714   5.038   2.839   5.038  0.0751 -1.5672  2.8462
17075TIP3   OH272715   0.545   1.945   4.839 -0.2653  0.5400 -0.5085
17075TIP3    H172716   0.507   1.858   4.837 -1.4558  1.0220  0.2896
17075TIP3    H272717   0.637   1.932   4.817 -0.7346 -0.7288 -1.8575
17076TIP3   OH272718   5.567   1.808  13.139 -0.4772 -0.6013 -0.3950
17076TIP3    H172719   5.574   1.728  13.191 -1.2097 -0.6722 -0.3927
17076TIP3    H272720   5.588   1.781  13.050  1.0365 -0.4283 -0.1179
17077TIP3   OH272721   6.176   1.164  12.329 -1.1490 -0.1625  0.4005
17077TIP3    H172722   6.101   1.219  12.350 -0.4309  0.7672  0.5569
17077TIP3    H272723   6.238   1.222  12.286  0.6709 -0.2104  2.7503
17078TIP3   OH272724   2.073   3.114  12.225  0.5841 -0.3153 -0.3444
17078TIP3    H172725   1.999   3.101  12.165  0.4333  1.7748 -0.6932
17078TIP3    H272726   2.036   3.099  12.312  0.0613 -0.4616 -0.5825
17079TIP3   OH272727   5.817   6.241   4.689 -0.6889  0.2522 -0.0471
17079TIP3    H172728   5.805   6.336   4.690 -0.1815  0.3175  0.3496
17079TIP3    H272729   5.900   6.227   4.735 -1.2889 -0.4527  0.8583
17080TIP3   OH272730   0.276   5.307   3.486  0.2895 -0.1313 -0.4819
17080TIP3    H172731   0.359   5.320   3.532  0.5116 -3.5549  0.3541
17080TIP3    H272732   0.297   5.324   3.394  1.1425  1.7989  0.0131
17081TIP3   OH272733   0.652   3.297  10.900 -0.4695 -0.2243  0.0858
17081TIP3    H172734   0.679   3.388  10.909  0.0546 -0.5267  2.0269
17081TIP3    H272735   0.591   3.283  10.973 -0.8385 -1.3342 -0.4103
17082TIP3   OH272736   2.720   2.838  17.161 -0.6278 -0.1666 -0.3935
17082TIP3    H172737   2.773   2.912  17.191  0.2126 -0.0677 -2.0426
17082TIP3    H272738   2.684   2.866  17.077 -2.3317 -0.7153  0.0977
17083TIP3   OH272739   1.966   0.284  14.196  0.0843  0.4500 -0.0478
17083TIP3    H172740   2.048   0.262  14.241  0.2696  1.3436  0.0864
17083TIP3    H272741   1.994   0.325  14.115 -0.1980  1.6585  0.4426
17084TIP3   OH272742   1.521   0.349  10.506 -0.2087  0.8923 -0.0348
17084TIP3    H172743   1.592   0.343  10.569 -1.5376  0.7368  1.4978
17084TIP3    H272744   1.450   0.394  10.553 -1.6020 -0.1388 -1.0601
17085TIP3   OH272745   4.145   4.239  11.674  0.0395 -0.2901 -0.4887
17085TIP3    H172746   4.088   4.286  11.735  0.7027 -0.3283  0.1705
17085TIP3    H272747   4.162   4.302  11.604  0.5130  0.2931  0.1371
17086TIP3   OH272748   4.071   3.061  17.036 -1.0946  0.4955  0.0880
17086TIP3    H172749   4.135   3.034  16.970  0.6715  1.0790  1.4634
17086TIP3    H272750   4.022   3.132  16.994 -1.1609 -0.2609 -1.1583
17087TIP3   OH272751   6.327   5.098  16.646  0.3666 -0.4428  0.0516
17087TIP3    H172752   6.397   5.038  16.674  2.7709  2.3156  0.3711
17087TIP3    H272753   6.347   5.118  16.555  0.1742  0.5965  0.2278
17088TIP3   OH272754   2.727   5.793   4.635 -0.1135  0.1088  0.3174
17088TIP3    H172755   2.755   5.866   4.581 -1.1512  1.6167  1.7244
17088TIP3    H272756   2.797   5.781   4.698  0.1619 -0.2796 -0.0578
17089TIP3   OH272757   2.905   2.885   4.010  0.4575  0.0224 -0.2855
17089TIP3    H172758   2.850   2.811   3.983  0.8730 -0.2536 -0.3848
17089TIP3    H272759   2.925   2.867   4.102  0.5128  0.0367 -0.2944
17090TIP3   OH272760   0.639   1.394   3.914 -0.3124  0.2048  0.1955
17090TIP3    H172761   0.715   1.414   3.860  0.8428 -0.2153  1.5980
17090TIP3    H272762   0.676   1.361   3.996 -2.0213 -0.5763  0.6976
17091TIP3   OH272763   4.167   6.662  15.432  0.1432 -0.3008  0.0396
17091TIP3    H172764   4.239   6.719  15.402 -0.6741  0.6999 -0.0805
17091TIP3    H272765   4.088   6.714  15.417 -0.5702 -1.2045  0.6006
17092TIP3   OH272766   2.733   0.061   0.326  0.0529  0.1973 -0.2272
17092TIP3    H172767   2.758   0.136   0.272 -0.7336 -0.7936 -2.0566
17092TIP3    H272768   2.803  -0.002   0.312 -0.1316 -0.0513 -0.0271
17093TIP3   OH272769   3.458   3.627   5.812 -0.2066 -0.1189 -0.0897
17093TIP3    H172770   3.504   3.708   5.836 -0.4027  0.5711 -1.9122
17093TIP3    H272771   3.487   3.563   5.877  3.0596  0.3659 -0.8897
17094TIP3   OH272772   4.058   3.405   5.625 -0.1966  0.2188  0.2191
17094TIP3    H172773   3.971   3.418   5.663  0.8489  1.7101  2.2625
17094TIP3    H272774   4.116   3.391   5.699  1.4775  0.1066 -1.0375
17095TIP3   OH272775   1.854   4.201   5.942  0.5852 -1.0918  0.3723
17095TIP3    H172776   1.788   4.270   5.946  0.6230 -1.0271 -0.0694
17095TIP3    H272777   1.914   4.229   5.873  0.8579 -1.3377  0.5103
17096TIP3   OH272778   4.580   6.212   5.628 -0.0885  0.5427 -0.2494
17096TIP3    H172779   4.541   6.124   5.622  1.3092 -0.0735 -0.7957
17096TIP3    H272780   4.577   6.233   5.721  1.1500 -0.8807  0.1637
17097TIP3   OH272781   3.837   1.551  13.719 -0.4566  0.4034  0.0936
17097TIP3    H172782   3.913   1.504  13.752  0.1020  0.9019 -0.4395
17097TIP3    H272783   3.768   1.485  13.715 -0.5722  0.3366  2.2381
17098TIP3   OH272784   3.728   2.597  17.108  0.3774  0.0424 -0.1097
17098TIP3    H172785   3.758   2.509  17.131 -0.5791  0.1276  1.6252
17098TIP3    H272786   3.809   2.647  17.097  0.9291 -0.9749 -0.8683
17099TIP3   OH272787   5.023   1.301   2.376  0.4719 -0.4424  0.3065
17099TIP3    H172788   4.968   1.288   2.453 -0.4507  0.7519 -0.1243
17099TIP3    H272789   4.968   1.274   2.303  1.3248 -1.5197  0.0248
17100TIP3   OH272790   3.676   5.221  17.233 -0.5033 -0.0237 -0.2054
17100TIP3    H172791   3.734   5.146  17.245 -0.9976 -0.0980  2.3277
17100TIP3    H272792   3.706   5.263  17.153  0.8409 -1.9750 -0.7820
17101TIP3   OH272793   1.004   2.771   1.787  0.1136 -0.6236 -0.2979
17101TIP3    H172794   0.919   2.741   1.820  0.5746 -1.2070  0.3827
17101TIP3    H272795   1.032   2.837   1.851 -0.3730  0.4568 -1.1749
17102TIP3   OH272796   2.234   5.626  15.687 -0.3188  0.0683 -0.5821
17102TIP3    H172797   2.242   5.563  15.759  0.3238  0.2166 -0.5193
17102TIP3    H272798   2.145   5.613  15.653 -0.1380 -0.9736 -0.6690
17103TIP3   OH272799   3.462   2.429  16.063  0.8358  0.7617  0.0610
17103TIP3    H172800   3.548   2.464  16.036  0.3198  2.1175  0.1018
17103TIP3    H272801   3.437   2.483  16.138  0.6592 -0.6928  1.0872
17104TIP3   OH272802   1.467   0.046  11.379  0.1378 -0.2646 -0.1809
17104TIP3    H172803   1.433   0.102  11.449 -0.1671  0.7394 -1.1103
17104TIP3    H272804   1.556   0.025  11.405  0.0531  0.1684  0.4673
17105TIP3   OH272805   0.070   5.628   0.033 -0.1417  0.0026 -0.4993
17105TIP3    H172806   0.051   5.534   0.029 -0.4520  0.0675 -0.5485
17105TIP3    H272807   0.136   5.642  -0.035  1.8206 -0.6296  1.1693
17106TIP3   OH272808   2.875   0.006  13.803  0.1664 -0.3480  0.3916
17106TIP3    H172809   2.857   0.065  13.876 -0.7866 -1.3343  0.9817
17106TIP3    H272810   2.893  -0.079  13.844  2.0458 -0.3970 -0.4124
17107TIP3   OH272811   5.031   0.330  10.931  0.2064  0.1442  0.7504
17107TIP3    H172812   4.964   0.337  10.863 -0.4643  2.7271  1.5575
17107TIP3    H272813   5.114   0.335  10.884 -0.1591 -1.4278 -0.1154
17108TIP3   OH272814   1.642   4.385   3.711 -0.0944  0.0901  0.4490
17108TIP3    H172815   1.591   4.320   3.662 -0.9483  0.9900  0.0953
17108TIP3    H272816   1.580   4.421   3.774  1.0900 -1.3359  2.5636
17109TIP3   OH272817   2.306   4.969   2.409  0.4470  0.4441  0.0883
17109TIP3    H172818   2.369   4.963   2.336  0.5718  2.6870 -0.0547
17109TIP3    H272819   2.340   5.041   2.463 -1.2801  0.8195  0.7140
17110TIP3   OH272820   2.415   3.905   3.870 -0.7676 -0.0892 -0.0277
17110TIP3    H172821   2.508   3.884   3.879 -0.6363 -1.7127 -3.5358
17110TIP3    H272822   2.414   3.998   3.846 -0.0115 -0.1456 -0.3100
17111TIP3   OH272823   4.861   1.521  11.160  1.1450 -0.3735 -0.9323
17111TIP3    H172824   4.873   1.505  11.067  0.6049  0.2624 -1.1288
17111TIP3    H272825   4.848   1.435  11.198  1.7882 -0.6708 -1.3823
17112TIP3   OH272826   3.080   2.219   2.338 -0.2116 -0.8078  0.1133
17112TIP3    H172827   3.167   2.235   2.374 -0.2509  1.8007 -0.7829
17112TIP3    H272828   3.022   2.228   2.414  0.0708  0.3987  0.2089
17113TIP3   OH272829   1.315   4.596   5.422 -0.0541  0.4856 -0.0639
17113TIP3    H172830   1.251   4.658   5.387 -1.3517 -1.2104 -0.8565
17113TIP3    H272831   1.262   4.530   5.468  1.3678  0.6995  2.0234
17114TIP3   OH272832   6.063   0.065  14.976 -0.0861  0.1634 -0.3461
17114TIP3    H172833   6.106  -0.011  14.936 -2.7449 -0.2277 -2.7917
17114TIP3    H272834   6.128   0.135  14.971  1.4798 -1.2472 -0.5476
17115TIP3   OH272835   5.624   1.463  13.377 -0.7507  0.2456 -0.1707
17115TIP3    H172836   5.678   1.461  13.298  0.5248 -1.1059  0.6642
17115TIP3    H272837   5.573   1.382  13.374  2.0536 -1.8385  2.0661
17116TIP3   OH272838   0.239   3.489   5.432 -0.1449 -0.5198  0.3542
17116TIP3    H172839   0.328   3.523   5.423 -0.3414  0.2110  1.0873
17116TIP3    H272840   0.251   3.395   5.447  0.7805  0.0735  4.4946
17117TIP3   OH272841   5.154   1.359  11.575 -0.0638 -0.2559 -0.3829
17117TIP3    H172842   5.091   1.311  11.630 -0.1916  1.1745  0.7999
17117TIP3    H272843   5.235   1.358  11.627 -0.4613  1.9802  0.3757
17118TIP3   OH272844   3.468   4.077   4.165  0.2112 -0.0514  0.1109
17118TIP3    H172845   3.485   4.033   4.082 -1.9031  0.1308 -0.4777
17118TIP3    H272846   3.376   4.057   4.185  0.5877  0.1096  2.2984
17119TIP3   OH272847   2.797   3.668  15.769  0.0713 -0.6744  0.8317
17119TIP3    H172848   2.858   3.658  15.842  1.0421  1.4897  0.3771
17119TIP3    H272849   2.850   3.703  15.698 -0.9956 -2.1201 -0.7635
17120TIP3   OH272850   2.240   2.402   2.792 -0.4467 -0.6352  0.2043
17120TIP3    H172851   2.259   2.341   2.864  1.7093  0.4035  0.5706
17120TIP3    H272852   2.205   2.346   2.723  0.3043 -2.1251  0.9754
17121TIP3   OH272853   0.183   3.990  12.921 -0.3159  0.8394 -0.1092
17121TIP3    H172854   0.134   3.936  12.983  1.0519  0.1642  0.4228
17121TIP3    H272855   0.132   4.071  12.915 -1.7390 -0.0030  0.0379
17122TIP3   OH272856   5.743   4.945   1.903  0.3010 -0.0235 -0.2546
17122TIP3    H172857   5.662   4.914   1.862  0.5838  1.3003 -1.9250
17122TIP3    H272858   5.714   5.013   1.965  0.0803 -0.0659 -0.3108
17123TIP3   OH272859   0.092   3.974  11.294 -0.1873 -0.7091  0.1750
17123TIP3    H172860   0.127   4.034  11.229 -0.3565  0.7321  1.3628
17123TIP3    H272861   0.086   4.026  11.374 -1.2316 -2.0512  1.0175
17124TIP3   OH272862   1.829   4.131  14.954 -0.3954 -0.3168  0.0279
17124TIP3    H172863   1.798   4.052  14.999 -1.1333  0.6723  1.3358
17124TIP3    H272864   1.824   4.110  14.861  1.8515 -2.7051  0.3218
17125TIP3   OH272865   4.954   3.443   0.976 -0.4370  0.2057 -0.6311
17125TIP3    H172866   4.910   3.468   1.057  1.4976  0.4643  0.4079
17125TIP3    H272867   5.045   3.429   1.002  0.3254  0.6895 -2.8430
17126TIP3   OH272868   5.341   2.090   5.734 -0.4224 -0.0751  0.1532
17126TIP3    H172869   5.355   2.036   5.811 -0.6381  0.6923  0.7419
17126TIP3    H272870   5.267   2.146   5.757  1.2489  2.1484  0.5188
17127TIP3   OH272871   4.238   6.234   0.743 -0.0788 -0.0943  0.2550
17127TIP3    H172872   4.148   6.212   0.766  0.0807 -0.8576  0.1584
17127TIP3    H272873   4.257   6.182   0.665  0.9836 -1.2043  1.2216
17128TIP3   OH272874   3.885   6.745  15.306  0.2863  0.6570  0.3275
17128TIP3    H172875   3.832   6.681  15.259  0.9248  0.6296 -0.3687
17128TIP3    H272876   3.849   6.746  15.395 -0.6977  0.4428 -0.0620
17129TIP3   OH272877   1.336   1.564  14.429 -0.2320 -0.2007  0.3595
17129TIP3    H172878   1.411   1.588  14.375  0.0925  0.7940  1.2179
17129TIP3    H272879   1.371   1.505  14.495 -0.7403 -1.8934 -0.8204
17130TIP3   OH272880   5.352   4.904  15.445 -0.3969 -0.4516  0.2422
17130TIP3    H172881   5.311   4.822  15.471  0.2235 -0.6913  0.4548
17130TIP3    H272882   5.305   4.971  15.496  1.0686 -0.9396  2.3424
17131TIP3   OH272883   1.323   0.473  15.484  0.4774 -0.3192  0.3306
17131TIP3    H172884   1.276   0.553  15.506  1.1290 -0.1857  1.3154
17131TIP3    H272885   1.381   0.498  15.413  0.0461 -0.1447  0.0344
17132TIP3   OH272886   1.235   0.019  10.636 -0.1464 -0.5269 -0.2329
17132TIP3    H172887   1.149   0.060  10.635 -0.8353 -1.9245 -0.5150
17132TIP3    H272888   1.264   0.025  10.728 -0.3181  0.3812 -0.2336
17133TIP3   OH272889   5.493   0.529   3.157 -1.0662  0.2172 -0.2733
17133TIP3    H172890   5.420   0.502   3.102 -1.4053  0.9953 -0.2112
17133TIP3    H272891   5.570   0.492   3.113 -1.5358 -1.1932  0.0317
17134TIP3   OH272892   1.177   4.682  17.178  0.0509 -0.0826  0.0091
17134TIP3    H172893   1.151   4.660  17.268 -0.2570  2.6570  0.6727
17134TIP3    H272894   1.272   4.673  17.178  0.1417  0.7717  0.8873
17135TIP3   OH272895   3.580   0.625  16.049  0.0672  0.2721 -0.2540
17135TIP3    H172896   3.619   0.567  16.114  1.8398  0.6556 -0.9097
17135TIP3    H272897   3.526   0.567  15.995 -0.2718 -0.2895  0.6637
17136TIP3   OH272898   5.268   1.024   6.445  0.4470 -0.1599 -0.1935
17136TIP3    H172899   5.336   1.091   6.455  0.6213 -0.3950  0.2171
17136TIP3    H272900   5.268   0.978   6.529 -0.0448 -0.3278 -0.2869
17137TIP3   OH272901   5.758   3.862   0.234  0.3160  0.5104 -0.0763
17137TIP3    H172902   5.836   3.847   0.287  0.4790  0.6911 -0.2621
17137TIP3    H272903   5.696   3.795   0.263  1.7326 -2.0307 -2.3362
17138TIP3   OH272904   4.344   3.876  11.497 -0.0396 -0.3636 -0.1371
17138TIP3    H172905   4.422   3.877  11.552 -0.5424 -2.3977  0.7100
17138TIP3    H272906   4.328   3.783  11.480 -0.4610  0.1258 -2.9666
17139TIP3   OH272907   0.450   4.162  16.606 -0.2337 -0.5101  0.7373
17139TIP3    H172908   0.469   4.211  16.685  2.9870 -0.6063  0.1694
17139TIP3    H272909   0.390   4.093  16.634  0.7892 -0.5363  3.1079
17140TIP3   OH272910   1.498   1.225  14.076  0.7338  0.3817 -0.3537
17140TIP3    H172911   1.492   1.185  13.990 -2.1019  0.2623 -0.1877
17140TIP3    H272912   1.549   1.164  14.129  2.1941  0.2925 -1.8131
17141TIP3   OH272913   1.155   2.931  10.751  0.5630  0.3708 -0.6462
17141TIP3    H172914   1.216   2.879  10.698 -0.0376 -0.5742 -0.4293
17141TIP3    H272915   1.069   2.900  10.725  0.2303  0.5285  0.2417
17142TIP3   OH272916   0.039   3.311   5.232  0.0532 -0.0794  0.4614
17142TIP3    H172917   0.130   3.282   5.227 -0.4892 -1.6236 -2.5029
17142TIP3    H272918  -0.008   3.239   5.273 -0.2463 -0.5692 -0.7033
17143TIP3   OH272919   4.249   4.923  12.840 -0.6542 -0.1046 -0.3414
17143TIP3    H172920   4.310   4.850  12.854 -1.1571 -0.2298  1.3300
17143TIP3    H272921   4.244   4.967  12.925 -1.4177  1.0645 -0.9680
17144TIP3   OH272922   0.744   6.066  14.348 -0.0503 -0.2413 -0.1741
17144TIP3    H172923   0.772   6.093  14.260 -1.6617  0.7343 -0.4333
17144TIP3    H272924   0.688   5.991  14.332  0.8470 -0.9988  0.1735
17145TIP3   OH272925   5.914   4.876   1.517 -0.3824 -0.5193  0.7330
17145TIP3    H172926   5.955   4.888   1.603 -0.6564 -0.5346  0.8664
17145TIP3    H272927   5.820   4.877   1.535 -0.5446  1.9997  0.1220
17146TIP3   OH272928   4.843   6.209  14.945 -0.1230 -0.3647 -0.2706
17146TIP3    H172929   4.757   6.167  14.943 -0.1857 -0.2058 -1.4118
17146TIP3    H272930   4.827   6.294  14.986 -1.0415  0.7360 -2.7005
17147TIP3   OH272931   5.850   6.775   5.327  0.0330  0.1302 -0.4086
17147TIP3    H172932   5.770   6.737   5.364 -1.7755  2.4541 -1.6700
17147TIP3    H272933   5.919   6.716   5.355 -2.1580 -2.2728  0.3590
17148TIP3   OH272934   3.430   4.787  16.087 -0.2699  0.4339 -0.0434
17148TIP3    H172935   3.370   4.838  16.141 -0.8550 -1.3139  1.0766
17148TIP3    H272936   3.375   4.720  16.047  0.9924 -2.0576  2.0569
17149TIP3   OH272937   3.067   2.864  14.967  0.1109  0.1846  0.2605
17149TIP3    H172938   2.987   2.848  15.017  0.5497 -1.9406  0.3559
17149TIP3    H272939   3.089   2.780  14.928  1.0306  1.2567 -1.7215
17150TIP3   OH272940   0.890   1.996   0.384  0.3809 -0.3080  0.3766
17150TIP3    H172941   0.816   1.962   0.433  0.7785 -0.8012  0.6428
17150TIP3    H272942   0.866   1.984   0.292  0.1455 -0.4889  0.4629
17151TIP3   OH272943   3.680   5.355   3.081 -0.2889 -0.1354  0.0865
17151TIP3    H172944   3.752   5.356   3.145  0.6766  2.3728 -0.8919
17151TIP3    H272945   3.716   5.310   3.005 -0.0005  0.3976 -0.1021
17152TIP3   OH272946   5.313   5.070   2.069  0.0069  0.3778 -0.7608
17152TIP3    H172947   5.318   5.095   2.161  1.5146  1.6865 -1.1491
17152TIP3    H272948   5.233   5.113   2.037  0.6485  1.8087 -0.5472
17153TIP3   OH272949   4.620   3.734  16.243  0.1710  0.1138  0.1371
17153TIP3    H172950   4.715   3.740  16.241  0.2951 -0.5369  2.1086
17153TIP3    H272951   4.601   3.687  16.324 -1.8819  1.3656  0.4517
17154TIP3   OH272952   2.486   2.424  16.134  0.0105 -0.1393 -0.3601
17154TIP3    H172953   2.517   2.360  16.069 -0.3923 -1.2127  0.4811
17154TIP3    H272954   2.520   2.392  16.217 -2.0979 -0.5455  0.4011
17155TIP3   OH272955   6.312   6.294   5.219 -0.0314  0.1777  0.4056
17155TIP3    H172956   6.345   6.304   5.130  1.1022 -0.5719  0.7178
17155TIP3    H272957   6.232   6.243   5.209  0.0958  0.0828 -0.1876
17156TIP3   OH272958   6.492   4.096  13.533 -0.2882 -0.1547 -0.2100
17156TIP3    H172959   6.565   4.086  13.594 -0.2589 -0.0856 -0.2336
17156TIP3    H272960   6.510   4.033  13.463 -0.2778 -0.1737 -0.1901
17157TIP3   OH272961   2.456   2.177  12.574 -0.2715 -0.1263 -0.3933
17157TIP3    H172962   2.542   2.197  12.611 -0.2307 -1.4989  0.3108
17157TIP3    H272963   2.402   2.253  12.596  0.2660 -0.0744  0.8228
17158TIP3   OH272964   6.168   5.760   0.897 -0.5145  0.0303  0.1990
17158TIP3    H172965   6.140   5.719   0.815  0.0395 -1.0142  0.5155
17158TIP3    H272966   6.236   5.822   0.870 -1.6493  1.0909 -0.3327
17159TIP3   OH272967   3.595   5.035  13.852 -0.2756 -0.2664 -0.7511
17159TIP3    H172968   3.682   5.061  13.882 -0.3802 -1.4371  0.6774
17159TIP3    H272969   3.597   4.939  13.853 -2.0030 -0.3424  0.6900
17160TIP3   OH272970   6.794   2.805  17.083  0.4320  0.6263  0.0228
17160TIP3    H172971   6.721   2.866  17.095 -0.7197 -0.3017 -1.8622
17160TIP3    H272972   6.755   2.729  17.041  2.4923  0.0986 -1.0614
17161TIP3   OH272973   4.231   4.573  16.792  0.5783 -0.7742  0.5028
17161TIP3    H172974   4.171   4.527  16.734 -0.2770  0.7391  0.1402
17161TIP3    H272975   4.291   4.619  16.733 -0.6626  1.2544  0.7361
17162TIP3   OH272976   2.225   1.984  17.092  0.1149  0.5408  0.4066
17162TIP3    H172977   2.211   2.070  17.053 -0.5582 -0.3573 -1.4298
17162TIP3    H272978   2.141   1.939  17.081  1.3452 -1.4577 -1.6568
17163TIP3   OH272979   3.405   0.734   1.757  0.4575 -0.2683 -0.2716
17163TIP3    H172980   3.438   0.732   1.667 -0.3355  0.5092 -0.5921
17163TIP3    H272981   3.478   0.702   1.810  1.2016  0.0098 -1.1073
17164TIP3   OH272982   0.216   1.072  16.739 -0.5500  0.0593 -0.2384
17164TIP3    H172983   0.236   1.142  16.801  1.4448 -0.2431 -0.4567
17164TIP3    H272984   0.296   1.062  16.687 -1.8559 -0.2690 -2.3183
17165TIP3   OH272985   0.861   5.724   3.938  0.2141 -0.0155 -0.4580
17165TIP3    H172986   0.949   5.756   3.955  0.4459 -1.2170  0.7923
17165TIP3    H272987   0.873   5.653   3.874  0.3273 -1.0229  0.6547
17166TIP3   OH272988   5.705   6.512   6.575 -0.0170 -0.1816  0.1581
17166TIP3    H172989   5.707   6.434   6.518 -0.4963  1.1385 -1.7563
17166TIP3    H272990   5.795   6.521   6.606  1.6122  1.6863 -4.2941
17167TIP3   OH272991   5.724   0.932   5.081  0.5856 -0.0191 -0.8461
17167TIP3    H172992   5.780   0.867   5.039 -0.0214 -0.7078 -0.6004
17167TIP3    H272993   5.724   0.908   5.174  0.2700  0.2703 -0.7689
17168TIP3   OH272994   4.848   0.992  14.800 -0.2329 -0.0570  0.7626
17168TIP3    H172995   4.766   0.950  14.825 -0.6059  1.9094  3.2547
17168TIP3    H272996   4.822   1.068  14.748  0.1670 -0.5115 -0.1277
17169TIP3   OH272997   4.448   0.754   0.874  0.1885  0.0613 -0.3056
17169TIP3    H172998   4.463   0.734   0.781 -0.8630 -0.5505 -0.3619
17169TIP3    H272999   4.366   0.709   0.894  1.4321 -1.5774  1.4664
17170TIP3   OH273000   2.848   0.438  16.962  0.2098  0.0608  0.1872
17170TIP3    H173001   2.865   0.355  16.917 -1.3493 -1.9905  3.0609
17170TIP3    H273002   2.757   0.432  16.990 -0.4698  3.5123 -0.8070
17171TIP3   OH273003   0.350   3.649   1.188  0.2464 -0.5078  0.5685
17171TIP3    H173004   0.379   3.566   1.226  1.3729  0.4568  1.9104
17171TIP3    H273005   0.431   3.690   1.155 -0.3640 -0.1544 -0.5630
17172TIP3   OH273006   4.912   1.684   0.823 -0.1348 -0.1632  0.4868
17172TIP3    H173007   4.827   1.727   0.824  0.8111  1.8321  0.0764
17172TIP3    H273008   4.955   1.719   0.745  1.0854 -1.0915  0.7176
17173TIP3   OH273009   4.614   5.983  13.038  0.1802 -0.2227  0.2185
17173TIP3    H173010   4.622   5.891  13.063  0.7976 -0.4028 -0.6156
17173TIP3    H273011   4.553   5.982  12.964 -0.8230  0.1945  1.0113
17174TIP3   OH273012   1.844   4.750  11.739 -0.1001  0.3031 -0.5533
17174TIP3    H173013   1.766   4.805  11.742 -0.3494  0.1457 -2.4219
17174TIP3    H273014   1.914   4.809  11.711  0.6704  0.6011  1.7947
17175TIP3   OH273015   3.348   5.748   2.393 -0.0111 -0.5114  0.1292
17175TIP3    H173016   3.400   5.799   2.456  0.2673  0.8559 -1.1562
17175TIP3    H273017   3.413   5.708   2.335 -0.3167 -0.3415 -0.3373
17176TIP3   OH273018   1.821   6.432  12.816 -0.5976  0.4675  0.1058
17176TIP3    H173019   1.799   6.480  12.895  1.7397  1.6561  0.1106
17176TIP3    H273020   1.790   6.487  12.744  1.3585  1.6906  0.1342
17177TIP3   OH273021   3.727   5.719   0.015 -0.6541 -0.1464  0.3662
17177TIP3    H173022   3.691   5.807   0.005  2.9310  1.4888  0.0186
17177TIP3    H273023   3.755   5.715   0.107  0.2643 -0.4076  0.0870
17178TIP3   OH273024   3.960   6.107  12.603 -0.3406 -0.6419  0.4306
17178TIP3    H173025   4.000   6.189  12.633 -0.3405  0.2725 -1.8543
17178TIP3    H273026   3.976   6.045  12.675  0.3632  1.1226  1.8880
17179TIP3   OH273027   4.016   0.151  16.290 -0.3420 -0.7665 -0.6469
17179TIP3    H173028   4.021   0.117  16.201  1.9478 -0.9806 -0.4962
17179TIP3    H273029   4.025   0.246  16.279 -2.1036 -0.5967 -0.7592
17180TIP3   OH273030   0.549   2.376   1.232  0.2816 -0.2011  0.3170
17180TIP3    H173031   0.592   2.425   1.302 -0.5071 -1.1162  1.4874
17180TIP3    H273032   0.608   2.384   1.157  0.9527  1.1347  0.9642
17181TIP3   OH273033   2.636   0.942   0.640  0.5196  0.2187 -0.2262
17181TIP3    H173034   2.589   0.947   0.723 -1.2361 -0.0179 -1.1555
17181TIP3    H273035   2.614   1.023   0.595  2.0751  0.6971 -0.1800
17182TIP3   OH273036   3.829   2.533   1.841  0.4340  0.4568 -0.4411
17182TIP3    H173037   3.908   2.565   1.796  0.0410  0.2502 -1.2902
17182TIP3    H273038   3.757   2.553   1.781  0.0442 -0.9581 -0.4743
17183TIP3   OH273039   0.866   1.455   3.232 -0.2459 -0.5906  0.3420
17183TIP3    H173040   0.897   1.534   3.188  1.1383 -0.0580  2.1266
17183TIP3    H273041   0.817   1.408   3.165  0.8073  0.6765 -1.4273
17184TIP3   OH273042   1.009   0.454   3.639  0.6736  0.0421  0.4411
17184TIP3    H173043   1.099   0.461   3.670  0.4655  2.2248  0.7140
17184TIP3    H273044   0.977   0.544   3.637 -1.4409 -0.6522  0.1333
17185TIP3   OH273045   4.646   5.879  10.956  0.1422 -0.2367  0.4905
17185TIP3    H173046   4.623   5.816  11.025  2.4034  1.2243  2.7715
17185TIP3    H273047   4.577   5.945  10.959 -0.4715 -0.8663  0.4188
17186TIP3   OH273048   4.666   4.921   1.448 -0.1587  0.5184 -0.3856
17186TIP3    H173049   4.721   4.976   1.392 -0.8169 -0.3576 -1.9548
17186TIP3    H273050   4.680   4.955   1.536  1.6962  1.3058 -0.9388
17187TIP3   OH273051   4.832   4.705   2.604 -0.1942  0.0626  0.0531
17187TIP3    H173052   4.807   4.740   2.518  0.3547  0.4064  0.0213
17187TIP3    H273053   4.921   4.739   2.617 -0.2930  0.0455  0.7744
17188TIP3   OH273054   3.465   5.692   2.883 -0.2281 -0.2868 -1.0490
17188TIP3    H173055   3.436   5.625   2.945 -0.1462  0.9845  0.4160
17188TIP3    H273056   3.386   5.714   2.833 -0.7617 -0.0120 -0.1121
17189TIP3   OH273057   6.095   5.047  17.047  0.0713 -0.5592 -0.2952
17189TIP3    H173058   6.048   5.124  17.016 -0.6932 -0.7545  0.3455
17189TIP3    H273059   6.187   5.065  17.027  0.1568  1.3320  1.4351
17190TIP3   OH273060   3.095   4.476   4.948 -0.2098 -0.1496  0.5946
17190TIP3    H173061   3.138   4.391   4.952  3.4181  1.2872 -2.1040
17190TIP3    H273062   3.011   4.459   4.908 -0.0422 -2.5589  1.1445
17191TIP3   OH273063   2.090   2.344  15.463 -0.3998  0.2814 -0.4108
17191TIP3    H173064   2.017   2.326  15.404  0.2033 -1.3271 -0.7152
17191TIP3    H273065   2.168   2.322  15.412  0.3007  1.6613  0.0193
17192TIP3   OH273066   4.755   3.178  11.970  0.5669 -0.2446  0.2588
17192TIP3    H173067   4.782   3.237  12.040  0.8014  0.0955 -0.1112
17192TIP3    H273068   4.759   3.091  12.009 -1.5868  0.1010  1.3928
17193TIP3   OH273069   1.123   2.799   5.073 -0.0772  0.0795  0.0767
17193TIP3    H173070   1.209   2.758   5.061 -0.5399 -0.5460 -1.3450
17193TIP3    H273071   1.061   2.726   5.071 -0.6209  0.4505  1.7752
17194TIP3   OH273072   5.968   4.468   4.748  0.3140 -0.7717  0.5583
17194TIP3    H173073   5.948   4.444   4.839 -1.1755  0.8882  0.7324
17194TIP3    H273074   5.882   4.487   4.710  0.9942 -0.6738 -0.9768
17195TIP3   OH273075   6.296   4.696  16.583 -0.1255 -0.4524 -0.0929
17195TIP3    H173076   6.376   4.724  16.537 -1.4224  0.7388 -1.7608
17195TIP3    H273077   6.279   4.764  16.647  0.4395 -0.9577  0.6102
17196TIP3   OH273078   5.184   2.002  11.013 -0.2307 -0.0053 -0.0905
17196TIP3    H173079   5.150   2.088  10.991  0.0272 -0.1162 -0.9627
17196TIP3    H273080   5.279   2.010  11.003 -0.0911 -0.0420  1.0882
17197TIP3   OH273081   5.733   0.140  16.745 -0.0453  0.7100 -0.3261
17197TIP3    H173082   5.803   0.075  16.743 -0.6379 -0.0133  1.2494
17197TIP3    H273083   5.771   0.216  16.789  0.1322  0.8147 -0.6544
17198TIP3   OH273084   3.927   4.675  11.445  0.1601  0.2506  0.5193
17198TIP3    H173085   3.998   4.622  11.480 -0.6406 -1.3514 -0.1916
17198TIP3    H273086   3.890   4.720  11.521  0.6551 -0.4482  1.1835
17199TIP3   OH273087   4.108   3.254  11.909 -0.2433 -0.1231  0.4272
17199TIP3    H173088   4.114   3.342  11.946 -1.4576  0.2587 -0.2080
17199TIP3    H273089   4.117   3.267  11.814 -0.3661 -0.6786  0.3342
17200TIP3   OH273090   5.956   5.076   1.064  0.8148  0.0985 -0.3907
17200TIP3    H173091   5.963   5.170   1.049 -1.4065  0.5589  0.9548
17200TIP3    H273092   5.882   5.049   1.009  0.0773 -0.4087  0.8119
17201TIP3   OH273093   0.366   6.062   2.961  0.4188 -0.5764 -0.2413
17201TIP3    H173094   0.413   6.134   3.002  0.5089 -0.8673  0.1685
17201TIP3    H273095   0.433   6.012   2.914  0.4420 -0.7009 -0.0770
17202TIP3   OH273096   3.531   5.715   5.145 -0.8109 -0.1835 -0.4750
17202TIP3    H173097   3.611   5.762   5.167 -0.7277 -0.8075  0.5826
17202TIP3    H273098   3.536   5.633   5.195 -1.3332 -0.9686 -1.6583
17203TIP3   OH273099   0.240   6.307  14.114 -0.2016  0.4191  0.9418
17203TIP3    H173100   0.266   6.349  14.032 -1.4483  0.0666  0.3523
17203TIP3    H273101   0.323   6.294  14.161  0.5166  0.7411 -0.1940
17204TIP3   OH273102   3.556   4.103  16.952 -0.3880  0.4562 -0.2896
17204TIP3    H173103   3.633   4.048  16.938 -0.0021  0.8196  0.3526
17204TIP3    H273104   3.502   4.088  16.874  0.8036  0.9956 -1.2651
17205TIP3   OH273105   3.227   5.426  11.739 -0.3876  0.3339 -0.2855
17205TIP3    H173106   3.208   5.478  11.817 -0.5826 -0.2811  0.0840
17205TIP3    H273107   3.149   5.435  11.685 -1.1502 -0.9532  0.5487
17206TIP3   OH273108   5.513   0.439   2.722  0.3109 -0.5999 -0.0083
17206TIP3    H173109   5.481   0.355   2.689  0.3043 -0.2939 -0.8183
17206TIP3    H273110   5.455   0.460   2.795 -1.3015 -0.1209 -1.3642
17207TIP3   OH273111   3.256   5.327  14.755  0.5185 -0.4115 -0.3772
17207TIP3    H173112   3.247   5.313  14.661 -1.8106 -0.8597 -0.1381
17207TIP3    H273113   3.350   5.322  14.771  0.8079 -3.0220 -2.2941
17208TIP3   OH273114   4.932   5.972   6.623  0.1245  0.7785 -0.1133
17208TIP3    H173115   4.849   6.006   6.658 -1.0621 -0.6568 -1.3575
17208TIP3    H273116   4.987   5.959   6.700 -1.7288 -0.5521  1.0986
17209TIP3   OH273117   4.180   5.766  10.840  0.2689 -0.7316  0.0963
17209TIP3    H173118   4.236   5.765  10.917 -0.6531  0.9918  0.8507
17209TIP3    H273119   4.092   5.753  10.875 -0.1330 -0.2070 -0.6947
17210TIP3   OH273120   4.706   4.806  14.957  0.4845 -0.3492  0.1103
17210TIP3    H173121   4.638   4.796  15.023  0.9175 -1.6150  0.3941
17210TIP3    H273122   4.718   4.900  14.950  1.9785 -0.1217  3.4921
17211TIP3   OH273123   3.198   1.746   3.350 -0.4164 -0.3764 -0.2585
17211TIP3    H173124   3.216   1.697   3.270  0.4220  0.9020 -0.8805
17211TIP3    H273125   3.108   1.722   3.373  0.4072 -3.2833  0.2896
17212TIP3   OH273126   0.803   1.499   1.016  0.5124  0.2906  0.0408
17212TIP3    H173127   0.768   1.423   0.970  0.8423  0.0173  0.2313
17212TIP3    H273128   0.865   1.538   0.954 -0.8353  1.3482 -0.6740
17213TIP3   OH273129   2.504   5.137   1.573 -0.3113  0.2578 -0.6897
17213TIP3    H173130   2.592   5.130   1.536 -1.1388  1.0228 -3.0072
17213TIP3    H273131   2.463   5.053   1.552 -0.6409  0.5154 -1.0753
17214TIP3   OH273132   6.094   1.952   4.698  0.1175 -0.0558  0.2379
17214TIP3    H173133   6.011   1.930   4.657  0.1212 -0.4169  0.4277
17214TIP3    H273134   6.089   1.916   4.786  0.7299 -0.6545  0.0365
17215TIP3   OH273135   5.827   4.376   4.981  0.3292 -0.3076  0.7542
17215TIP3    H173136   5.778   4.320   4.921  1.7044 -0.0086 -0.7309
17215TIP3    H273137   5.863   4.315   5.046 -0.3543 -0.7720  0.7109
17216TIP3   OH273138   3.533   1.912  14.564 -0.5718 -0.8287 -0.3985
17216TIP3    H173139   3.495   1.866  14.490  0.2397  0.7936 -1.9057
17216TIP3    H273140   3.560   1.843  14.624 -0.0198 -2.2968 -2.2393
17217TIP3   OH273141   1.074   6.237  12.215  0.1708  0.1156 -0.2975
17217TIP3    H173142   1.119   6.321  12.220 -0.4774  0.6425 -2.2979
17217TIP3    H273143   1.033   6.237  12.129 -0.9530 -1.7109  0.1766
17218TIP3   OH273144   6.634   5.536  13.175 -0.1969  0.4879  0.1238
17218TIP3    H173145   6.546   5.528  13.210  0.3385  1.7812  1.8718
17218TIP3    H273146   6.636   5.473  13.103 -3.0282  1.5129 -1.0205
17219TIP3   OH273147   0.462   4.441  10.807 -0.0744 -0.0754  0.3992
17219TIP3    H173148   0.535   4.407  10.859 -0.7925 -1.4038  0.5865
17219TIP3    H273149   0.404   4.366  10.796  0.7621 -0.3773 -3.6880
17220TIP3   OH273150   0.256   6.326   5.659  0.9274  0.1091  0.2917
17220TIP3    H173151   0.270   6.372   5.742  0.6462  0.4861  0.1326
17220TIP3    H273152   0.163   6.306   5.657  0.8826  0.3370 -0.0517
17221TIP3   OH273153   5.158   3.570   4.285  0.9697  0.0873 -0.1911
17221TIP3    H173154   5.097   3.597   4.217  0.7954  3.3309  1.0596
17221TIP3    H273155   5.103   3.541   4.357  0.9315  1.1519  0.2268
17222TIP3   OH273156   0.708   6.699  16.344 -0.5907 -0.7635 -0.0042
17222TIP3    H173157   0.697   6.746  16.426 -0.1996 -0.7477  0.0421
17222TIP3    H273158   0.642   6.630  16.347 -0.6890 -0.6599  0.2467
17223TIP3   OH273159   5.954   4.074  16.137  0.0030  0.1582  0.4017
17223TIP3    H173160   5.985   4.163  16.127  0.1796  0.5256  3.4028
17223TIP3    H273161   5.880   4.080  16.197  1.0590 -1.8261  2.0555
17224TIP3   OH273162   0.911   5.224   4.678 -0.4183 -0.4063 -0.0397
17224TIP3    H173163   0.822   5.245   4.705 -0.0338 -0.6367  1.4778
17224TIP3    H273164   0.902   5.194   4.587 -1.6942  0.8333 -0.3724
17225TIP3   OH273165   1.210   1.453   1.565  0.1858 -0.2577  0.0262
17225TIP3    H173166   1.290   1.400   1.573 -0.1935 -0.8795 -0.2147
17225TIP3    H273167   1.157   1.407   1.500 -0.7793 -0.3741  0.8697
17226TIP3   OH273168   6.670   0.393  14.344 -0.4522  0.2443 -0.3307
17226TIP3    H173169   6.733   0.385  14.415  2.4028 -1.8809 -2.8413
17226TIP3    H273170   6.593   0.345  14.375 -0.0396  0.9694  1.9922
17227TIP3   OH273171   5.243   2.727   3.136 -0.3757  0.0250 -0.1424
17227TIP3    H173172   5.247   2.646   3.187 -2.2348  0.0057  0.0328
17227TIP3    H273173   5.190   2.704   3.060 -1.1292  1.1347  0.0315
17228TIP3   OH273174   4.058   0.637  15.902 -0.3517  0.5526  0.3649
17228TIP3    H173175   4.066   0.720  15.854 -1.8946 -0.7790 -2.4613
17228TIP3    H273176   3.980   0.650  15.957  0.3593  1.4732  1.2065
17229TIP3   OH273177   0.276   3.093  13.682 -0.5497 -0.0208 -0.2599
17229TIP3    H173178   0.297   3.148  13.757 -0.1236  1.8171 -1.6309
17229TIP3    H273179   0.202   3.039  13.711  1.8923 -2.1307  2.6367
17230TIP3   OH273180   3.465   3.881   3.289  0.3168  0.1142 -0.0183
17230TIP3    H173181   3.499   3.824   3.220 -0.7154  1.6143 -1.8599
17230TIP3    H273182   3.373   3.895   3.266  0.3885  2.0400  0.6750
17231TIP3   OH273183   0.876   1.147  17.147  0.4127 -0.2762  0.2922
17231TIP3    H173184   0.890   1.235  17.183  1.8355 -0.7051  0.8646
17231TIP3    H273185   0.800   1.157  17.089  0.7690  1.4075  0.0494
17232TIP3   OH273186   5.916   5.584   5.167 -0.6731 -0.3345 -0.5672
17232TIP3    H173187   5.912   5.507   5.223  3.4275 -0.0219  0.4519
17232TIP3    H273188   5.871   5.652   5.217 -1.3554 -1.2347  0.0808
17233TIP3   OH273189   5.521   4.883  12.318  0.0087  0.5397 -0.2380
17233TIP3    H173190   5.447   4.843  12.273 -0.5530  1.7950 -0.4675
17233TIP3    H273191   5.536   4.965  12.271  0.0611  1.3969  1.2219
17234TIP3   OH273192   6.695   1.285   4.187 -0.2429 -0.0534  0.1366
17234TIP3    H173193   6.618   1.299   4.131 -0.5667 -0.0216  0.5898
17234TIP3    H273194   6.712   1.371   4.227  0.3449  0.0703 -0.3557
17235TIP3   OH273195   4.986   2.354  12.165 -0.3826 -0.4411  0.7221
17235TIP3    H173196   4.956   2.274  12.208 -2.2491 -0.0029  0.3137
17235TIP3    H273197   4.953   2.425  12.221 -0.8896  0.0764 -0.2024
17236TIP3   OH273198   0.719   3.428  14.558 -0.8659 -0.2014 -0.0339
17236TIP3    H173199   0.640   3.375  14.566 -0.5935 -0.5350  0.5333
17236TIP3    H273200   0.693   3.504  14.506 -1.6017 -0.2128  0.3152
17237TIP3   OH273201   6.584   2.549  12.077  0.1603 -0.2850  0.5292
17237TIP3    H173202   6.570   2.496  12.156 -0.4632  0.7500  1.1354
17237TIP3    H273203   6.554   2.493  12.005  0.2995 -1.0645  1.0691
17238TIP3   OH273204   6.564   6.506  13.149 -0.0715 -0.6739 -0.6202
17238TIP3    H173205   6.648   6.462  13.163 -0.0995 -0.6590 -0.3962
17238TIP3    H273206   6.573   6.590  13.195 -0.5459 -1.0688  0.2075
17239TIP3   OH273207   5.464   6.340   1.278 -0.6939 -0.1591 -0.3345
17239TIP3    H173208   5.406   6.389   1.220 -2.9661 -0.7715  1.2662
17239TIP3    H273209   5.430   6.251   1.278  0.6640 -0.7075  0.1818
17240TIP3   OH273210   2.918   4.747  17.081 -0.0952 -0.3652  0.6238
17240TIP3    H173211   2.892   4.671  17.132  0.6705 -1.0440  0.0303
17240TIP3    H273212   2.992   4.717  17.028  0.0138  0.6966  0.1337
17241TIP3   OH273213   5.023   6.500   0.728 -0.0905  0.4095 -0.2996
17241TIP3    H173214   5.049   6.549   0.650 -1.2494  2.0944  0.3011
17241TIP3    H273215   4.933   6.529   0.746  0.0983 -0.0154  1.5575
17242TIP3   OH273216   6.037   5.793   2.270  0.4637  0.0841 -0.4205
17242TIP3    H173217   6.048   5.706   2.231 -0.1057 -0.2126  0.0675
17242TIP3    H273218   6.048   5.778   2.364 -1.7193  0.1651 -0.1166
17243TIP3   OH273219   4.423   1.447   5.424  0.3015 -0.2921  0.1654
17243TIP3    H173220   4.356   1.379   5.407  0.1823 -1.0125  3.0508
17243TIP3    H273221   4.379   1.529   5.403 -1.2245 -0.8186  1.1229
17244TIP3   OH273222   2.355   5.749  12.778 -0.3356  0.5128  0.2325
17244TIP3    H173223   2.373   5.777  12.688  1.7193 -0.3816  0.3133
17244TIP3    H273224   2.368   5.654  12.776 -0.4629  0.4593  1.4363
17245TIP3   OH273225   3.746   1.329   3.837  0.1899  0.2783 -0.7795
17245TIP3    H173226   3.675   1.349   3.898 -0.5447 -0.5213 -1.3360
17245TIP3    H273227   3.732   1.237   3.814  2.8784 -0.7027  1.0206
17246TIP3   OH273228   0.804   5.027  14.943  0.0578 -0.1419 -0.2695
17246TIP3    H173229   0.879   4.972  14.919  0.3259 -0.0917  0.4244
17246TIP3    H273230   0.837   5.116  14.936  0.7311 -0.1489  2.0378
17247TIP3   OH273231   6.656   6.416  14.067  0.2883  0.4454 -0.1666
17247TIP3    H173232   6.615   6.427  14.153  0.5026 -1.4003  0.2299
17247TIP3    H273233   6.722   6.348  14.081  1.5369  1.3344 -1.4237
17248TIP3   OH273234   0.013   1.281  15.153  0.2448  0.2187  0.4406
17248TIP3    H173235   0.104   1.283  15.122  0.4901  1.4404  1.1423
17248TIP3    H273236   0.016   1.329  15.236 -0.9289 -0.3353  0.8141
17249TIP3   OH273237   5.861   4.333   2.874  1.0165 -0.1244  0.1371
17249TIP3    H173238   5.917   4.410   2.882 -0.1439  0.7964 -0.3417
17249TIP3    H273239   5.813   4.328   2.956  2.5257 -1.5518  0.9976
17250TIP3   OH273240   5.074   2.454   0.108 -0.2529  0.3597 -0.2049
17250TIP3    H173241   5.145   2.512   0.080 -0.4986  0.9659  0.3970
17250TIP3    H273242   5.020   2.509   0.165  0.2350 -0.8407  1.4701
17251TIP3   OH273243   3.085   3.536  15.674  0.5717  0.4380  0.0902
17251TIP3    H173244   3.134   3.609  15.711  0.7774  0.1576  0.3715
17251TIP3    H273245   3.147   3.493  15.615  0.5120  0.3689  0.0780
17252TIP3   OH273246   3.514   5.724   0.369  0.4230 -0.8047  0.0677
17252TIP3    H173247   3.476   5.703   0.454  0.5542 -0.4821  0.2084
17252TIP3    H273248   3.519   5.640   0.323 -1.0752 -0.7823 -0.2146
17253TIP3   OH273249   5.188   6.510   4.897  0.3050  0.1268  0.0566
17253TIP3    H173250   5.256   6.567   4.933  0.8285  0.0081 -0.7062
17253TIP3    H273251   5.165   6.451   4.968  1.4567 -0.2346  0.1492
17254TIP3   OH273252   3.943   4.556  12.105  0.1331 -0.2561 -0.1874
17254TIP3    H173253   3.858   4.521  12.134  0.2093 -0.3266 -0.0509
17254TIP3    H273254   3.921   4.612  12.030 -0.0800  0.0330  0.0873
17255TIP3   OH273255   5.870   2.095  16.311 -0.1873 -0.1470 -0.4894
17255TIP3    H173256   5.818   2.173  16.290 -1.6380 -1.0236 -0.3242
17255TIP3    H273257   5.886   2.054  16.227 -1.8807 -1.1272 -0.3919
17256TIP3   OH273258   1.312   5.867  13.609 -0.1948 -0.5315  0.1412
17256TIP3    H173259   1.366   5.946  13.608  0.2275 -0.7677  1.5569
17256TIP3    H273260   1.363   5.803  13.561 -0.4340 -0.0234 -0.8161
17257TIP3   OH273261   1.135   0.097   2.554  0.3279  0.2681 -0.2085
17257TIP3    H173262   1.081   0.145   2.617 -1.1125  0.1720 -1.3044
17257TIP3    H273263   1.135   0.152   2.476 -4.0282 -2.6208 -2.6703
17258TIP3   OH273264   0.535   1.155   5.493  0.0457 -0.1916 -0.3092
17258TIP3    H173265   0.606   1.099   5.461  1.3739  1.4160 -0.3181
17258TIP3    H273266   0.568   1.244   5.479 -2.1396  0.6102 -0.6405
17259TIP3   OH273267   0.316   0.246   3.628  0.2282  0.5621  1.0471
17259TIP3    H173268   0.309   0.164   3.677 -1.6496  1.3845  2.3136
17259TIP3    H273269   0.374   0.301   3.681 -0.7332  0.9751  1.7238
17260TIP3   OH273270   5.361   5.724  15.405 -0.3937 -0.5898 -0.4152
17260TIP3    H173271   5.268   5.702  15.400 -0.6500 -0.2918  2.0356
17260TIP3    H273272   5.372   5.796  15.343 -2.5850  1.6818  1.6001
17261TIP3   OH273273   6.553   0.524   1.899 -0.3896 -0.1764  0.0644
17261TIP3    H173274   6.604   0.600   1.872  0.6227 -0.0894  2.0568
17261TIP3    H273275   6.607   0.449   1.875 -0.3732 -0.1747  0.0958
17262TIP3   OH273276   2.648   6.465   2.992 -0.0125  0.2753  0.2236
17262TIP3    H173277   2.636   6.523   3.067 -0.9536 -0.4534  0.6512
17262TIP3    H273278   2.573   6.482   2.935 -0.1240 -0.2796  0.1968
17263TIP3   OH273279   5.775   0.968  11.731 -0.3405  0.5074  0.1421
17263TIP3    H173280   5.864   0.988  11.702 -0.8647  0.1978 -1.8103
17263TIP3    H273281   5.742   1.052  11.764  1.0659  0.3441  2.1576
17264TIP3   OH273282   6.761   4.814   0.891  0.0367  0.2821 -0.9461
17264TIP3    H173283   6.835   4.753   0.892 -0.5682 -0.4714 -0.1289
17264TIP3    H273284   6.706   4.785   0.964  1.0196  3.4087  1.2229
17265TIP3   OH273285   2.033   3.626  14.426  0.4802 -0.1606  0.0692
17265TIP3    H173286   2.034   3.532  14.405 -0.1468 -0.4220  1.1379
17265TIP3    H273287   1.944   3.654  14.409  0.5302  0.1181  0.2534
17266TIP3   OH273288   2.229   1.326   4.236  0.7066 -0.2267  0.3076
17266TIP3    H173289   2.276   1.260   4.288 -0.3385 -0.1396  1.4183
17266TIP3    H273290   2.284   1.404   4.240  1.5809 -0.7858 -0.3749
17267TIP3   OH273291   1.984   3.443  14.978  0.2203  0.0874  0.6437
17267TIP3    H173292   1.971   3.538  14.967  1.7509  0.2407 -0.1742
17267TIP3    H273293   2.055   3.436  15.042  1.5837 -0.4102 -0.8511
17268TIP3   OH273294   3.820   2.193  12.001  0.3275 -0.3672 -0.1765
17268TIP3    H173295   3.737   2.166  12.039 -0.5085  0.2372 -1.4700
17268TIP3    H273296   3.887   2.150  12.054 -0.7778 -0.1779  1.4293
17269TIP3   OH273297   6.745   0.283  17.151  0.1987  0.5757  0.1707
17269TIP3    H173298   6.785   0.358  17.194  0.4408  0.4822  0.1087
17269TIP3    H273299   6.744   0.215  17.218 -1.4649  1.0964  0.7427
17270TIP3   OH273300   3.112   4.566   4.401 -0.3739 -0.5887  0.2087
17270TIP3    H173301   3.044   4.563   4.468 -1.7726  0.2713 -1.1158
17270TIP3    H273302   3.067   4.541   4.320  0.9690 -0.3254 -0.6512
17271TIP3   OH273303   1.189   3.433  15.126  0.5649  0.1327  0.0234
17271TIP3    H173304   1.172   3.434  15.220  1.2593 -1.8085  0.2055
17271TIP3    H273305   1.278   3.398  15.118  1.2981  2.1019 -1.2899
17272TIP3   OH273306   0.778   3.115  10.731  0.2817 -0.2572 -0.0703
17272TIP3    H173307   0.705   3.074  10.685  0.0448  1.0047 -0.8625
17272TIP3    H273308   0.741   3.196  10.767  1.2407  0.3142 -0.3258
17273TIP3   OH273309   5.514   2.705   2.148  0.2561 -0.0139  0.3456
17273TIP3    H173310   5.472   2.628   2.109 -0.1221 -0.0660  0.8386
17273TIP3    H273311   5.521   2.684   2.241 -0.0933  0.6529  0.5318
17274TIP3   OH273312   4.927   0.460   4.086 -0.2105 -0.1182  0.2074
17274TIP3    H173313   4.967   0.391   4.139  0.0589 -0.2481 -0.1601
17274TIP3    H273314   4.872   0.413   4.024 -1.2184  0.0728  0.9257
17275TIP3   OH273315   1.616   0.155  15.487 -0.2366  0.4164  0.0461
17275TIP3    H173316   1.693   0.099  15.483 -0.7157 -0.3280  0.7203
17275TIP3    H273317   1.556   0.108  15.546 -2.5535 -0.7278 -2.9514
17276TIP3   OH273318   4.622   0.080   3.168 -0.3759 -0.2861  0.3026
17276TIP3    H173319   4.567   0.158   3.179 -0.4089 -0.3960  0.9557
17276TIP3    H273320   4.710   0.114   3.156 -0.3870 -0.1464  0.6061
17277TIP3   OH273321   4.033   0.558  10.995  0.3815 -0.2019 -0.0086
17277TIP3    H173322   4.096   0.622  11.028 -0.8758  1.4057 -0.6407
17277TIP3    H273323   4.019   0.582  10.904  1.2821 -2.5556 -0.8380
17278TIP3   OH273324   3.297   2.694   5.906  0.1021  0.0770 -0.1181
17278TIP3    H173325   3.387   2.676   5.934  0.0321  1.3709  1.0306
17278TIP3    H273326   3.304   2.774   5.853 -0.1662 -0.7656 -1.4878
17279TIP3   OH273327   1.578   5.015  11.345  0.2338 -0.8097  0.3654
17279TIP3    H173328   1.641   5.074  11.304  0.6653 -1.2044  0.4489
17279TIP3    H273329   1.512   5.073  11.382  0.3519 -0.4070 -0.0484
17280TIP3   OH273330   6.497   5.159   2.569  0.5792 -0.0641 -0.4206
17280TIP3    H173331   6.524   5.172   2.660  1.0559 -0.3080 -0.5252
17280TIP3    H273332   6.523   5.069   2.548 -2.3953 -1.1929  0.1894
17281TIP3   OH273333   4.616   1.387   0.443  0.4310 -0.1967  0.5875
17281TIP3    H173334   4.607   1.320   0.510 -1.8531 -1.2550 -0.6379
17281TIP3    H273335   4.678   1.350   0.380 -2.0132 -2.0713 -0.9175
17282TIP3   OH273336   3.579   5.391   1.352 -0.6362 -0.1554 -0.2978
17282TIP3    H173337   3.600   5.468   1.405 -1.5609  0.4229 -0.7396
17282TIP3    H273338   3.659   5.373   1.303 -0.5097  0.7516 -0.4473
17283TIP3   OH273339   5.408   0.593   0.357  0.2713  0.0402  0.2576
17283TIP3    H173340   5.376   0.512   0.396 -1.1912  0.9967  1.1141
17283TIP3    H273341   5.355   0.606   0.279 -1.0315  1.2716  1.3047
17284TIP3   OH273342   4.988   6.457  11.760 -0.1403 -0.2763 -0.4397
17284TIP3    H173343   5.043   6.420  11.828 -1.8981 -2.2120  0.0244
17284TIP3    H273344   4.929   6.516  11.806 -0.6254 -0.7737 -0.4060
17285TIP3   OH273345   1.536   5.763   3.735  0.0434  0.1471  0.2949
17285TIP3    H173346   1.615   5.755   3.682  0.4648 -0.2606  0.9691
17285TIP3    H273347   1.563   5.811   3.813 -0.3353 -0.1320  0.6034
17286TIP3   OH273348   4.337   3.812  15.611 -0.6288  0.0212  0.5350
17286TIP3    H173349   4.333   3.730  15.562 -1.5013 -0.7766  1.8816
17286TIP3    H273350   4.259   3.860  15.583  0.4323  0.9256 -1.0631
17287TIP3   OH273351   6.170   6.411   5.689 -0.0631  0.0742  0.1570
17287TIP3    H173352   6.246   6.456   5.651  0.8500 -0.8633  0.8250
17287TIP3    H273353   6.127   6.370   5.613 -1.6368  2.9600 -0.6734
17288TIP3   OH273354   2.527   2.856   4.467 -0.0542  0.0436 -0.4269
17288TIP3    H173355   2.488   2.769   4.456  1.5262 -0.4943 -2.1643
17288TIP3    H273356   2.504   2.903   4.387 -2.3575  1.9194  1.1903
17289TIP3   OH273357   1.055   2.240   0.330  0.5038 -0.2479 -0.1045
17289TIP3    H173358   0.969   2.282   0.341  0.9959  1.1535 -1.2836
17289TIP3    H273359   1.035   2.149   0.312 -0.8240  0.3023 -1.6287
17290TIP3   OH273360   3.452   1.240  15.823  0.3086 -0.0396  0.1559
17290TIP3    H173361   3.435   1.250  15.917 -2.4042  1.1604 -0.3856
17290TIP3    H273362   3.433   1.148  15.805 -1.2531  0.2042  0.4438
17291TIP3   OH273363   5.268   0.769   3.738 -0.4817  0.3922  0.2066
17291TIP3    H173364   5.174   0.752   3.729 -0.3742 -0.3938  0.4991
17291TIP3    H273365   5.307   0.683   3.750  0.0870  0.8201  1.7307
17292TIP3   OH273366   1.433   0.668   2.370  0.1811 -0.5040  0.0870
17292TIP3    H173367   1.494   0.615   2.422  1.4089  0.5122 -0.2463
17292TIP3    H273368   1.397   0.731   2.432  1.5776  0.6499 -0.2004
17293TIP3   OH273369   2.037   1.378  14.629 -0.0507  0.5895 -0.1932
17293TIP3    H173370   2.038   1.317  14.703  0.1259 -0.5624 -1.1079
17293TIP3    H273371   1.998   1.458  14.664 -1.9895 -0.6429  0.6010
17294TIP3   OH273372   1.190   5.487   3.989  0.1315  0.1435 -0.0585
17294TIP3    H173373   1.134   5.559   3.957  0.3359 -0.5062 -2.0191
17294TIP3    H273374   1.276   5.506   3.952  0.4901 -0.4685  0.4447
17295TIP3   OH273375   2.905   4.924  12.576  0.6091  0.1976 -0.1003
17295TIP3    H173376   2.914   4.844  12.628  0.2814  0.1161 -0.1691
17295TIP3    H273377   2.964   4.911  12.501 -0.6913 -0.7100 -1.0062
17296TIP3   OH273378   0.755   1.622  16.507  0.4581 -0.6574 -0.4727
17296TIP3    H173379   0.747   1.668  16.424  0.6990 -0.2920 -0.2910
17296TIP3    H273380   0.683   1.559  16.506  0.1745 -0.3288 -0.7485
17297TIP3   OH273381   6.268   3.988  15.306 -0.5935 -0.7685  0.0032
17297TIP3    H173382   6.274   3.986  15.210 -2.2008 -1.0318 -0.1117
17297TIP3    H273383   6.343   4.042  15.333 -2.2429  2.6546 -1.6356
17298TIP3   OH273384   0.924   3.776  12.017 -0.4131  0.1188 -0.7476
17298TIP3    H173385   0.833   3.784  12.047 -0.3197  1.1680 -0.7205
17298TIP3    H273386   0.916   3.758  11.923 -0.6574 -0.3216 -0.6456
17299TIP3   OH273387   6.553   4.752   6.864  0.1148 -0.9260  0.1127
17299TIP3    H173388   6.459   4.769   6.874  0.1552 -1.0753  0.8125
17299TIP3    H273389   6.576   4.791   6.779 -0.2576  0.4555  0.6246
17300TIP3   OH273390   0.049   2.426   2.287 -0.2231 -0.1546 -0.2380
17300TIP3    H173391   0.101   2.468   2.356  0.0227  2.6120 -1.9767
17300TIP3    H273392   0.109   2.417   2.214 -0.9257 -1.4981 -0.6701
17301TIP3   OH273393   1.948   2.625   2.155 -0.6400 -0.4697  0.0033
17301TIP3    H173394   1.885   2.696   2.143 -1.4638 -1.2421 -0.3761
17301TIP3    H273395   2.009   2.634   2.082 -1.1667 -0.5754 -0.4564
17302TIP3   OH273396   0.906   0.297   1.223  0.4792 -0.2319  0.4173
17302TIP3    H173397   0.961   0.310   1.146  1.4288 -1.2221  0.8937
17302TIP3    H273398   0.962   0.325   1.296 -1.1293  2.7608  0.6616
17303TIP3   OH273399   4.382   2.494   1.737  0.3513  0.3712  0.0735
17303TIP3    H173400   4.378   2.476   1.831 -2.8235 -1.4757 -0.2801
17303TIP3    H273401   4.340   2.418   1.696  0.4601  1.6992 -2.7812
17304TIP3   OH273402   1.475   3.969   3.280 -0.2631 -0.2129  0.2872
17304TIP3    H173403   1.414   4.004   3.215  0.9973 -3.4485 -3.0001
17304TIP3    H273404   1.560   4.004   3.255 -0.0386  0.4317  1.8227
17305TIP3   OH273405   5.585   4.666  13.256  0.0607 -0.3922  0.3620
17305TIP3    H173406   5.537   4.686  13.175  1.5780  1.5542 -0.1098
17305TIP3    H273407   5.657   4.729  13.258  0.5217 -0.9055  2.8578
17306TIP3   OH273408   0.881   3.221   3.983  0.0619 -0.3278  0.1837
17306TIP3    H173409   0.888   3.171   4.065 -0.7464 -1.5993 -0.5009
17306TIP3    H273410   0.892   3.156   3.914 -0.9599  0.4370 -0.7331
17307TIP3   OH273411   0.674   4.330  17.059  0.4545 -0.4698 -0.2884
17307TIP3    H173412   0.604   4.394  17.069  0.9205 -0.2377  2.1134
17307TIP3    H273413   0.720   4.356  16.979 -0.9774  0.5614 -0.7972
17308TIP3   OH273414   3.441   4.952  13.005 -0.0739  0.2194  0.2170
17308TIP3    H173415   3.348   4.947  13.029  0.1782  1.9923  1.8145
17308TIP3    H273416   3.476   5.023  13.058  2.2219 -0.3727 -0.3691
17309TIP3   OH273417   4.154   1.346  12.872 -0.1239  0.1356  0.1513
17309TIP3    H173418   4.112   1.413  12.819 -2.6619 -0.3330  1.4471
17309TIP3    H273419   4.246   1.350  12.846 -1.0018  0.7544 -3.3508
17310TIP3   OH273420   6.620   5.988   1.273  0.3209  0.1424  0.5141
17310TIP3    H173421   6.605   5.939   1.354  1.8710  2.0984  2.0853
17310TIP3    H273422   6.674   5.930   1.220 -0.8173 -1.2256  0.8071
17311TIP3   OH273423   0.877   6.061   2.012 -0.1914  0.1985 -0.4316
17311TIP3    H173424   0.829   6.144   2.012 -2.8970 -1.2386 -1.1287
17311TIP3    H273425   0.860   6.023   2.098  0.8001  0.2342 -0.2130
17312TIP3   OH273426   5.311   1.207   3.326  0.3865 -0.2302  0.9152
17312TIP3    H173427   5.257   1.134   3.298 -0.9821  1.0860 -0.0171
17312TIP3    H273428   5.333   1.187   3.417 -1.7552 -0.8163  1.3641
17313TIP3   OH273429   4.525   1.198  13.581  0.3495 -0.4388  0.3102
17313TIP3    H173430   4.520   1.213  13.486 -0.7136 -0.9483  0.2739
17313TIP3    H273431   4.478   1.115  13.594  0.4626 -0.3503  1.2914
17314TIP3   OH273432   0.149   5.973  13.010 -0.7127 -0.6042 -0.1424
17314TIP3    H173433   0.170   5.956  13.102  2.4119  1.5929 -0.3266
17314TIP3    H273434   0.097   6.054  13.013  0.2328  0.0265 -0.3120
17315TIP3   OH273435   4.946   2.488  16.468  0.1525 -0.6645 -0.2264
17315TIP3    H173436   4.888   2.555  16.433 -1.4965 -1.4026  0.9662
17315TIP3    H273437   4.967   2.518  16.556 -1.7987 -2.3377  0.8859
17316TIP3   OH273438   5.935   0.525   1.451 -0.2737  0.1741  0.3543
17316TIP3    H173439   6.009   0.470   1.474 -0.6633 -0.8959 -0.8341
17316TIP3    H273440   5.867   0.464   1.423 -1.1936  1.1895  0.3080
17317TIP3   OH273441   4.779   6.594  14.379  0.7275  0.1935 -0.1733
17317TIP3    H173442   4.814   6.643  14.305  3.7686 -0.7983  0.4322
17317TIP3    H273443   4.793   6.502  14.356  1.1160 -0.1490  1.3187
17318TIP3   OH273444   4.993   3.602  15.865 -0.4411  0.6936 -0.8894
17318TIP3    H173445   4.926   3.560  15.920 -0.3334  0.9318 -0.5705
17318TIP3    H273446   4.970   3.578  15.776 -0.2842 -0.1855 -0.6991
17319TIP3   OH273447   3.761   5.014   0.555  0.0498 -0.2137  0.5371
17319TIP3    H173448   3.819   5.080   0.516  1.8660 -1.4225  1.0912
17319TIP3    H273449   3.679   5.023   0.506  0.7646  1.3643 -0.4674
17320TIP3   OH273450   0.207   5.369   6.116 -0.0631  0.0304 -0.1131
17320TIP3    H173451   0.191   5.422   6.194 -0.9138 -1.3842  0.7257
17320TIP3    H273452   0.286   5.320   6.136 -1.8760 -2.5959  1.2408
17321TIP3   OH273453   2.336   1.027   1.109 -0.8057  0.3873 -0.0959
17321TIP3    H173454   2.393   1.094   1.147  0.7570  0.4998 -2.4240
17321TIP3    H273455   2.277   1.003   1.180  2.3628 -0.0208  2.6735
17322TIP3   OH273456   4.377   3.620   5.742  0.7585  0.4542 -0.2964
17322TIP3    H173457   4.467   3.626   5.710  0.5130  1.9220 -0.7563
17322TIP3    H273458   4.328   3.683   5.689  0.0786  1.9760  1.9915
17323TIP3   OH273459   3.448   4.463   5.559  0.0953 -0.1185  0.7220
17323TIP3    H173460   3.368   4.425   5.596  0.0031 -0.5458  0.0862
17323TIP3    H273461   3.423   4.490   5.471  0.6171 -0.1313  0.5675
17324TIP3   OH273462   5.309   6.254   0.735 -0.2096 -0.2218 -0.1666
17324TIP3    H173463   5.216   6.259   0.711  0.1295 -1.3753 -1.9486
17324TIP3    H273464   5.342   6.176   0.689  1.7077  0.3419  0.1449
17325TIP3   OH273465   6.759   6.376   6.024  0.2561 -0.6193 -0.1956
17325TIP3    H173466   6.821   6.327   6.078  2.0516  0.7505 -0.9270
17325TIP3    H273467   6.770   6.467   6.050  1.6325  0.1852 -3.1987
17326TIP3   OH273468   1.230   6.316  14.717  0.3806 -0.0952 -0.4969
17326TIP3    H173469   1.264   6.373  14.648 -2.5969  0.4150 -1.6787
17326TIP3    H273470   1.167   6.259  14.672  1.1271 -2.3963  1.1832
17327TIP3   OH273471   3.990   6.211  12.018  0.1655 -0.1540 -0.3896
17327TIP3    H173472   4.066   6.267  12.001  0.9705 -1.0996  0.0047
17327TIP3    H273473   3.967   6.176  11.932 -0.4452  0.8859 -0.6655
17328TIP3   OH273474   5.837   1.414  11.521 -0.5010 -0.8824 -0.6706
17328TIP3    H173475   5.805   1.465  11.596  0.0776 -0.8841 -0.4214
17328TIP3    H273476   5.902   1.471  11.479  0.3248 -1.5103 -0.2510
17329TIP3   OH273477   6.212   3.298  17.177  0.5882  0.0414  0.0464
17329TIP3    H173478   6.261   3.265  17.102 -0.0254 -0.4566 -0.1392
17329TIP3    H273479   6.280   3.323  17.241  1.2053  2.3263 -1.3853
17330TIP3   OH273480   0.448   0.434   4.672 -0.3994  0.2671 -0.4753
17330TIP3    H173481   0.493   0.364   4.626 -1.2911 -1.0551  0.5901
17330TIP3    H273482   0.395   0.389   4.738 -0.3929  1.9927  0.7673
17331TIP3   OH273483   2.751   4.770  15.086 -0.0278  0.3264 -0.0944
17331TIP3    H173484   2.703   4.845  15.121 -0.0672  0.5038 -0.5234
17331TIP3    H273485   2.747   4.704  15.155 -0.2714  0.6027  0.1555
17332TIP3   OH273486   6.171   0.189  16.823  0.0253  0.3266 -0.5725
17332TIP3    H173487   6.267   0.186  16.823  0.0207 -0.2895  0.2733
17332TIP3    H273488   6.146   0.156  16.737  0.5715 -0.2752 -0.5174
17333TIP3   OH273489   3.986   4.618   3.547 -0.0779  0.6788 -0.3564
17333TIP3    H173490   3.924   4.659   3.487 -0.3150  1.3205  0.3194
17333TIP3    H273491   3.940   4.614   3.630 -0.0438 -0.9262 -0.3804
17334TIP3   OH273492   4.621   5.149   6.260  0.1197  0.3189  0.2815
17334TIP3    H173493   4.678   5.220   6.290  1.1478  0.1010 -1.0622
17334TIP3    H273494   4.606   5.097   6.339  1.7070  0.4529  0.7270
17335TIP3   OH273495   4.073   1.865  13.528 -0.3750 -0.2406  0.3119
17335TIP3    H173496   3.996   1.894  13.479 -0.5772 -2.5295 -0.8374
17335TIP3    H273497   4.059   1.772  13.542  0.9040 -0.1691  2.5572
17336TIP3   OH273498   0.769   0.267   0.054  0.5303 -0.5020 -0.3772
17336TIP3    H173499   0.737   0.180   0.029 -0.3691 -0.4583  0.5525
17336TIP3    H273500   0.828   0.291  -0.017 -0.3568 -1.2429 -1.4231
17337TIP3   OH273501   3.908   2.838  13.592 -0.1946 -0.1782 -0.3641
17337TIP3    H173502   3.926   2.745  13.577 -0.7322 -0.3139 -0.1795
17337TIP3    H273503   3.994   2.880  13.586 -0.1107 -0.5006 -1.7612
17338TIP3   OH273504   0.199   0.694   0.155  0.6439  0.3466 -0.1050
17338TIP3    H173505   0.135   0.753   0.115 -0.1709  0.4226  1.2530
17338TIP3    H273506   0.146   0.631   0.204  1.5473 -0.8116 -0.5848
17339TIP3   OH273507   1.329   0.804   1.043  0.0982 -0.7779  0.3481
17339TIP3    H173508   1.379   0.826   1.122  2.2662  0.5878 -1.2788
17339TIP3    H273509   1.342   0.879   0.985 -1.2142 -1.8301 -1.4031
17340TIP3   OH273510   2.733   4.621   0.429 -0.3199  0.3656 -0.8685
17340TIP3    H173511   2.706   4.581   0.347  0.4782  0.3591 -1.1399
17340TIP3    H273512   2.819   4.584   0.447 -0.9725 -0.5434  0.6030
17341TIP3   OH273513   3.311   0.384  13.222  0.5610 -0.2860 -0.4367
17341TIP3    H173514   3.313   0.288  13.231 -1.0156 -0.2305  0.7811
17341TIP3    H273515   3.359   0.416  13.298  1.1530 -0.0806 -0.8845
17342TIP3   OH273516   5.905   6.312  11.129 -0.6154  0.1254 -0.5762
17342TIP3    H173517   5.881   6.269  11.047 -2.0507  0.5397 -0.4004
17342TIP3    H273518   5.945   6.395  11.101 -2.9738  1.2302 -0.8889
17343TIP3   OH273519   3.190   3.532   0.268 -0.4592  0.3215 -0.3346
17343TIP3    H173520   3.175   3.438   0.280 -0.3161  0.3742  0.2903
17343TIP3    H273521   3.141   3.574   0.339  0.3885  0.6532  0.0690
17344TIP3   OH273522   3.407   2.791  12.016  0.1592 -0.3240 -0.5694
17344TIP3    H173523   3.451   2.874  12.033  1.1377 -1.0285  0.5101
17344TIP3    H273524   3.314   2.813  12.012  0.4988  1.0271 -1.7693
17345TIP3   OH273525   4.268   4.981   3.597  0.8545  0.2241  0.1239
17345TIP3    H173526   4.321   4.992   3.518 -0.1796  0.4601 -0.5558
17345TIP3    H273527   4.243   4.889   3.597  0.5775  0.2969 -0.0145
17346TIP3   OH273528   3.111   2.979   2.538 -0.1373  0.9165 -0.2180
17346TIP3    H173529   3.184   3.039   2.522  1.1351 -0.5411 -0.0026
17346TIP3    H273530   3.144   2.893   2.516 -1.2309 -0.0197  1.5276
17347TIP3   OH273531   4.161   5.041  13.077  0.3600  0.0632 -0.2401
17347TIP3    H173532   4.172   4.994  13.159  0.5459 -0.3888 -0.5167
17347TIP3    H273533   4.196   5.128  13.094  4.4369 -1.1788 -0.9783
17348TIP3   OH273534   5.272   5.178   1.658  0.5378  0.5447  0.4397
17348TIP3    H173535   5.243   5.200   1.746  1.0237  0.4864  0.6118
17348TIP3    H273536   5.311   5.091   1.666  2.4275  1.3537  0.5690
17349TIP3   OH273537   1.792   0.544   0.703 -0.1613 -0.4220  0.0561
17349TIP3    H173538   1.803   0.595   0.623 -1.2842  1.5924  1.1153
17349TIP3    H273539   1.734   0.472   0.678  1.4683 -1.2999 -1.4713
17350TIP3   OH273540   4.045   2.737  11.618  0.1763  0.1279 -0.3297
17350TIP3    H173541   3.991   2.659  11.612 -0.4750  0.4869  0.7095
17350TIP3    H273542   4.062   2.761  11.527  1.4531 -1.9253 -0.6864
17351TIP3   OH273543   1.122   5.472  16.705 -0.0527 -0.5120  0.0795
17351TIP3    H173544   1.066   5.423  16.766  0.6568 -0.5425  0.7202
17351TIP3    H273545   1.095   5.442  16.618 -1.3450 -0.1911  0.3496
17352TIP3   OH273546   3.297   0.958  15.623  0.4145  0.4943  0.2223
17352TIP3    H173547   3.300   0.965  15.528 -0.7474 -0.3240  0.1045
17352TIP3    H273548   3.233   1.025  15.650 -1.3559 -1.0754  0.1510
17353TIP3   OH273549   5.889   3.539  12.339 -0.3201 -0.2773  0.6531
17353TIP3    H173550   5.937   3.523  12.420 -0.4509 -0.4984  0.6876
17353TIP3    H273551   5.905   3.462  12.285 -0.3684 -0.2048  0.5336
17354TIP3   OH273552   1.010   0.366   2.751  0.1759  0.5660 -0.1333
17354TIP3    H173553   0.953   0.317   2.691  2.1864  0.0197 -1.7088
17354TIP3    H273554   0.960   0.372   2.832 -1.3470 -1.5142 -0.8327
17355TIP3   OH273555   5.808   4.982  16.588  0.2689  0.0469  0.7000
17355TIP3    H173556   5.814   4.947  16.499 -0.7979  0.3407  0.4988
17355TIP3    H273557   5.822   5.076  16.578  1.4422 -0.0797  1.0205
17356TIP3   OH273558   0.576   1.500  12.678 -0.4615  0.2108 -0.1203
17356TIP3    H173559   0.500   1.554  12.657  0.3120  0.0875 -3.8277
17356TIP3    H273560   0.651   1.559  12.670  0.1081 -0.5138 -0.2835
17357TIP3   OH273561   3.893   6.650  16.057 -0.4762 -0.1895 -0.0813
17357TIP3    H173562   3.953   6.717  16.026 -0.4771 -0.0374  0.2452
17357TIP3    H273563   3.888   6.663  16.152  0.6912 -1.5916  0.2060
17358TIP3   OH273564   6.137   2.760   5.573 -0.7309 -0.4592  0.2999
17358TIP3    H173565   6.216   2.748   5.627 -1.1722 -0.3894  0.9715
17358TIP3    H273566   6.132   2.854   5.559 -0.5753 -0.4847  0.0798
17359TIP3   OH273567   4.178   3.836  11.843  0.2412  1.0394  0.0467
17359TIP3    H173568   4.107   3.851  11.780 -0.1864 -2.4273 -0.4595
17359TIP3    H273569   4.135   3.802  11.921  1.2050  0.0850  0.1890
17360TIP3   OH273570   4.766   2.101  11.905 -0.2777 -0.6973  0.0093
17360TIP3    H173571   4.676   2.130  11.919 -0.1513 -0.9209  1.4185
17360TIP3    H273572   4.760   2.005  11.905 -0.0193 -0.7142  0.2779
17361TIP3   OH273573   2.917   5.307  15.975 -0.9915  0.1427 -0.2167
17361TIP3    H173574   2.856   5.259  15.919 -1.5123  1.0769 -0.4707
17361TIP3    H273575   2.863   5.372  16.020 -0.2356  0.7711 -0.1909
17362TIP3   OH273576   6.330   4.579   1.765  1.0285 -0.0446 -0.3574
17362TIP3    H173577   6.385   4.648   1.729  0.7227  0.8507  0.8500
17362TIP3    H273578   6.367   4.560   1.851 -0.5178  0.6194  0.5164
17363TIP3   OH273579   6.589   0.355   2.255  0.0480  0.2571  0.3006
17363TIP3    H173580   6.599   0.350   2.350 -0.6841  1.3766  0.4591
17363TIP3    H273581   6.556   0.269   2.230  2.2318 -0.7879  0.7537
17364TIP3   OH273582   6.624   2.474   0.842 -0.4912  0.7585  0.0888
17364TIP3    H173583   6.536   2.473   0.806 -1.0217 -3.2263  1.0392
17364TIP3    H273584   6.681   2.488   0.766 -1.8237 -0.4743 -1.2057
17365TIP3   OH273585   2.249   5.951  14.215 -0.4407 -0.7076  0.1111
17365TIP3    H173586   2.254   6.013  14.288 -1.2257  0.8034 -1.0470
17365TIP3    H273587   2.336   5.956  14.174 -0.9036  0.7338 -0.7827
17366TIP3   OH273588   5.035   5.648   5.711  0.3020 -0.2462 -0.1791
17366TIP3    H173589   5.004   5.716   5.769 -1.1538 -0.0239 -1.1638
17366TIP3    H273590   5.021   5.566   5.759 -0.3377 -0.0213  0.0247
17367TIP3   OH273591   1.358   3.930  12.953 -0.0028 -0.0376 -0.1527
17367TIP3    H173592   1.264   3.917  12.965 -0.4661  2.3760 -0.7329
17367TIP3    H273593   1.368   4.024  12.936  2.1214 -0.7338 -3.8804
17368TIP3   OH273594   5.183   1.883   4.479  0.0041  0.1697  0.2849
17368TIP3    H173595   5.172   1.788   4.480  2.6080 -0.2032 -0.5725
17368TIP3    H273596   5.175   1.909   4.570 -3.6134 -0.3952  0.2831
17369TIP3   OH273597   2.493   5.556  14.799  0.5445 -0.4782  0.2199
17369TIP3    H173598   2.547   5.620  14.752  1.8280 -1.5874  0.1150
17369TIP3    H273599   2.488   5.590  14.888 -1.0273  1.1009 -0.4036
17370TIP3   OH273600   2.729   1.862  12.934 -0.0229 -0.0280  0.0433
17370TIP3    H173601   2.704   1.946  12.973  0.3520  0.0778  0.0692
17370TIP3    H273602   2.802   1.884  12.875  0.6919 -0.4618  0.7476
17371TIP3   OH273603   1.538   6.634  16.677 -0.8845 -0.7627 -0.2729
17371TIP3    H173604   1.541   6.575  16.601 -0.5585 -0.2058 -0.7007
17371TIP3    H273605   1.597   6.706  16.654 -1.7685  0.0612 -0.0418
17372TIP3   OH273606   1.921   5.113  13.846  0.3631 -0.0311 -0.2889
17372TIP3    H173607   1.906   5.021  13.823  0.6658 -0.7641  2.1291
17372TIP3    H273608   1.840   5.157  13.823  0.0557 -0.9802 -1.0917
17373TIP3   OH273609   5.923   1.667  11.989  0.6579 -0.3357 -0.4880
17373TIP3    H173610   5.845   1.712  12.022  1.9685  0.9198  1.0617
17373TIP3    H273611   5.898   1.636  11.902 -1.0177  1.5885 -0.7672
17374TIP3   OH273612   4.649   6.380  12.703  0.3134  0.3109 -0.0022
17374TIP3    H173613   4.630   6.291  12.675 -0.5893  0.5207 -0.1109
17374TIP3    H273614   4.698   6.419  12.631 -0.2212  0.2236 -0.4167
17375TIP3   OH273615   3.553   0.907   5.610  0.1232  0.2885  0.0810
17375TIP3    H173616   3.572   0.842   5.542 -0.2580  0.6374 -0.3755
17375TIP3    H273617   3.608   0.882   5.684 -1.2218 -1.5727  0.5506
17376TIP3   OH273618   3.377   3.656  11.836 -0.0527  1.1592  0.5663
17376TIP3    H173619   3.448   3.597  11.860 -1.1248  0.0167  1.0242
17376TIP3    H273620   3.410   3.743  11.858  1.5687  0.7584 -0.1407
17377TIP3   OH273621   3.960   6.446  13.127  0.8660 -0.0761 -0.3247
17377TIP3    H173622   3.964   6.507  13.201 -0.5664 -0.2211 -0.1047
17377TIP3    H273623   4.039   6.467  13.076  1.1783  0.9461  0.5174
17378TIP3   OH273624   5.239   6.647   5.728 -0.3401 -0.3583  0.0531
17378TIP3    H173625   5.145   6.657   5.740 -0.3589 -0.6522  0.1665
17378TIP3    H273626   5.268   6.598   5.805  0.3009  1.8390  1.2721
17379TIP3   OH273627   5.400   1.503  16.114 -0.1938  0.4371  0.2326
17379TIP3    H173628   5.480   1.500  16.167  0.5168 -0.0048 -0.8162
17379TIP3    H273629   5.376   1.596  16.111  1.8420  0.9901 -1.6254
17380TIP3   OH273630   1.826   5.083  11.073 -0.0558 -0.4886  0.2707
17380TIP3    H173631   1.836   5.004  11.021 -0.9524 -1.2395  1.1894
17380TIP3    H273632   1.732   5.103  11.068  0.2050  0.7295 -0.2293
17381TIP3   OH273633   1.937   3.565   4.254  0.3468 -0.1517 -0.2471
17381TIP3    H173634   2.013   3.609   4.214  1.2510 -0.9136  0.5869
17381TIP3    H273635   1.864   3.625   4.238  0.9154  0.1621 -1.9053
17382TIP3   OH273636   2.702   5.581  16.858  0.1381 -0.1163  0.6595
17382TIP3    H173637   2.647   5.551  16.786  0.6397  2.2078 -0.8037
17382TIP3    H273638   2.643   5.631  16.914 -0.2074 -1.7511  1.8276
17383TIP3   OH273639   2.455   3.519  11.316 -0.5616  0.1977 -0.3303
17383TIP3    H173640   2.385   3.536  11.380 -1.5718 -0.6076 -1.1941
17383TIP3    H273641   2.469   3.425  11.321  1.3289  0.4823  0.6769
17384TIP3   OH273642   0.061   0.210   3.518 -0.1678  0.3667  0.0211
17384TIP3    H173643   0.057   0.120   3.551  0.4613 -0.0850 -1.0474
17384TIP3    H273644   0.150   0.239   3.539  0.3426 -0.0281 -1.4248
17385TIP3   OH273645   3.434   1.516  16.280  0.1201  0.3487  0.3210
17385TIP3    H173646   3.435   1.422  16.262 -0.4400  0.3067  0.4804
17385TIP3    H273647   3.384   1.554  16.208  0.5690  0.5573  0.1184
17386TIP3   OH273648   2.499   6.390   5.982  0.4030 -0.2855 -0.3703
17386TIP3    H173649   2.512   6.479   5.947  1.5173  0.5212  1.9009
17386TIP3    H273650   2.582   6.369   6.025 -0.9492 -1.0548  1.9825
17387TIP3   OH273651   5.940   2.624   5.417 -0.1452 -0.4315 -0.0698
17387TIP3    H173652   5.865   2.649   5.470  0.6244  0.6357  0.5645
17387TIP3    H273653   6.016   2.655   5.468  0.6628 -0.4619 -1.2265
17388TIP3   OH273654   1.729   1.494   5.999 -0.5279 -0.6311 -0.2379
17388TIP3    H173655   1.708   1.458   6.086  0.3807 -0.0882  0.2238
17388TIP3    H273656   1.701   1.427   5.938  0.9176 -2.0625  0.5869
17389TIP3   OH273657   4.530   1.242  14.980 -0.0770 -0.3221 -0.2221
17389TIP3    H173658   4.497   1.156  15.008 -1.3785  0.1935 -0.0980
17389TIP3    H273659   4.584   1.272  15.053 -1.0169 -0.2952  0.4756
17390TIP3   OH273660   3.601   6.021   1.543  0.3253  0.2072  0.2737
17390TIP3    H173661   3.654   5.962   1.490 -1.3508 -1.2153  0.0454
17390TIP3    H273662   3.611   5.988   1.633 -0.8969 -0.7452  0.1005
17391TIP3   OH273663   5.355   0.582  14.237 -0.8298  0.0054  0.3054
17391TIP3    H173664   5.402   0.596  14.155  1.2567 -2.5376  0.9349
17391TIP3    H273665   5.279   0.529  14.211 -0.1912 -0.7709 -0.0348
17392TIP3   OH273666   5.853   6.126  11.762 -0.1181 -0.0113 -0.1629
17392TIP3    H173667   5.946   6.145  11.773 -0.1083 -1.0765  2.4012
17392TIP3    H273668   5.851   6.037  11.725 -0.0978 -0.3146  0.5551
17393TIP3   OH273669   1.118   0.616  12.686  0.1755  0.7963 -0.2863
17393TIP3    H173670   1.184   0.662  12.737  0.0303  1.1596 -0.4215
17393TIP3    H273671   1.141   0.523  12.695  0.1751  0.8592  0.3927
17394TIP3   OH273672   2.430   2.239  15.005  0.2034  0.0712  0.2335
17394TIP3    H173673   2.370   2.220  14.933  2.9295  0.9170 -2.4863
17394TIP3    H273674   2.439   2.156  15.052 -0.6786 -0.8877 -1.2150
17395TIP3   OH273675   4.943   3.783   3.005  0.5674  0.2002  0.0523
17395TIP3    H173676   5.021   3.759   3.054  0.1861  1.1219  1.1577
17395TIP3    H273677   4.953   3.740   2.921  0.7962 -2.2504  1.2504
17396TIP3   OH273678   5.850   5.758   5.422 -0.2627 -0.5180  0.0462
17396TIP3    H173679   5.756   5.742   5.429 -0.6413  0.7500 -1.5169
17396TIP3    H273680   5.869   5.824   5.489 -0.1288 -1.9343  1.4599
17397TIP3   OH273681   5.040   2.350  15.546 -0.0157 -0.0551 -0.2145
17397TIP3    H173682   5.008   2.302  15.470  1.5721 -1.0422 -0.3031
17397TIP3    H273683   5.131   2.323  15.556  0.2878  1.2653  1.0931
17398TIP3   OH273684   6.807   6.549   0.171  0.0250  0.1246  0.5443
17398TIP3    H173685   6.804   6.550   0.267  1.1138  1.5339  0.6025
17398TIP3    H273686   6.886   6.501   0.149 -1.1360 -1.7475  0.2615
17399TIP3   OH273687   5.836   0.801   0.288  0.0726  0.5811 -0.4940
17399TIP3    H173688   5.895   0.831   0.356 -0.8676 -0.4161  0.8131
17399TIP3    H273689   5.784   0.878   0.266  0.5516  0.9745 -0.2674
17400TIP3   OH273690   2.256   3.036  11.975  0.3438 -0.3328  0.3880
17400TIP3    H173691   2.226   3.065  11.889 -0.7195 -0.2529  0.7690
17400TIP3    H273692   2.235   3.109  12.034  3.5500  0.7728  0.3108
17401TIP3   OH273693   6.092   2.926  16.176 -0.0757 -0.4853 -0.3341
17401TIP3    H173694   6.157   2.900  16.110 -0.7554  0.3348 -1.3653
17401TIP3    H273695   6.144   2.942  16.255  0.8790 -0.5860 -0.9215
17402TIP3   OH273696   0.529   0.901  13.529  0.5106 -0.6795  0.4790
17402TIP3    H173697   0.553   0.865  13.443  0.0344 -0.7376  0.3649
17402TIP3    H273698   0.606   0.888  13.584  0.7154 -0.9034  0.1386
17403TIP3   OH273699   2.317   0.257   3.215 -0.4280  0.0243  0.6084
17403TIP3    H173700   2.281   0.181   3.169  0.8473 -0.0812 -0.2627
17403TIP3    H273701   2.367   0.304   3.148  0.4418  0.5559  1.6016
17404TIP3   OH273702   1.659   6.792  12.823 -0.6196  1.1229 -0.2067
17404TIP3    H173703   1.755   6.789  12.820 -0.6165 -0.2064  0.1908
17404TIP3    H273704   1.639   6.806  12.915 -0.8028  1.0697 -0.2394
17405TIP3   OH273705   0.046   5.957   3.783 -0.3439  0.2368 -0.4701
17405TIP3    H173706  -0.034   6.000   3.813 -0.2566 -0.0231  0.1469
17405TIP3    H273707   0.114   6.024   3.791 -0.5451  0.5327 -1.2314
17406TIP3   OH273708   3.235   5.774  11.009 -0.0636 -0.5342  0.3666
17406TIP3    H173709   3.295   5.724  11.064 -0.3410 -0.3449  0.8476
17406TIP3    H273710   3.290   5.810  10.939 -0.0645 -2.5440 -0.7307
17407TIP3   OH273711   5.726   4.012   3.454  0.4546 -0.3963 -0.1090
17407TIP3    H173712   5.759   3.953   3.522  0.6779 -0.5736 -0.3679
17407TIP3    H273713   5.668   4.072   3.501  0.6380 -0.4888  0.2454
17408TIP3   OH273714   3.369   1.067  14.770  0.2156 -0.1656 -0.2436
17408TIP3    H173715   3.381   1.037  14.860 -1.9896 -0.2190  0.0977
17408TIP3    H273716   3.318   0.998  14.728  0.3691  0.3133 -1.2526
17409TIP3   OH273717   0.497   6.263  13.450  0.1742  0.3605 -0.2516
17409TIP3    H173718   0.588   6.246  13.428  0.6783  0.8281  1.3058
17409TIP3    H273719   0.488   6.358  13.445 -0.1710  0.3319 -0.2040
17410TIP3   OH273720   1.773   3.255   0.169 -0.1052 -0.0853  0.0445
17410TIP3    H173721   1.842   3.319   0.153 -1.2085  0.8612 -1.1067
17410TIP3    H273722   1.729   3.286   0.248 -0.1907  0.1876 -0.1094
17411TIP3   OH273723   0.831   4.671  13.328  0.3834 -0.0282 -0.0061
17411TIP3    H173724   0.738   4.685  13.345  0.8042  1.6832  1.1416
17411TIP3    H273725   0.875   4.739  13.379  2.1989  0.1211 -1.6576
17412TIP3   OH273726   3.031   4.683   0.202 -0.0273  0.3143  0.1054
17412TIP3    H173727   2.972   4.667   0.128 -0.6331  0.5974  0.5252
17412TIP3    H273728   3.033   4.600   0.249  0.3756  0.1268 -0.2317
17413TIP3   OH273729   4.563   0.773   3.098  0.0280 -0.2646  0.4501
17413TIP3    H173730   4.581   0.808   3.185  3.2946 -0.5381 -0.0047
17413TIP3    H273731   4.542   0.851   3.046 -1.7042 -0.0757  1.3592
17414TIP3   OH273732   2.266   0.940   3.021  0.1287 -0.1417 -0.2807
17414TIP3    H173733   2.290   0.865   2.966  2.8302 -0.8676  1.6369
17414TIP3    H273734   2.262   0.904   3.110 -0.5619  1.6099  0.4388
17415TIP3   OH273735   1.921   1.673   4.013  0.1605  1.0287 -0.0533
17415TIP3    H173736   1.981   1.744   3.992  2.1373 -0.9337 -1.4840
17415TIP3    H273737   1.976   1.608   4.057 -1.3994 -0.0045  0.4518
17416TIP3   OH273738   1.570   5.284  17.067 -0.7621 -0.5044  0.7740
17416TIP3    H173739   1.664   5.293  17.078 -0.6065  0.3124 -0.9088
17416TIP3    H273740   1.544   5.217  17.131  1.1359 -1.6297  0.4288
17417TIP3   OH273741   0.950   1.331  10.882 -0.5381  0.3345 -0.1392
17417TIP3    H173742   0.925   1.288  10.800 -0.1583 -1.7803  0.7897
17417TIP3    H273743   1.020   1.391  10.857 -1.3232  0.7144 -1.5589
17418TIP3   OH273744   0.683   0.357   5.507 -0.3715  0.2404  0.2760
17418TIP3    H173745   0.651   0.407   5.432 -1.7252  0.9929  1.3142
17418TIP3    H273746   0.610   0.300   5.531  0.9029 -1.8529 -0.4753
17419TIP3   OH273747   2.541   2.190  11.101  0.0161  0.0042 -0.5735
17419TIP3    H173748   2.554   2.125  11.031 -1.1173 -0.3269 -0.5127
17419TIP3    H273749   2.569   2.145  11.181  0.0322 -0.1100 -0.6420
17420TIP3   OH273750   1.663   6.595   5.041  0.0639  0.2675 -0.1756
17420TIP3    H173751   1.571   6.593   5.012 -0.4402 -1.2046  1.3662
17420TIP3    H273752   1.661   6.643   5.123 -0.0364 -2.8709  1.8174
17421TIP3   OH273753   1.701   4.661   5.936 -0.6241  0.2281 -0.0720
17421TIP3    H173754   1.692   4.697   6.025  0.7727  0.4957 -0.0024
17421TIP3    H273755   1.753   4.581   5.948 -0.0782  0.4815 -0.6736
17422TIP3   OH273756   0.677   1.896  17.058  0.0700  0.6906  0.1449
17422TIP3    H173757   0.623   1.853  16.992 -2.1177  1.0612  1.6153
17422TIP3    H273758   0.651   1.988  17.054 -1.4621  0.4561  2.6743
17423TIP3   OH273759   2.979   5.085  17.292  0.0433 -0.5612 -0.4711
17423TIP3    H173760   3.064   5.044  17.273  0.1349  0.0167 -1.3569
17423TIP3    H273761   2.939   5.098  17.206 -0.2682  0.6097 -0.1652
17424TIP3   OH273762   3.956   2.867   5.404  0.3343 -0.3602  0.1788
17424TIP3    H173763   3.903   2.876   5.483  0.1085 -3.6508  0.5308
17424TIP3    H273764   3.903   2.907   5.335 -0.3185  0.8506  1.3324
17425TIP3   OH273765   2.356   3.509  14.180 -0.4847  0.1964  0.6716
17425TIP3    H173766   2.318   3.577  14.235 -2.2448 -1.5670  1.7731
17425TIP3    H273767   2.448   3.534  14.171 -0.8863  2.2423  1.6973
17426TIP3   OH273768   3.304   3.354   1.647  0.5784  0.1191 -0.5297
17426TIP3    H173769   3.339   3.437   1.614  1.8952 -0.0413  0.3802
17426TIP3    H273770   3.213   3.373   1.670  0.8075  1.2638 -0.4979
17427TIP3   OH273771   1.089   1.369  16.391  0.2713  0.1448 -0.1685
17427TIP3    H173772   1.090   1.303  16.460 -1.5208  1.1093  0.8486
17427TIP3    H273773   1.163   1.426  16.412  1.4599 -1.1548 -0.7099
17428TIP3   OH273774   4.088   0.421   3.379 -1.0226  0.0090 -0.1129
17428TIP3    H173775   4.027   0.466   3.321 -3.0768 -0.6889  1.4277
17428TIP3    H273776   4.069   0.454   3.466  0.7968 -0.2759  0.4397
17429TIP3   OH273777   3.424   1.585  14.533  0.3425 -0.7400  0.0544
17429TIP3    H173778   3.409   1.668  14.489  1.3824 -0.9618 -0.7699
17429TIP3    H273779   3.361   1.583  14.605 -0.0895  0.4866 -0.2805
17430TIP3   OH273780   0.801   3.330  15.640 -0.3566 -0.3828  0.0631
17430TIP3    H173781   0.731   3.366  15.586 -0.8804  1.0107  1.6008
17430TIP3    H273782   0.879   3.336  15.585 -0.8629  0.9726 -0.5600
17431TIP3   OH273783   4.019   2.324   1.661 -0.6047 -0.2425  0.0088
17431TIP3    H173784   3.978   2.387   1.720  0.6864 -0.4937  1.2374
17431TIP3    H273785   3.948   2.266   1.635 -1.6814  1.3003 -0.6219
17432TIP3   OH273786   5.795   2.823   3.182 -0.2526 -0.5706 -0.0194
17432TIP3    H173787   5.798   2.733   3.216 -0.2484 -0.5999 -0.0991
17432TIP3    H273788   5.885   2.853   3.186 -0.1962 -0.6975 -0.3417
17433TIP3   OH273789   3.460   4.786   5.068  0.1790  0.1922  0.0956
17433TIP3    H173790   3.470   4.693   5.052  0.3288 -0.3576  2.8781
17433TIP3    H273791   3.505   4.829   4.995  1.0079 -1.9033 -0.6812
17434TIP3   OH273792   6.002   0.591  16.283  0.3356  0.1824 -0.0152
17434TIP3    H173793   6.068   0.577  16.351  0.8026 -4.6092 -1.0757
17434TIP3    H273794   6.045   0.648  16.220  1.6361  0.9906  1.5261
17435TIP3   OH273795   2.932   3.404   0.892  0.4526  0.6190  0.2923
17435TIP3    H173796   2.888   3.321   0.876 -0.8405  1.4557 -0.6730
17435TIP3    H273797   2.963   3.398   0.983  2.8959 -1.9997 -0.5487
17436TIP3   OH273798   6.257   3.478  12.274  0.9844  0.2969 -0.2409
17436TIP3    H173799   6.237   3.571  12.267  0.7873  0.3447  0.8304
17436TIP3    H273800   6.338   3.468  12.224  0.9533  1.0226 -0.4545
17437TIP3   OH273801   6.551   4.311   3.209  0.0786 -0.1275 -0.4187
17437TIP3    H173802   6.511   4.231   3.176  0.9825 -0.1341 -1.5687
17437TIP3    H273803   6.480   4.375   3.208 -0.6467 -0.8883  0.4979
17438TIP3   OH273804   5.326   2.158   2.115  0.5322 -0.5186 -0.1777
17438TIP3    H173805   5.349   2.227   2.178  0.0909  0.2770 -0.8716
17438TIP3    H273806   5.242   2.125   2.146  0.3223 -0.1365 -0.3280
17439TIP3   OH273807   4.285   5.909   1.237  0.0043  0.6458  0.2380
17439TIP3    H173808   4.205   5.857   1.233 -0.5206  1.3148  1.4868
17439TIP3    H273809   4.327   5.881   1.319  0.4623  1.1186  0.1689
17440TIP3   OH273810   6.340   2.896   4.821  0.0944  0.3873 -0.4394
17440TIP3    H173811   6.317   2.940   4.902  1.4911 -0.9432  0.7520
17440TIP3    H273812   6.370   2.809   4.849 -0.9791 -0.7222 -2.5311
17441TIP3   OH273813   0.205   5.327  12.354  0.0880  0.0840  0.3470
17441TIP3    H173814   0.296   5.297  12.362  0.1690  0.6134  1.8543
17441TIP3    H273815   0.176   5.338  12.445 -2.3965 -2.6281  0.0107
17442TIP3   OH273816   6.731   0.763  12.787 -0.0668 -0.5672 -0.0197
17442TIP3    H173817   6.813   0.748  12.833  0.4610  1.6440 -0.0891
17442TIP3    H273818   6.682   0.682  12.795  1.1250 -1.1248  2.0992
17443TIP3   OH273819   6.526   2.854  13.914  0.2528 -0.1005 -0.1015
17443TIP3    H173820   6.564   2.785  13.967 -0.3238 -0.6358 -0.3610
17443TIP3    H273821   6.492   2.917  13.977 -0.9365 -1.0081  0.2013
17444TIP3   OH273822   2.374   0.406   0.102 -0.0399  0.5433 -0.1904
17444TIP3    H173823   2.359   0.476   0.166  2.1055  0.0484  0.9449
17444TIP3    H273824   2.397   0.330   0.155  0.2851 -0.2988 -1.4986
17445TIP3   OH273825   2.944   3.831  15.583 -0.5573 -0.0135  0.3511
17445TIP3    H173826   3.033   3.858  15.560 -0.4774  0.4622  1.1562
17445TIP3    H273827   2.903   3.911  15.616 -0.1606 -0.8753  3.3104
17446TIP3   OH273828   6.716   3.438  16.403 -0.5924  0.4304  0.1643
17446TIP3    H173829   6.755   3.359  16.364 -2.3728 -1.1005  1.3357
17446TIP3    H273830   6.770   3.510  16.370  0.8909 -1.2303 -1.2266
17447TIP3   OH273831   2.066   6.195   2.352 -0.1908 -0.4707 -0.7762
17447TIP3    H173832   2.150   6.227   2.320  0.8758 -0.0435  2.1565
17447TIP3    H273833   2.009   6.272   2.350 -0.0451 -0.3726 -1.2785
17448TIP3   OH273834   0.442   6.626  13.935  0.2838 -0.0103 -1.1329
17448TIP3    H173835   0.408   6.675  14.011  1.2914  0.4769 -0.9824
17448TIP3    H273836   0.367   6.574  13.905 -0.5039  0.7915 -0.6175
17449TIP3   OH273837   6.813   4.637   5.657  0.3160  0.1591  0.7533
17449TIP3    H173838   6.859   4.719   5.674 -0.2611  0.3059  1.6724
17449TIP3    H273839   6.881   4.570   5.657  0.6557  0.5011  1.0718
17450TIP3   OH273840   2.817   3.159  13.293  0.7672 -0.3858  0.0567
17450TIP3    H173841   2.794   3.086  13.350  0.9895  1.4555  2.7056
17450TIP3    H273842   2.737   3.211  13.287  0.0748 -1.5697 -3.2464
17451TIP3   OH273843   0.040   2.270  14.263  0.1691 -0.6160 -0.4563
17451TIP3    H173844   0.077   2.194  14.308 -1.1758 -0.0147  1.8268
17451TIP3    H273845   0.101   2.341  14.284 -0.4577 -0.3364  0.5019
17452TIP3   OH273846   6.616   5.394   2.278 -0.7817 -0.2944 -0.5744
17452TIP3    H173847   6.656   5.479   2.261 -0.6965 -0.5919 -2.0133
17452TIP3    H273848   6.645   5.339   2.204 -0.3588 -1.7340  0.6128
17453TIP3   OH273849   5.662   2.732   3.781 -0.4604  0.0629  0.3550
17453TIP3    H173850   5.588   2.786   3.808 -0.5962  0.0143  0.0941
17453TIP3    H273851   5.687   2.767   3.695  0.4241  0.6736  0.8539
17454TIP3   OH273852   2.338   0.982  11.387 -0.4151 -0.7266  0.5838
17454TIP3    H173853   2.316   0.924  11.459 -3.2620  0.6913  1.0412
17454TIP3    H273854   2.357   1.066  11.428 -0.5018 -0.2959 -0.2210
17455TIP3   OH273855   2.329   3.938  15.076  0.2841 -0.2362  0.1635
17455TIP3    H173856   2.256   3.982  15.034 -0.0446 -0.0371  0.9281
17455TIP3    H273857   2.310   3.845  15.066  1.4893 -0.2780 -2.3527
17456TIP3   OH273858   2.170   2.480   0.866 -0.0036 -0.0372  0.5504
17456TIP3    H173859   2.075   2.497   0.863 -0.0337  0.4606  2.8669
17456TIP3    H273860   2.194   2.467   0.774 -2.4879 -1.2248 -0.0367
17457TIP3   OH273861   2.154   5.283   1.133  0.3553 -0.8813 -0.0167
17457TIP3    H173862   2.227   5.327   1.176  0.1673 -0.5512 -0.0263
17457TIP3    H273863   2.116   5.227   1.201 -0.4745  0.2818  0.5336
17458TIP3   OH273864   1.029   0.821   2.638 -0.0873  0.2928  0.0971
17458TIP3    H173865   1.048   0.761   2.710  0.5494  0.6861  0.2670
17458TIP3    H273866   0.948   0.787   2.599  1.2207 -1.7943 -0.9947
17459TIP3   OH273867   5.488   2.709  16.528 -0.8415  0.0119  0.2138
17459TIP3    H173868   5.416   2.760  16.492 -1.2162 -0.3033  0.5169
17459TIP3    H273869   5.520   2.761  16.601  0.8167  1.3354 -1.3598
17460TIP3   OH273870   3.638   3.918  12.630  0.1132 -0.0309 -0.4762
17460TIP3    H173871   3.720   3.939  12.676  0.3131 -2.5164  0.4358
17460TIP3    H273872   3.571   3.919  12.698 -0.5736  1.3565 -1.1150
17461TIP3   OH273873   6.432   2.780   0.207 -0.0633 -0.1823  0.6105
17461TIP3    H173874   6.436   2.762   0.301 -0.7811  0.9299  0.8703
17461TIP3    H273875   6.348   2.744   0.179  0.4498 -1.1241  0.2425
17462TIP3   OH273876   5.527   6.015  15.852  0.0685  0.0407 -0.0137
17462TIP3    H173877   5.532   5.919  15.857 -2.1067 -0.1050  0.0245
17462TIP3    H273878   5.492   6.032  15.765 -0.6579  0.7463  0.4066
17463TIP3   OH273879   0.372   2.506  16.458  0.1526 -0.2426 -0.0148
17463TIP3    H173880   0.460   2.484  16.489  0.5739  1.2061 -0.1515
17463TIP3    H273881   0.341   2.425  16.417  0.8662 -1.1940  1.2339
17464TIP3   OH273882   2.905   0.650  13.717  0.2653 -0.2735 -0.0590
17464TIP3    H173883   2.996   0.662  13.745  0.6807  1.5870 -1.9797
17464TIP3    H273884   2.861   0.732  13.741 -0.9520 -1.1491  0.8446
17465TIP3   OH273885   6.492   5.838   3.696  1.0188  0.1792 -0.5742
17465TIP3    H173886   6.553   5.906   3.667  1.8666 -0.1829  0.3121
17465TIP3    H273887   6.534   5.799   3.772  1.2980 -2.4223 -1.9740
17466TIP3   OH273888   5.248   0.489  11.354  0.0215 -0.1062  0.0800
17466TIP3    H173889   5.222   0.398  11.370 -1.3672  0.3095  0.2963
17466TIP3    H273890   5.302   0.484  11.275 -0.4485 -1.0675 -0.2065
17467TIP3   OH273891   2.970   5.134  16.836 -0.0524 -0.0901 -0.5527
17467TIP3    H173892   2.957   5.100  16.925 -0.6007 -1.0280 -0.9658
17467TIP3    H273893   2.883   5.127  16.796  0.2703 -0.0132 -1.2735
17468TIP3   OH273894   5.244   6.079   5.271  0.1284  0.4774 -0.4059
17468TIP3    H173895   5.339   6.078   5.263  0.3709 -0.4594  1.9487
17468TIP3    H273896   5.219   5.987   5.279 -0.6719  0.8077  1.4342
17469TIP3   OH273897   6.328   0.455   2.674  0.1329  0.4588 -0.1228
17469TIP3    H173898   6.282   0.417   2.749  2.8613  0.9794  1.9819
17469TIP3    H273899   6.264   0.513   2.633 -1.9201 -1.0203  0.8163
17470TIP3   OH273900   6.450   5.234  17.282 -0.0353 -0.3232 -0.3077
17470TIP3    H173901   6.474   5.269  17.196 -1.1719 -0.6355 -0.7762
17470TIP3    H273902   6.354   5.238  17.284 -0.0594 -0.9412  0.6752
17471TIP3   OH273903   1.686   4.072  15.976  0.9500 -0.3084 -0.1070
17471TIP3    H173904   1.741   3.996  15.993  1.2163  0.0843  0.9070
17471TIP3    H273905   1.596   4.040  15.984  1.0318 -0.8204 -1.1564
17472TIP3   OH273906   2.153   3.331  16.307 -0.8276  0.3415 -0.1162
17472TIP3    H173907   2.208   3.308  16.381 -2.7634 -1.6613  0.8184
17472TIP3    H273908   2.184   3.276  16.235 -0.8832  0.0697  0.0705
17473TIP3   OH273909   5.610   3.404   6.208  0.6379 -0.2103 -0.1904
17473TIP3    H173910   5.540   3.380   6.269 -0.5536  0.1249 -1.3924
17473TIP3    H273911   5.690   3.371   6.250 -0.1393 -0.0504  1.5147
17474TIP3   OH273912   4.314   3.336   3.353 -0.1229  0.5451  0.3769
17474TIP3    H173913   4.237   3.393   3.352 -0.3356  0.2685 -0.2277
17474TIP3    H273914   4.298   3.275   3.425 -1.2657 -0.5278 -0.7284
17475TIP3   OH273915   4.904   2.868  13.938  0.4395  0.2510  0.0665
17475TIP3    H173916   4.970   2.935  13.922  2.6080 -1.8766 -0.5487
17475TIP3    H273917   4.904   2.857  14.033  1.0474  0.2518  0.0748
17476TIP3   OH273918   3.239   4.404  17.261  0.3973 -0.0942 -0.0759
17476TIP3    H173919   3.213   4.317  17.290  0.3110  0.0299  0.2189
17476TIP3    H273920   3.326   4.392  17.222 -0.3700 -0.6485 -1.7243
17477TIP3   OH273921   2.745   2.851  16.332  0.3444  0.5019  0.4928
17477TIP3    H173922   2.680   2.886  16.392 -1.0429  1.7395 -1.5910
17477TIP3    H273923   2.781   2.775  16.377 -1.6904  0.4746  2.2417
17478TIP3   OH273924   5.786   6.797  14.077 -0.2655  0.2393  0.1546
17478TIP3    H173925   5.805   6.888  14.056 -0.0266  0.3533  0.8275
17478TIP3    H273926   5.824   6.784  14.164 -1.0583 -0.2496  0.4449
17479TIP3   OH273927   2.597   4.848   4.424  0.0494 -0.2821 -0.4385
17479TIP3    H173928   2.556   4.807   4.347  0.4890 -1.2595 -0.1629
17479TIP3    H273929   2.689   4.856   4.400  0.1035 -0.1655 -0.1897
17480TIP3   OH273930   3.409   4.253  16.326  0.0464  0.3219 -0.2439
17480TIP3    H173931   3.365   4.330  16.362 -1.4610 -0.9823  0.8466
17480TIP3    H273932   3.381   4.252  16.234 -1.5644  0.0165  0.2116
17481TIP3   OH273933   2.598   6.185   0.739  0.2722 -0.3597  0.2529
17481TIP3    H173934   2.603   6.090   0.750  1.2649 -0.4959 -1.1220
17481TIP3    H273935   2.638   6.220   0.819 -0.7729 -1.0560  1.1164
17482TIP3   OH273936   4.398   4.527   4.868  0.2194 -0.1031 -0.5439
17482TIP3    H173937   4.399   4.569   4.782 -0.9969 -0.6191 -0.8283
17482TIP3    H273938   4.427   4.437   4.851  0.4593 -0.0669 -0.3301
17483TIP3   OH273939   4.215   0.496   5.588  0.2178  0.4264  0.3256
17483TIP3    H173940   4.270   0.418   5.579 -0.4418 -0.1098  0.8488
17483TIP3    H273941   4.126   0.462   5.597 -0.2979  1.3128 -1.1570
17484TIP3   OH273942   4.765   6.349   0.473  0.3333 -0.7951  0.0826
17484TIP3    H173943   4.778   6.306   0.388 -0.1330 -2.8930  1.0031
17484TIP3    H273944   4.851   6.386   0.494  0.1528  0.9441 -1.8428
17485TIP3   OH273945   1.699   2.642   3.585  0.1163  0.2917 -0.2702
17485TIP3    H173946   1.761   2.670   3.518  2.3792  0.9178  1.9436
17485TIP3    H273947   1.725   2.553   3.607 -1.9441 -0.7186 -1.5830
17486TIP3   OH273948   0.872   6.540   4.123  0.0899 -0.1389  0.3533
17486TIP3    H173949   0.942   6.476   4.111 -1.4703 -1.8118 -0.2720
17486TIP3    H273950   0.808   6.495   4.179 -1.1947  0.7274 -0.3683
17487TIP3   OH273951   4.344   2.995   6.106 -0.1335  0.5519 -0.1593
17487TIP3    H173952   4.287   3.042   6.046  2.2294  0.7542 -2.4294
17487TIP3    H273953   4.294   2.916   6.129 -2.1678  1.7481 -0.1644
17488TIP3   OH273954   5.714   4.072   6.764 -0.8165 -0.3055  0.3716
17488TIP3    H173955   5.774   4.048   6.693  0.0648  0.7043  0.7535
17488TIP3    H273956   5.768   4.119   6.827 -2.3517  2.3467 -0.1539
17489TIP3   OH273957   5.290   3.337   1.423  0.2288  0.0695  0.1393
17489TIP3    H173958   5.313   3.262   1.368  3.3390  1.1270 -0.2145
17489TIP3    H273959   5.290   3.302   1.512 -1.6285 -0.9592 -0.1979
17490TIP3   OH273960   0.223   0.866   5.188  0.5076 -0.3752 -0.2494
17490TIP3    H173961   0.182   0.879   5.274  0.4806  0.5278 -0.3962
17490TIP3    H273962   0.229   0.770   5.180 -0.5869 -0.5098  0.2360
17491TIP3   OH273963   2.600   1.893   1.668  0.7839  0.2823 -0.1498
17491TIP3    H173964   2.656   1.931   1.600 -0.0847  0.3014 -0.8773
17491TIP3    H273965   2.521   1.865   1.621  1.7968 -3.5955  0.0815
17492TIP3   OH273966   3.382   2.120   2.094 -0.3133  0.0779 -0.3894
17492TIP3    H173967   3.433   2.059   2.040 -0.5971  0.7954 -1.5093
17492TIP3    H273968   3.405   2.097   2.184  2.9052  1.0762 -0.8199
17493TIP3   OH273969   0.340   0.789   6.598  0.2845  0.3400  0.0786
17493TIP3    H173970   0.397   0.744   6.535  0.5664 -0.1124  0.6513
17493TIP3    H273971   0.381   0.873   6.613  0.6785  0.1036  0.3196
17494TIP3   OH273972   3.717   6.620   4.995 -0.1873  0.0780 -0.0182
17494TIP3    H173973   3.747   6.540   4.951  0.6084 -0.3025  1.1734
17494TIP3    H273974   3.625   6.627   4.972  0.7268  1.5010 -4.1793
17495TIP3   OH273975   5.239   1.061   1.627  0.0284  0.0352  0.2235
17495TIP3    H173976   5.271   1.137   1.578  1.7151 -0.5881  0.2971
17495TIP3    H273977   5.172   1.097   1.686 -1.4866  0.9229 -1.9275
17496TIP3   OH273978   4.430   1.232  11.325  0.0091  0.1096  0.4215
17496TIP3    H173979   4.408   1.298  11.259  1.3749  0.7711  0.5761
17496TIP3    H273980   4.509   1.190  11.291  0.2071 -0.1662  1.2018
17497TIP3   OH273981   3.113   0.254   4.044 -0.3279 -0.1966 -0.3225
17497TIP3    H173982   3.038   0.314   4.048 -0.7703 -0.6649 -1.3525
17497TIP3    H273983   3.173   0.294   3.981  0.4394  0.3233  0.7109
17498TIP3   OH273984   3.593   0.340  11.388 -0.3074 -0.0995 -0.1370
17498TIP3    H173985   3.593   0.416  11.330 -0.6954 -0.7274 -0.9961
17498TIP3    H273986   3.685   0.313  11.392  0.0374  1.2062  1.2765
17499TIP3   OH273987   5.293   0.949  16.046  0.0413 -0.0706 -0.5960
17499TIP3    H173988   5.275   0.863  16.084 -1.0570  1.0183  1.4483
17499TIP3    H273989   5.262   0.941  15.955 -0.0170 -1.8153 -0.4644
17500TIP3   OH273990   0.066   1.700  16.486 -0.3340  0.1942  0.0302
17500TIP3    H173991   0.008   1.751  16.543 -0.1405 -0.4303  0.7989
17500TIP3    H273992   0.009   1.673  16.414 -1.3799 -1.4774  1.4044
17501TIP3   OH273993   5.714   5.597   2.022  0.7969  1.0990  0.0512
17501TIP3    H173994   5.686   5.673   1.971 -0.5856 -0.0327 -0.9762
17501TIP3    H273995   5.633   5.553   2.046  1.4943  0.8769  2.1503
17502TIP3   OH273996   1.368   1.043   1.637 -0.3125  0.4289 -0.6218
17502TIP3    H173997   1.394   1.098   1.563 -0.0103 -2.2941 -2.6835
17502TIP3    H273998   1.392   0.954   1.611 -0.6501 -0.7340  2.5877
17503TIP3   OH273999   2.796   2.891   5.779  0.0459 -0.3102 -0.0672
17503TIP3    H174000   2.810   2.896   5.873 -2.1476 -0.2245  0.3134
17503TIP3    H274001   2.863   2.947   5.741  1.4761 -0.9625  1.3553
17504TIP3   OH274002   4.931   2.884   3.326 -0.1535  0.5556  0.0102
17504TIP3    H174003   4.916   2.847   3.413  0.4162 -0.2819 -0.2438
17504TIP3    H274004   5.026   2.884   3.315 -0.2553 -0.3857 -1.0486
17505TIP3   OH274005   2.252   2.069   1.217  0.5393  0.3252  0.2773
17505TIP3    H174006   2.200   2.069   1.298  2.5796 -0.1416  1.6856
17505TIP3    H274007   2.217   1.996   1.166  1.1096 -1.3868  2.1598
17506TIP3   OH274008   2.276   6.119  12.912  0.2329 -0.1013 -0.4445
17506TIP3    H174009   2.229   6.200  12.933  1.1902  0.0689  1.1939
17506TIP3    H274010   2.254   6.102  12.820 -2.5644  0.2457  0.0990
17507TIP3   OH274011   0.368   1.117  15.244  0.1450  0.0007 -0.4006
17507TIP3    H174012   0.337   1.207  15.255 -1.8281 -0.6362 -0.2279
17507TIP3    H274013   0.292   1.070  15.209  1.5115 -1.3531 -1.6922
17508TIP3   OH274014   3.412   2.566   5.332  0.8732 -0.5060  0.4072
17508TIP3    H174015   3.465   2.601   5.261  0.2006  1.3181  0.7314
17508TIP3    H274016   3.324   2.557   5.295  0.3028  1.3170  1.1622
17509TIP3   OH274017   4.268   0.671  10.666 -0.3343  0.2936 -0.7620
17509TIP3    H174018   4.176   0.658  10.644 -0.2034 -0.2594 -0.9804
17509TIP3    H274019   4.305   0.718  10.591 -0.0987 -0.7868 -1.3315
17510TIP3   OH274020   5.933   0.450  13.498 -0.0800  0.4151  0.0399
17510TIP3    H174021   5.903   0.456  13.407  0.3527  0.5179 -0.1016
17510TIP3    H274022   6.014   0.399  13.492 -0.5410 -0.3976  0.4860
17511TIP3   OH274023   4.698   0.137  16.109 -0.2829  0.0959 -0.1299
17511TIP3    H174024   4.642   0.167  16.181 -0.6950  2.0930 -1.2291
17511TIP3    H274025   4.760   0.078  16.151 -0.8531  0.7748  1.7768
17512TIP3   OH274026   4.162   0.268  10.716 -0.4571 -0.1116  0.1014
17512TIP3    H174027   4.159   0.249  10.810 -0.6512  1.4694  0.4464
17512TIP3    H274028   4.227   0.208  10.681  1.1557  0.6744  1.6201
17513TIP3   OH274029   1.971   6.132  13.694  0.7455  0.7119  0.6209
17513TIP3    H174030   1.984   6.077  13.771 -1.7812  0.4301  0.9052
17513TIP3    H274031   1.966   6.221  13.727  1.9302  0.8473  0.4845
17514TIP3   OH274032   5.613   1.183  14.243  0.1836 -0.1113 -0.0266
17514TIP3    H174033   5.679   1.224  14.299  0.7201 -0.9288 -0.0345
17514TIP3    H274034   5.571   1.118  14.299 -1.2246  0.9853  0.2247
17515TIP3   OH274035   5.572   1.397   2.920 -0.4902  0.2401 -0.3499
17515TIP3    H174036   5.662   1.430   2.921 -0.6144  0.6255 -1.1399
17515TIP3    H274037   5.578   1.310   2.960  0.9160 -1.3767 -3.6252
17516TIP3   OH274038   2.752   5.562  14.473 -0.2326  0.3560 -0.6172
17516TIP3    H174039   2.724   5.472  14.456 -0.6804  0.5751 -1.0677
17516TIP3    H274040   2.848   5.558  14.469 -0.1094 -0.5329  1.6057
17517TIP3   OH274041   2.801   6.660  14.878 -0.0741 -0.0586  0.2224
17517TIP3    H174042   2.887   6.626  14.903  0.7980  0.8549 -1.3732
17517TIP3    H274043   2.820   6.735  14.821 -1.9121 -0.0703 -0.4780
17518TIP3   OH274044   1.162   2.036  12.586 -0.2805 -0.6303 -0.1692
17518TIP3    H174045   1.112   2.068  12.510 -0.2929 -0.4285 -0.0766
17518TIP3    H274046   1.139   1.943  12.592 -0.7960 -0.4996 -0.0179
17519TIP3   OH274047   4.373   4.672  12.892 -0.2223 -0.1913 -0.3199
17519TIP3    H174048   4.389   4.656  12.799  1.9546  0.0897 -0.0499
17519TIP3    H274049   4.408   4.594  12.936  2.1239  1.1953  0.4382
17520TIP3   OH274050   2.137   0.130  14.406  0.5374 -0.6511 -0.1564
17520TIP3    H174051   2.222   0.173  14.407  0.7077 -0.8542  2.4294
17520TIP3    H274052   2.154   0.044  14.367  1.4698 -0.5901  0.0843
17521TIP3   OH274053   2.545   3.502  14.896  0.3831  0.4068  0.2648
17521TIP3    H174054   2.519   3.446  14.822  0.2762  1.1490 -0.2725
17521TIP3    H274055   2.560   3.588  14.856  0.4111  0.7933  1.1006
17522TIP3   OH274056   4.457   0.700  11.576 -0.1594  0.6966 -0.2706
17522TIP3    H174057   4.487   0.772  11.631 -0.8566 -1.8054  3.8085
17522TIP3    H274058   4.364   0.717  11.561  0.0349  1.3827 -0.7873
17523TIP3   OH274059   2.816   0.951  13.735 -0.8217  0.2853 -0.3906
17523TIP3    H174060   2.725   0.923  13.724 -0.7682  0.3533 -1.0859
17523TIP3    H274061   2.844   0.912  13.817 -1.2507 -0.3527 -0.5397
17524TIP3   OH274062   3.055   5.792  14.263 -0.6893  0.1245 -0.5287
17524TIP3    H174063   3.093   5.789  14.176 -0.2256  0.0803 -0.3238
17524TIP3    H274064   3.024   5.703  14.279  0.7868 -0.3151  0.0426
17525TIP3   OH274065   3.204   3.653   5.751  0.3621  0.2767 -0.6360
17525TIP3    H174066   3.289   3.640   5.792  1.3716 -1.3481 -3.0341
17525TIP3    H274067   3.191   3.576   5.696 -2.6195  0.5477 -0.4912
17526TIP3   OH274068   3.445   2.096  17.258  0.4560  0.1572  0.1159
17526TIP3    H174069   3.494   2.090  17.341  2.9710  3.8273 -0.8504
17526TIP3    H274070   3.482   2.026  17.204 -1.2546 -2.3353  1.9089
17527TIP3   OH274071   0.655   3.415   2.602 -0.0152  0.6617 -0.2938
17527TIP3    H174072   0.590   3.440   2.537  1.6298  1.5309 -1.6778
17527TIP3    H274073   0.642   3.478   2.674 -1.7708 -0.2444  0.2242
17528TIP3   OH274074   2.415   4.857  12.963 -0.0091  0.0013 -0.1740
17528TIP3    H174075   2.434   4.896  13.048 -1.4181 -2.4319  1.3656
17528TIP3    H274076   2.345   4.911  12.926  1.1283  1.5233 -0.1978
17529TIP3   OH274077   4.537   6.644  17.002 -0.0644  0.1536  0.1617
17529TIP3    H174078   4.593   6.568  16.985 -1.0527 -0.9516  1.6242
17529TIP3    H274079   4.531   6.689  16.918  2.5766  0.0451 -0.1804
17530TIP3   OH274080   5.397   3.190  11.497 -0.4810 -0.0569 -0.1523
17530TIP3    H174081   5.404   3.134  11.575 -2.3569 -1.1905 -0.7424
17530TIP3    H274082   5.367   3.275  11.531 -2.1061 -0.7854  0.3281
17531TIP3   OH274083   0.029   3.576   5.163 -0.4307  0.1834  0.4719
17531TIP3    H174084   0.013   3.488   5.198  0.0111  0.1140  0.5019
17531TIP3    H274085  -0.032   3.632   5.211 -2.7745 -0.4934 -1.4827
17532TIP3   OH274086   6.783   4.640   0.337 -0.3163 -0.1785  0.2310
17532TIP3    H174087   6.869   4.662   0.373  0.1016 -2.4004  0.7773
17532TIP3    H274088   6.757   4.561   0.385 -1.5923 -0.9284 -1.5870
17533TIP3   OH274089   1.380   6.247  14.931 -0.5859 -0.0434  0.1003
17533TIP3    H174090   1.373   6.334  14.969  0.9995  1.0036 -1.8078
17533TIP3    H274091   1.330   6.253  14.849  2.1052  0.1522 -1.6466
17534TIP3   OH274092   5.334   5.575  13.817 -0.0787  0.1840 -0.2487
17534TIP3    H174093   5.282   5.582  13.897  0.3095 -0.6106  0.0850
17534TIP3    H274094   5.291   5.508  13.765 -0.7450  1.1945 -1.0507
17535TIP3   OH274095   4.237   6.567  14.036 -0.0064 -0.0060 -0.4929
17535TIP3    H174096   4.168   6.630  14.015  1.2052  0.6822 -2.7387
17535TIP3    H274097   4.317   6.618  14.042  0.6234 -1.0270  0.2347
17536TIP3   OH274098   2.368   4.335  13.294 -0.0017 -0.1310  0.2139
17536TIP3    H174099   2.430   4.273  13.333 -0.2314  0.0892  0.9544
17536TIP3    H274100   2.352   4.301  13.206  1.7750  0.2337 -0.2987
17537TIP3   OH274101   3.793   1.120   5.177  0.3205 -0.5746 -0.7015
17537TIP3    H174102   3.849   1.158   5.245 -0.2584  1.0654 -1.0793
17537TIP3    H274103   3.733   1.062   5.224  0.9606 -0.7037 -0.0336
17538TIP3   OH274104   3.676   3.487   1.970  0.6042 -0.4293 -0.1986
17538TIP3    H174105   3.596   3.538   1.958  0.1759 -1.0366 -0.0013
17538TIP3    H274106   3.733   3.515   1.898  0.2650  0.1015 -0.2699
17539TIP3   OH274107   5.155   2.721   5.523 -0.5780  0.9093  0.3868
17539TIP3    H174108   5.163   2.816   5.520 -1.5636  1.0109 -2.1389
17539TIP3    H274109   5.061   2.705   5.523 -0.4324 -0.0490 -0.2226
17540TIP3   OH274110   3.987   3.025   1.670 -0.1557 -0.2786  0.4028
17540TIP3    H174111   3.911   3.077   1.647  1.1853  1.6511  0.0912
17540TIP3    H274112   4.057   3.089   1.684  1.4365 -1.9683  0.6157
17541TIP3   OH274113   4.867   1.243   3.722  0.4816  0.2711 -0.3617
17541TIP3    H174114   4.781   1.265   3.758  0.7938  2.5054 -0.7939
17541TIP3    H274115   4.922   1.230   3.799  0.2219  0.9565 -0.0477
17542TIP3   OH274116   6.380   2.750  16.824 -0.3277  0.2692 -0.0748
17542TIP3    H174117   6.352   2.840  16.839  0.3956  0.4867  0.0188
17542TIP3    H274118   6.402   2.747  16.731 -1.1928 -0.0578 -0.2810
17543TIP3   OH274119   2.985   3.725   2.090  0.2060  0.1106  0.1773
17543TIP3    H174120   3.072   3.692   2.113  0.4361  1.6401  1.6573
17543TIP3    H274121   2.982   3.719   1.995  1.3186 -1.4316  0.2051
17544TIP3   OH274122   5.325   2.468  11.805  0.0891 -0.3763 -0.4583
17544TIP3    H174123   5.287   2.415  11.875 -0.3826 -0.9423 -1.1260
17544TIP3    H274124   5.402   2.418  11.777  0.4233 -0.0241 -0.1819
17545TIP3   OH274125   0.079   5.433   2.158 -0.1242 -0.3686 -0.3231
17545TIP3    H174126   0.082   5.477   2.244 -0.6658  0.1605 -0.5667
17545TIP3    H274127   0.157   5.378   2.157  1.4268  1.7025 -0.5900
17546TIP3   OH274128   1.429   4.604  11.755  0.4684  0.0830  0.2515
17546TIP3    H174129   1.505   4.573  11.805 -0.2491 -0.9431  0.7484
17546TIP3    H274130   1.354   4.584  11.810 -0.5131 -2.6412 -1.8346
17547TIP3   OH274131   0.939   2.646   4.173  0.6240 -0.1641 -0.4695
17547TIP3    H174132   0.900   2.559   4.173  0.3744 -0.0540 -0.4350
17547TIP3    H274133   0.864   2.706   4.182  0.8049  0.0464 -0.3428
17548TIP3   OH274134   0.829   4.319  11.527  0.0948  0.5463 -0.4533
17548TIP3    H174135   0.893   4.370  11.478  0.5270  0.0987 -0.3651
17548TIP3    H274136   0.827   4.233  11.484  2.5433 -0.8457  1.8933
17549TIP3   OH274137   5.071   0.314  15.402 -0.0948 -0.0790 -0.0780
17549TIP3    H174138   5.036   0.272  15.481  0.5223  0.3965  0.4674
17549TIP3    H274139   5.023   0.397  15.395  0.2985  0.1751  0.1748
17550TIP3   OH274140   1.079   5.740   0.350 -0.2884 -0.6136  0.2838
17550TIP3    H174141   1.035   5.815   0.391  1.0911 -0.9063  2.4737
17550TIP3    H274142   1.083   5.763   0.257  1.1290  2.6081  0.9958
17551TIP3   OH274143   3.503   6.113   1.886 -0.0003 -0.4394 -0.3335
17551TIP3    H174144   3.509   6.206   1.864  1.7638 -0.3911  0.2020
17551TIP3    H274145   3.444   6.110   1.961 -2.2155 -0.0930 -1.9399
17552TIP3   OH274146   2.082   1.555   6.164  0.5645  0.4913  0.1688
17552TIP3    H174147   2.075   1.482   6.225  0.3117 -0.3893 -0.8883
17552TIP3    H274148   2.075   1.515   6.077 -0.1673  1.8377 -0.4256
17553TIP3   OH274149   5.001   0.542  12.895 -0.0543 -0.4010 -0.0592
17553TIP3    H174150   4.996   0.456  12.854 -2.3910  0.5118 -2.0371
17553TIP3    H274151   5.030   0.526  12.984 -4.5485 -3.8773  1.1648
17554TIP3   OH274152   0.501   2.552  12.693  1.0294  0.6559 -0.6072
17554TIP3    H174153   0.534   2.638  12.667 -3.1883  2.5999 -0.2799
17554TIP3    H274154   0.490   2.559  12.788  1.0310 -0.4668 -0.5120
17555TIP3   OH274155   2.093   4.581  10.901  0.5296  0.0520 -0.2306
17555TIP3    H174156   2.065   4.638  10.829  1.3525 -0.0877 -0.6661
17555TIP3    H274157   2.082   4.492  10.865  1.2726 -0.0100 -0.3136
17556TIP3   OH274158   5.344   4.713   5.285  0.0030  0.0837 -0.8926
17556TIP3    H174159   5.284   4.676   5.349 -1.2517 -0.0364 -2.0917
17556TIP3    H274160   5.423   4.659   5.292 -0.8352 -1.1814 -0.7907
17557TIP3   OH274161   5.344   5.956   2.108  0.3466  0.0247 -0.1252
17557TIP3    H174162   5.396   5.899   2.052  0.4442  0.8704 -0.9129
17557TIP3    H274163   5.399   6.033   2.122 -0.5647  0.8062 -0.7270
17558TIP3   OH274164   2.522   1.212   1.595 -0.0833  0.5010  0.3330
17558TIP3    H174165   2.473   1.291   1.615 -0.2079  0.1858  1.2960
17558TIP3    H274166   2.551   1.225   1.504 -1.0668  1.1316  0.0915
17559TIP3   OH274167   6.497   0.741   0.109  0.1958  0.0847  0.2849
17559TIP3    H174168   6.483   0.717   0.201  0.0197 -0.1839  0.1868
17559TIP3    H274169   6.416   0.785   0.083  0.4488  0.6460  0.4126
17560TIP3   OH274170   2.348   5.176   5.757 -0.7881  0.3485  0.3804
17560TIP3    H174171   2.341   5.267   5.787 -1.6384  0.1024  0.9770
17560TIP3    H274172   2.258   5.145   5.753 -0.5758 -0.1794 -0.7771
17561TIP3   OH274173   2.935   4.572   4.623  0.2372 -0.4429 -0.0914
17561TIP3    H174174   2.933   4.668   4.623  2.6156 -0.2804  1.8214
17561TIP3    H274175   2.896   4.548   4.707  0.0211 -1.1305 -0.3845
17562TIP3   OH274176   2.971   2.418   4.786 -0.3929  0.1632  0.5161
17562TIP3    H174177   3.034   2.385   4.722 -0.1296  2.3356 -0.4268
17562TIP3    H274178   3.011   2.399   4.871  0.8938  0.3081 -0.0341
17563TIP3   OH274179   5.786   0.500   2.799  0.0000  0.5110  0.2034
17563TIP3    H174180   5.697   0.509   2.764  0.1578 -0.4891 -0.5120
17563TIP3    H274181   5.792   0.408   2.825  1.7895 -0.3269 -2.6363
17564TIP3   OH274182   1.527   2.255   0.108  0.5694  0.6657 -0.7307
17564TIP3    H174183   1.566   2.230   0.024  0.8509  0.8200 -0.6438
17564TIP3    H274184   1.450   2.198   0.116  0.7617  0.3791 -0.9110
17565TIP3   OH274185   0.975   3.204  16.014 -0.1912  0.4726 -0.3525
17565TIP3    H174186   1.054   3.216  16.065  0.6340 -0.2520 -1.4093
17565TIP3    H274187   0.986   3.119  15.972 -1.5082  0.3802 -0.5527
17566TIP3   OH274188   1.066   2.877   1.509  0.5467  0.3066 -0.1249
17566TIP3    H174189   1.031   2.861   1.597 -0.8099 -1.6188 -0.9654
17566TIP3    H274190   1.016   2.953   1.478 -0.2518 -0.1116  0.1046
17567TIP3   OH274191   2.255   2.112  14.495  0.5456 -0.1046 -0.1495
17567TIP3    H174192   2.278   2.130  14.586 -0.4568  0.8373 -0.0670
17567TIP3    H274193   2.259   2.197  14.451  1.7540 -0.6593 -1.1728
17568TIP3   OH274194   6.323   5.762  13.691 -0.0125 -0.5449  0.1998
17568TIP3    H174195   6.348   5.699  13.759 -0.7960  0.3436  1.3498
17568TIP3    H274196   6.367   5.730  13.612  0.4597 -1.9326  0.9780
17569TIP3   OH274197   4.385   4.146   1.837  0.1427 -0.4431 -0.1489
17569TIP3    H174198   4.372   4.061   1.795  1.4036 -0.0202 -1.5187
17569TIP3    H274199   4.298   4.185   1.840 -0.0159 -0.4306 -2.6610
17570TIP3   OH274200   1.533   6.379   1.876  0.0351 -0.7657  0.2491
17570TIP3    H174201   1.600   6.368   1.808  0.6258  2.1806  0.2201
17570TIP3    H274202   1.576   6.350   1.956  0.9377 -0.1146  0.0228
17571TIP3   OH274203   4.842   3.544  16.515  0.1868  0.2954  0.2739
17571TIP3    H174204   4.890   3.517  16.592  0.2171  0.0398  0.1680
17571TIP3    H274205   4.798   3.464  16.485 -0.8546  0.6620  0.7611
17572TIP3   OH274206   0.074   2.721  16.232 -0.2590  0.5932 -0.0047
17572TIP3    H174207   0.053   2.727  16.139 -1.2348  1.6879  0.2604
17572TIP3    H274208   0.168   2.734  16.237 -0.3124  1.3135 -0.7684
17573TIP3   OH274209   1.029   1.910  14.886  0.1116  0.7504 -0.5092
17573TIP3    H174210   1.019   1.880  14.795  0.2322  0.3416 -0.3914
17573TIP3    H274211   1.116   1.879  14.911 -0.5830 -0.6341  0.2929
17574TIP3   OH274212   3.623   5.517   4.216 -0.4781  0.1174  0.2024
17574TIP3    H174213   3.690   5.585   4.230  0.7107 -1.0734  0.5064
17574TIP3    H274214   3.543   5.556   4.250  0.1457  1.4130  0.2743
17575TIP3   OH274215   5.640   5.801  14.694 -0.1460  0.2554  0.2649
17575TIP3    H174216   5.623   5.805  14.788 -0.9591  0.8615  0.1084
17575TIP3    H274217   5.734   5.815  14.685 -0.3366  2.1909  0.8774
17576TIP3   OH274218   1.498   2.141   3.753 -0.0843 -0.3543 -0.4344
17576TIP3    H174219   1.470   2.103   3.836  2.9531 -1.1077  0.4022
17576TIP3    H274220   1.418   2.147   3.700 -1.7022 -2.2203  1.6202
17577TIP3   OH274221   0.416   1.555  13.359 -0.2101  0.1952  0.2066
17577TIP3    H174222   0.418   1.461  13.342 -0.1760  0.2932 -0.3461
17577TIP3    H274223   0.497   1.588  13.320 -1.3908  0.8154 -1.8509
17578TIP3   OH274224   4.686   2.318   3.385 -0.4864 -0.2627  0.0554
17578TIP3    H174225   4.727   2.389   3.336  0.7966 -0.9289  0.1320
17578TIP3    H274226   4.630   2.362   3.449  1.1097  0.7224  0.8155
17579TIP3   OH274227   1.778   2.556   4.412 -0.3309 -0.1590 -0.0150
17579TIP3    H174228   1.692   2.516   4.417 -1.1561  1.5478  0.1868
17579TIP3    H274229   1.811   2.554   4.502 -0.1044 -0.8836 -0.1064
17580TIP3   OH274230   4.049   2.141  15.608  0.0898  0.7999  0.1965
17580TIP3    H174231   4.030   2.106  15.695 -1.3741 -1.4689 -0.9188
17580TIP3    H274232   3.964   2.143  15.564  0.8439  1.5266 -1.2998
17581TIP3   OH274233   1.776   1.934  16.769 -0.0092 -0.1046  0.0701
17581TIP3    H174234   1.844   1.921  16.702  2.2961  1.8860  1.8070
17581TIP3    H274235   1.789   1.862  16.830 -0.4604 -0.5392 -0.3386
17582TIP3   OH274236   5.233   0.108   4.906  0.1756  0.1655 -0.2164
17582TIP3    H174237   5.289   0.148   4.973  0.6841 -0.6076 -0.1602
17582TIP3    H274238   5.145   0.112   4.943  0.4586 -0.3131  0.5512
17583TIP3   OH274239   1.303   1.193  11.742  0.1917  0.1850  0.9296
17583TIP3    H174240   1.250   1.123  11.779 -1.3395  0.7097 -0.1505
17583TIP3    H274241   1.240   1.249  11.695  1.6038  1.2546  0.2150
17584TIP3   OH274242   5.029   0.302   1.465 -0.1439  0.3572 -0.0150
17584TIP3    H174243   4.985   0.378   1.504  0.4893  0.9391 -0.3874
17584TIP3    H274244   5.000   0.228   1.517 -1.7959  0.6623 -0.4448
17585TIP3   OH274245   5.017   2.886  14.532 -0.5956  0.4375  0.1628
17585TIP3    H174246   5.037   2.945  14.459 -1.4320 -0.1392 -0.5467
17585TIP3    H274247   4.922   2.881  14.535 -0.6991  1.9872  2.5736
17586TIP3   OH274248   4.723   4.365   2.965  0.2497  0.1275  0.1573
17586TIP3    H174249   4.662   4.293   2.985  0.9657 -0.2414  1.0491
17586TIP3    H274250   4.718   4.422   3.042  0.2092  0.6745 -0.2489
17587TIP3   OH274251   4.712   6.281   1.166 -0.0224  0.2266  0.5406
17587TIP3    H174252   4.725   6.201   1.116  1.0879  0.7975 -0.1363
17587TIP3    H274253   4.659   6.255   1.241 -1.9492 -0.6377 -1.0148
17588TIP3   OH274254   6.710   4.190  16.529  0.9880  0.2447 -0.1746
17588TIP3    H174255   6.672   4.199  16.616 -0.0666 -0.7948 -0.4909
17588TIP3    H274256   6.646   4.232  16.471  1.0100 -0.2623 -0.5761
17589TIP3   OH274257   5.216   1.362  16.525  0.2152 -0.4029  0.2233
17589TIP3    H174258   5.175   1.410  16.597 -0.6523  0.1054 -0.5839
17589TIP3    H274259   5.263   1.290  16.568  1.3315  0.9926  1.4417
17590TIP3   OH274260   2.505   2.627   0.470 -0.4465 -0.2360  0.5868
17590TIP3    H174261   2.589   2.605   0.432 -0.4857  0.1901  0.2498
17590TIP3    H274262   2.527   2.679   0.548 -0.3616 -1.2491  1.2566
17591TIP3   OH274263   2.290   0.813  10.781 -0.0909 -0.4661  0.3502
17591TIP3    H174264   2.350   0.784  10.712 -1.0390  0.0152 -0.7220
17591TIP3    H274265   2.240   0.734  10.804 -0.3066 -0.4590 -0.0829
17592TIP3   OH274266   1.683   5.765   5.292  0.4503  0.3395 -0.0995
17592TIP3    H174267   1.710   5.856   5.275 -0.0261  0.4526 -0.2549
17592TIP3    H274268   1.689   5.757   5.387  2.3957 -0.0720 -0.2164
17593TIP3   OH274269   3.469   5.530  13.860 -0.2116 -0.2264 -0.2761
17593TIP3    H174270   3.537   5.473  13.895  1.6578  2.3902  0.6680
17593TIP3    H274271   3.483   5.527  13.765  1.6031  0.5955 -0.0871
17594TIP3   OH274272   2.894   2.466  12.941  0.3505  0.8952 -0.2090
17594TIP3    H174273   2.894   2.496  13.032 -0.2187 -0.5349  0.2881
17594TIP3    H274274   2.917   2.373  12.946 -1.5421  0.3218 -1.3399
17595TIP3   OH274275   0.866   0.191   2.604 -0.7359 -0.3864 -0.3192
17595TIP3    H174276   0.773   0.194   2.626 -0.3578 -0.5872  1.4104
17595TIP3    H274277   0.883   0.098   2.586 -0.9777 -0.2628 -1.2817
17596TIP3   OH274278   4.956   6.267  15.729 -0.0839 -0.4833  0.4997
17596TIP3    H174279   4.881   6.241  15.782 -1.3209  0.1568 -0.9014
17596TIP3    H274280   4.946   6.361  15.717  1.6189 -0.1469  1.2699
17597TIP3   OH274281   5.037   0.931   5.375  0.1592  0.4851 -0.1539
17597TIP3    H174282   4.985   0.996   5.328 -1.8450 -0.3057  0.8570
17597TIP3    H274283   4.973   0.877   5.420  1.8590 -0.9838  0.6236
17598TIP3   OH274284   2.016   0.008  15.332 -0.1217  0.2317 -0.2267
17598TIP3    H174285   2.107   0.033  15.349 -0.9043  2.3277  1.2896
17598TIP3    H274286   2.002   0.032  15.241  0.1768  2.2684  0.2215
17599TIP3   OH274287   3.849   4.042   1.512 -0.5400  0.0163 -0.0693
17599TIP3    H174288   3.809   4.107   1.455  0.3115  1.2191  0.6609
17599TIP3    H274289   3.937   4.074   1.528  0.3850 -2.0115 -0.7507
17600TIP3   OH274290   0.444   2.965  16.117 -0.2392 -0.0360  0.2276
17600TIP3    H174291   0.460   2.879  16.158  2.4248  0.4357  0.3721
17600TIP3    H274292   0.447   3.027  16.190 -0.8844  0.3120 -0.0372
17601TIP3   OH274293   4.513   1.486  15.284 -0.1786  0.0227  0.2559
17601TIP3    H174294   4.483   1.500  15.194  0.3286 -0.3631  0.0188
17601TIP3    H274295   4.462   1.547  15.336 -0.0294  0.7138 -0.3761
17602TIP3   OH274296   4.823   5.522   0.611 -0.0835  0.0480  0.3016
17602TIP3    H174297   4.757   5.533   0.679  0.7044 -0.9746  1.2775
17602TIP3    H274298   4.881   5.454   0.645 -0.0664 -1.0195 -1.6994
17603TIP3   OH274299   4.246   3.487   0.096 -0.3516 -0.1824  0.0900
17603TIP3    H174300   4.200   3.526   0.170  0.6096  1.0221  0.0969
17603TIP3    H274301   4.308   3.555   0.068 -0.8915 -0.4768 -2.0049
17604TIP3   OH274302   3.097   1.309  15.032  0.5174  0.3768  0.3933
17604TIP3    H174303   3.152   1.385  15.050 -0.0423  0.4405  1.9359
17604TIP3    H274304   3.087   1.309  14.936  2.9149  0.5278  0.0798
17605TIP3   OH274305   1.663   3.959  14.428  0.6731  0.1770 -0.6447
17605TIP3    H174306   1.622   3.929  14.509  1.1607 -0.7981 -0.7446
17605TIP3    H274307   1.594   3.951  14.362  1.1143 -1.9451 -0.9161
17606TIP3   OH274308   1.290   4.005   6.004 -0.0709 -0.4722 -0.1029
17606TIP3    H174309   1.367   3.948   5.998  1.2676  0.4964  4.0359
17606TIP3    H274310   1.320   4.090   5.975  0.2405 -0.2656  0.7920
17607TIP3   OH274311   6.405   5.693  14.307  0.0449 -0.3282 -0.2412
17607TIP3    H174312   6.414   5.726  14.396 -1.4722 -0.4930 -0.0047
17607TIP3    H274313   6.310   5.684  14.293  0.1684  0.6689 -2.2259
17608TIP3   OH274314   1.713   1.648  13.606 -0.0742  0.4860  0.2079
17608TIP3    H174315   1.661   1.675  13.530 -1.4628 -0.6717  0.7082
17608TIP3    H274316   1.652   1.598  13.660  1.3805 -0.2708  1.1974
17609TIP3   OH274317   1.430   5.349   1.444  0.3097 -0.6358  0.3738
17609TIP3    H174318   1.398   5.260   1.430  0.1582 -0.7148  1.2080
17609TIP3    H274319   1.360   5.394   1.490  0.5591 -0.2102  0.3464
17610TIP3   OH274320   6.329   4.796   1.156  0.1807 -0.2940 -0.0491
17610TIP3    H174321   6.306   4.889   1.154  1.0742 -0.0493  0.3136
17610TIP3    H274322   6.308   4.768   1.245 -1.0221 -0.7032 -0.4487
17611TIP3   OH274323   4.832   0.420   3.812  0.8543  0.1674 -0.0847
17611TIP3    H174324   4.799   0.510   3.812 -2.9879 -1.0681 -0.3230
17611TIP3    H274325   4.924   0.428   3.786  1.2880  4.1463  1.9277
17612TIP3   OH274326   4.691   3.027   4.123 -0.0119 -0.3630  0.2834
17612TIP3    H174327   4.614   2.986   4.083 -0.8553 -0.1161  1.6150
17612TIP3    H274328   4.686   3.003   4.215  2.3913 -1.6767  0.1399
17613TIP3   OH274329   0.533   5.245   0.799  0.0672 -0.2658 -0.2857
17613TIP3    H174330   0.558   5.185   0.869  0.7686  0.2916 -0.0474
17613TIP3    H274331   0.612   5.255   0.746 -0.1137  0.2488 -0.4707
17614TIP3   OH274332   0.488   3.763   6.648 -0.0682  0.5244  0.4195
17614TIP3    H174333   0.392   3.759   6.648 -0.0415 -1.3861  0.5445
17614TIP3    H274334   0.515   3.671   6.656  1.7675  0.6452 -2.7887
17615TIP3   OH274335   2.124   5.108  13.173 -0.2628 -0.6435 -0.1669
17615TIP3    H174336   2.086   5.025  13.145 -0.5792 -0.2359 -0.9974
17615TIP3    H274337   2.058   5.174  13.149  1.2598  0.1797 -2.4090
17616TIP3   OH274338   3.013   6.680  16.622 -0.2684  0.1540 -0.2389
17616TIP3    H174339   3.061   6.741  16.679 -2.0530  1.3111  0.1050
17616TIP3    H274340   3.055   6.595  16.636 -0.4045  0.4663  2.5350
17617TIP3   OH274341   1.970   2.558  16.349 -0.2309 -0.5940  0.2270
17617TIP3    H174342   2.064   2.553  16.334 -0.1910 -5.3678  0.5429
17617TIP3    H274343   1.932   2.571  16.262  0.6725 -0.6630 -0.1841
17618TIP3   OH274344   0.177   3.370   1.036 -0.3575 -0.0657  0.4766
17618TIP3    H174345   0.107   3.396   0.976 -1.4436  0.8251  2.0433
17618TIP3    H274346   0.255   3.414   1.002 -0.9171  0.3284 -0.3430
17619TIP3   OH274347   4.614   6.485   5.073  0.1198 -0.3443 -0.0172
17619TIP3    H174348   4.672   6.489   4.997 -0.3422 -2.4009 -0.5623
17619TIP3    H274349   4.572   6.571   5.076  0.0469 -0.2416 -2.2175
17620TIP3   OH274350   6.013   4.890   0.112  0.4208 -0.3204 -0.4938
17620TIP3    H174351   5.976   4.950   0.048 -0.5388 -0.0956  0.2473
17620TIP3    H274352   5.937   4.848   0.153  0.9537  0.2211  1.1341
17621TIP3   OH274353   1.720   3.338  13.644 -0.4097  0.0850 -0.4055
17621TIP3    H174354   1.764   3.310  13.563 -1.9628 -1.3525 -0.8077
17621TIP3    H274355   1.710   3.432  13.634  1.0188  0.1963 -1.0590
17622TIP3   OH274356   5.221   6.689  11.239  0.2822 -0.1342 -0.2761
17622TIP3    H174357   5.198   6.673  11.148 -0.0733  1.3109 -0.4601
17622TIP3    H274358   5.148   6.740  11.274  0.3663 -0.7432  0.8570
17623TIP3   OH274359   3.454   3.925  11.857 -0.1620  0.1136  0.7034
17623TIP3    H174360   3.398   3.986  11.810  0.8518  1.5303  1.2481
17623TIP3    H274361   3.543   3.946  11.827  0.2671 -0.6486  1.3985
17624TIP3   OH274362   4.310   6.467  16.387 -0.2812  0.1985  0.3239
17624TIP3    H174363   4.309   6.539  16.450 -0.2831  1.5517 -1.1517
17624TIP3    H274364   4.253   6.401  16.425 -0.8812  1.2865  1.3887
17625TIP3   OH274365   2.198   4.683   2.369  0.4123  0.3426  0.7346
17625TIP3    H174366   2.176   4.660   2.459 -0.3884  0.2231  0.5126
17625TIP3    H274367   2.185   4.778   2.365 -3.6117 -0.0704 -0.2943
17626TIP3   OH274368   1.286   0.327   5.050 -0.0718 -0.2906  0.8287
17626TIP3    H174369   1.248   0.383   5.118  1.0838  3.1901 -1.0894
17626TIP3    H274370   1.381   0.334   5.064  0.1709  0.2323 -0.8347
17627TIP3   OH274371   5.708   0.543  16.365 -0.6030  0.6904  0.1337
17627TIP3    H174372   5.790   0.592  16.354  0.1953 -0.2929  1.3441
17627TIP3    H274373   5.735   0.463  16.409 -2.1044 -0.1134 -0.3537
17628TIP3   OH274374   3.934   0.480  16.488 -0.1430  0.1635 -0.0501
17628TIP3    H174375   3.862   0.469  16.550 -1.9122  0.8012 -1.8468
17628TIP3    H274376   3.913   0.418  16.417  2.2941 -1.2168  0.3386
17629TIP3   OH274377   3.248   5.750   0.791 -0.3300  0.4929  0.1425
17629TIP3    H174378   3.325   5.805   0.811  0.6845 -1.2499  1.2955
17629TIP3    H274379   3.272   5.663   0.823 -3.7529  0.3571  2.9393
17630TIP3   OH274380   3.782   2.516   4.866 -0.5012 -0.5931  0.2625
17630TIP3    H174381   3.790   2.438   4.810  1.3715  0.4459 -1.0282
17630TIP3    H274382   3.735   2.580   4.812  1.8643  0.6363 -0.4828
17631TIP3   OH274383   4.746   3.240  13.405  0.2754 -0.1107  0.3704
17631TIP3    H174384   4.823   3.276  13.361  0.0678 -0.4043 -0.2481
17631TIP3    H274385   4.686   3.313  13.412  0.5968  0.1170  0.8427
17632TIP3   OH274386   2.894   4.893   1.034 -0.1548 -0.3049  0.2152
17632TIP3    H174387   2.973   4.942   1.058 -0.8761  0.5259  0.9791
17632TIP3    H274388   2.822   4.944   1.071 -1.0820 -0.8611 -0.7728
17633TIP3   OH274389   4.857   3.497   4.143  0.6964  0.5279 -0.3957
17633TIP3    H174390   4.861   3.417   4.091  1.5380  0.7225 -0.6596
17633TIP3    H274391   4.878   3.469   4.232  1.1620  0.4686 -0.5177
17634TIP3   OH274392   4.053   0.844   1.929 -0.2082 -0.1445 -0.1511
17634TIP3    H174393   4.101   0.767   1.899 -1.3064 -0.7178 -0.5160
17634TIP3    H274394   4.112   0.888   1.989  0.1390 -1.7406  0.7249
17635TIP3   OH274395   0.937   1.486   2.296 -0.3770 -0.2825  0.0084
17635TIP3    H174396   1.006   1.467   2.359 -0.3677 -0.2018  0.0220
17635TIP3    H274397   0.891   1.402   2.285 -1.2677  0.0368  1.1957
17636TIP3   OH274398   2.775   5.012   3.874 -0.2927 -0.3524  0.4562
17636TIP3    H174399   2.715   5.070   3.920 -1.2427 -1.4164  0.6233
17636TIP3    H274400   2.853   5.065   3.858 -0.5315  0.5008  1.9279
17637TIP3   OH274401   0.488   6.348   1.167  0.0382 -0.2367 -0.1710
17637TIP3    H174402   0.560   6.391   1.212  0.1305 -0.1247 -0.4199
17637TIP3    H274403   0.495   6.256   1.191 -0.8199  0.0336  1.2593
17638TIP3   OH274404   4.085   4.232   0.787 -0.0701 -0.2137 -0.6392
17638TIP3    H174405   3.990   4.219   0.777 -0.1367  0.5073 -1.0583
17638TIP3    H274406   4.094   4.327   0.796  0.6088 -0.2946 -0.4560
17639TIP3   OH274407   2.747   6.242  11.327 -0.2699 -0.2095  0.7293
17639TIP3    H174408   2.840   6.237  11.349  0.6299 -1.6261 -2.6848
17639TIP3    H274409   2.725   6.153  11.299 -2.6371  0.1623  1.2402
17640TIP3   OH274410   1.987   5.412   6.094 -0.7819  0.2396 -0.5281
17640TIP3    H174411   2.049   5.438   6.026 -1.3697  1.2207 -0.7026
17640TIP3    H274412   1.945   5.333   6.059 -0.6775  0.4152 -1.0575
17641TIP3   OH274413   1.148   4.458   2.286  0.2833  0.1718 -0.0565
17641TIP3    H174414   1.133   4.381   2.341  1.5183 -0.8540 -1.0739
17641TIP3    H274415   1.183   4.524   2.345  1.2435 -0.7860  0.4825
17642TIP3   OH274416   3.597   5.271  14.439 -0.1535  0.2190 -0.1132
17642TIP3    H174417   3.669   5.216  14.408 -1.5094 -0.5650 -2.0218
17642TIP3    H274418   3.566   5.228  14.518  1.3287  0.4890  0.6582
17643TIP3   OH274419   2.188   5.115  14.756  0.5503  0.0583 -0.3780
17643TIP3    H174420   2.203   5.209  14.744 -1.0303  0.4063  0.0976
17643TIP3    H274421   2.188   5.079  14.668 -2.4522  1.1470 -0.9268
17644TIP3   OH274422   4.625   2.665   0.989  0.1023  0.2069  0.0847
17644TIP3    H174423   4.661   2.587   1.031 -1.9719  0.1579  1.9678
17644TIP3    H274424   4.541   2.636   0.952 -0.2420  1.3218 -0.0465
17645TIP3   OH274425   4.370   5.916   2.689 -0.3428 -0.4638 -0.1189
17645TIP3    H174426   4.336   5.968   2.617 -1.4577 -0.3944  0.4393
17645TIP3    H274427   4.301   5.853   2.708  0.5527 -1.4682 -0.0866
17646TIP3   OH274428   3.782   2.589  13.070  0.5612  0.5719 -0.4715
17646TIP3    H174429   3.749   2.513  13.119  1.0103  1.1410  0.7521
17646TIP3    H274430   3.712   2.653  13.075  1.1173  1.1313  0.6297
17647TIP3   OH274431   2.312   2.350  16.480 -0.0767  0.7156  0.4304
17647TIP3    H174432   2.269   2.381  16.560 -1.0092  0.5707 -0.0014
17647TIP3    H274433   2.306   2.255  16.485  1.4901  0.6309  1.0529
17648TIP3   OH274434   4.147   6.032  12.248  0.2734  0.4462  0.5479
17648TIP3    H174435   4.136   6.061  12.157  1.9755 -2.1030 -0.5760
17648TIP3    H274436   4.177   6.110  12.294  0.7286  1.4774 -1.3787
17649TIP3   OH274437   5.615   2.099  10.634  0.2466  0.2244 -0.9383
17649TIP3    H174438   5.657   2.117  10.549  0.0270  1.3238 -0.8375
17649TIP3    H274439   5.563   2.178  10.651 -0.7735 -0.5425 -0.4096
17650TIP3   OH274440   1.085   1.641  12.777 -0.1105 -0.2156 -0.1619
17650TIP3    H174441   1.035   1.706  12.827 -3.0884 -2.4599  0.0877
17650TIP3    H274442   1.149   1.607  12.839 -0.6208  0.3063  0.6770
17651TIP3   OH274443   3.444   5.929   5.785 -0.2915 -0.1969 -0.7084
17651TIP3    H174444   3.399   5.857   5.740 -1.0081  0.2666 -0.7506
17651TIP3    H274445   3.374   5.989   5.810  0.1958  0.0257  0.1846
17652TIP3   OH274446   1.442   4.765   0.739  0.5773 -0.3035 -0.2887
17652TIP3    H174447   1.507   4.724   0.796  0.8327 -0.3161 -0.5874
17652TIP3    H274448   1.391   4.693   0.703  0.9337 -0.3527 -0.7015
17653TIP3   OH274449   0.651   1.102   4.267  0.0851  0.3735 -0.1549
17653TIP3    H174450   0.556   1.095   4.276  0.0069  0.7602 -0.6298
17653TIP3    H274451   0.686   1.055   4.342 -0.4928  1.7959  1.0356
17654TIP3   OH274452   0.033   2.822   1.646  0.3560 -0.2552  0.2546
17654TIP3    H174453  -0.001   2.812   1.734 -0.1360  0.1169  0.1060
17654TIP3    H274454   0.127   2.838   1.658  0.5339 -1.4728  0.6530
17655TIP3   OH274455   4.674   3.547  13.032 -0.2345  0.0795  0.7622
17655TIP3    H174456   4.634   3.594  12.958 -0.1911 -1.0356  0.0019
17655TIP3    H274457   4.699   3.616  13.093  1.9312  1.2981 -1.3126
17656TIP3   OH274458   6.336   4.573  11.566  0.1357 -0.0498 -0.3399
17656TIP3    H174459   6.281   4.650  11.578 -0.0040 -0.2318  0.2394
17656TIP3    H274460   6.382   4.588  11.483 -0.6615  0.1791 -0.7510
17657TIP3   OH274461   0.279   6.456  15.368 -0.3365 -0.0075  0.0246
17657TIP3    H174462   0.287   6.389  15.300  0.0440 -1.0190  1.0372
17657TIP3    H274463   0.368   6.490  15.379 -0.7728  1.8868 -1.6244
17658TIP3   OH274464   5.675   1.092  15.102  0.3007  0.1800  0.7157
17658TIP3    H174465   5.593   1.056  15.136 -2.0832  1.7103 -2.7687
17658TIP3    H274466   5.704   1.154  15.168 -1.5996 -0.0877  1.8635
17659TIP3   OH274467   2.355   0.741   1.650  0.5673  0.1656  0.1313
17659TIP3    H174468   2.292   0.686   1.696  0.9960  0.1742  0.7415
17659TIP3    H274469   2.314   0.759   1.565  0.5190 -1.2678 -0.1760
17660TIP3   OH274470   2.783   0.615  12.116 -0.2990  0.4891  0.0553
17660TIP3    H174471   2.701   0.631  12.067 -0.2248 -0.3938 -0.3730
17660TIP3    H274472   2.786   0.686  12.181 -2.9998 -1.1439  2.1833
17661TIP3   OH274473   0.096   0.312   2.674  0.2973  0.6887 -0.5817
17661TIP3    H174474   0.092   0.369   2.597 -2.4186 -0.1113 -1.1510
17661TIP3    H274475   0.024   0.342   2.729  0.4614 -0.5518  0.3396
17662TIP3   OH274476   2.574   1.248   0.471 -0.5060 -0.0626  0.3230
17662TIP3    H174477   2.658   1.254   0.517 -0.2553 -1.1639  0.0325
17662TIP3    H274478   2.596   1.253   0.378 -0.9682  1.6581  0.2666
17663TIP3   OH274479   3.322   1.798   6.244 -0.0844  0.3876 -0.0827
17663TIP3    H174480   3.254   1.861   6.269  0.3560  0.3980  1.1702
17663TIP3    H274481   3.396   1.819   6.301  0.2668 -0.9041 -0.0270
17664TIP3   OH274482   3.853   1.457  15.196 -0.7574  0.8510 -0.3105
17664TIP3    H174483   3.852   1.521  15.267 -0.3641  1.3089 -0.7071
17664TIP3    H274484   3.926   1.399  15.218 -1.0698  0.5689  0.0121
17665TIP3   OH274485   3.464   2.034   5.924  0.1894 -0.3173 -0.1188
17665TIP3    H174486   3.547   2.070   5.955  0.6243 -0.4827 -1.0581
17665TIP3    H274487   3.398   2.083   5.972  0.7692  1.4679 -1.0258
17666TIP3   OH274488   1.415   6.043  12.874 -0.5523 -0.8563  0.2051
17666TIP3    H174489   1.485   5.982  12.849  0.5840  0.1485  0.8236
17666TIP3    H274490   1.461   6.122  12.901 -1.9126 -0.4412  1.4145
17667TIP3   OH274491   4.179   1.395   1.404 -0.2445 -0.3363  0.5397
17667TIP3    H174492   4.247   1.333   1.377 -0.9290 -0.5021 -0.8664
17667TIP3    H274493   4.201   1.476   1.358 -1.1627 -0.4807 -0.1809
17668TIP3   OH274494   5.219   4.861  13.464 -0.7261  0.5231 -0.2138
17668TIP3    H174495   5.192   4.793  13.524  0.1982  1.8821  1.8672
17668TIP3    H274496   5.304   4.890  13.497 -0.4560  1.7543 -1.8353
17669TIP3   OH274497   2.940   1.149   0.872  0.4456 -0.1755 -0.0311
17669TIP3    H174498   2.906   1.062   0.895 -0.9312  0.2255 -0.4814
17669TIP3    H274499   3.035   1.139   0.878  0.3823 -2.0172 -1.0664
17670TIP3   OH274500   1.257   3.005  13.104  0.1330  0.5688  0.0367
17670TIP3    H174501   1.258   2.957  13.021 -2.1100 -0.3492  0.4616
17670TIP3    H274502   1.209   3.086  13.084  1.9350  1.6309 -0.1493
17671TIP3   OH274503   3.527   5.291  11.021 -0.2008  0.2684  0.5258
17671TIP3    H174504   3.445   5.327  10.985 -1.0598 -0.2231  1.9121
17671TIP3    H274505   3.575   5.261  10.944 -1.1598  0.9061 -0.3499
17672TIP3   OH274506   5.740   6.592   3.266 -0.8228 -0.0068 -0.0483
17672TIP3    H174507   5.646   6.610   3.271 -0.6355  1.7516 -1.7119
17672TIP3    H274508   5.747   6.520   3.203 -0.9690  1.6209 -2.0390
17673TIP3   OH274509   2.567   4.994   0.664  0.4471  0.0645 -0.7084
17673TIP3    H174510   2.549   5.088   0.657 -0.1111  0.3312  2.7012
17673TIP3    H274511   2.647   4.988   0.715 -0.1899 -1.2880  0.2129
17674TIP3   OH274512   1.476   4.161  11.814  0.2630 -1.4028  0.2134
17674TIP3    H174513   1.508   4.073  11.832  0.6995 -1.0278  1.3918
17674TIP3    H274514   1.396   4.168  11.865  0.0265 -1.2431 -0.1770
17675TIP3   OH274515   1.869   2.616  15.685  0.3889  0.0551  0.5791
17675TIP3    H174516   1.804   2.609  15.615  0.7690 -0.9403  0.3084
17675TIP3    H274517   1.878   2.710  15.701  0.0458  0.2723 -0.4657
17676TIP3   OH274518   1.776   3.299   1.784  0.2261 -0.0143 -0.2090
17676TIP3    H174519   1.803   3.286   1.875 -2.6147 -2.0261  0.5019
17676TIP3    H274520   1.702   3.360   1.789  0.8442  0.8733 -1.3512
17677TIP3   OH274521   2.125   5.421  12.275  0.0711  0.3034  0.4559
17677TIP3    H174522   2.147   5.377  12.357 -0.4205 -0.4497  0.1986
17677TIP3    H274523   2.210   5.446  12.238  0.2833  0.8737  1.3058
17678TIP3   OH274524   6.639   3.692   0.357 -0.1512 -0.3709  1.1170
17678TIP3    H174525   6.637   3.769   0.300 -1.8942 -0.6602  0.7321
17678TIP3    H274526   6.679   3.623   0.303  1.3264  0.2044  1.4315
17679TIP3   OH274527   1.968   5.831   1.828  0.0796  0.1624 -0.1816
17679TIP3    H174528   2.013   5.829   1.912  0.7508 -0.7206 -0.5520
17679TIP3    H274529   1.978   5.742   1.792 -1.0064  0.2530 -0.7699
17680TIP3   OH274530   6.291   3.047  15.711  0.1540  0.0549  0.3510
17680TIP3    H174531   6.368   3.053  15.654  0.9518  1.3186  1.4716
17680TIP3    H274532   6.267   3.138  15.728 -0.0408 -0.2680  1.9997
17681TIP3   OH274533   3.598   6.761  14.563 -0.4419  0.1698 -0.0973
17681TIP3    H174534   3.692   6.755  14.580 -0.4501  2.4163  1.1510
17681TIP3    H274535   3.557   6.748  14.649 -1.4291 -2.2362 -0.8464
17682TIP3   OH274536   5.902   1.443  12.106 -0.3889 -0.0386  0.2617
17682TIP3    H174537   5.971   1.379  12.087  0.3363  0.4341  1.2916
17682TIP3    H274538   5.921   1.517  12.049 -0.2863 -0.0718  0.2537
17683TIP3   OH274539   2.257   1.026   5.058  0.3503 -0.2175  0.2455
17683TIP3    H174540   2.250   1.036   5.153 -1.1914 -0.3985  0.1840
17683TIP3    H274541   2.167   1.007   5.030  0.4327  1.5429 -1.4426
17684TIP3   OH274542   1.876   0.779  14.379 -0.4705 -0.0721 -0.2122
17684TIP3    H174543   1.969   0.800  14.383 -0.8043  1.6649 -0.8697
17684TIP3    H274544   1.873   0.684  14.367  1.2057 -0.1682 -0.0168
17685TIP3   OH274545   2.432   0.353   5.150 -0.4683  0.1237 -0.2465
17685TIP3    H174546   2.468   0.430   5.107 -0.2888  0.6060  0.7303
17685TIP3    H274547   2.445   0.369   5.244 -1.6033 -0.5018  0.0468
17686TIP3   OH274548   3.542   4.250   1.746 -0.4907 -0.0427  0.1697
17686TIP3    H174549   3.634   4.275   1.745 -0.4485 -0.1919 -0.6189
17686TIP3    H274550   3.514   4.263   1.836  0.7476 -1.6304  0.8311
17687TIP3   OH274551   0.288   6.161  13.600 -0.6186  0.2595 -0.0118
17687TIP3    H174552   0.344   6.230  13.564  1.2937 -1.0146  0.3355
17687TIP3    H274553   0.337   6.080  13.584 -1.2350 -0.6938  2.4137
17688TIP3   OH274554   2.276   5.923   4.809  0.5163 -0.2754  0.0531
17688TIP3    H174555   2.235   5.912   4.723 -1.4471 -0.4657  0.9616
17688TIP3    H274556   2.322   5.840   4.824 -0.1813 -0.7378 -0.2936
17689TIP3   OH274557   4.363   3.449  14.559  0.0589  0.7058 -0.0185
17689TIP3    H174558   4.391   3.359  14.543 -2.1580  0.4485 -3.5923
17689TIP3    H274559   4.439   3.491  14.599  2.0085 -2.1669 -0.3927
17690TIP3   OH274560   5.222   6.660   2.483 -0.1138 -0.7241  0.4670
17690TIP3    H174561   5.191   6.718   2.414 -1.8716 -1.5499  0.5185
17690TIP3    H274562   5.201   6.572   2.452  0.9420 -1.2414  1.1576
17691TIP3   OH274563   4.450   2.480   3.015 -0.0840  0.4079 -0.0891
17691TIP3    H174564   4.444   2.384   3.017  1.8080  0.2364 -0.5259
17691TIP3    H274565   4.361   2.510   3.028 -0.8615 -1.4262 -0.8614
17692TIP3   OH274566   3.166   6.750   2.376 -0.0421 -0.7322 -0.1382
17692TIP3    H174567   3.161   6.739   2.471  0.6315  0.8125  0.1116
17692TIP3    H274568   3.257   6.727   2.354  0.7832  1.9178  0.1121
17693TIP3   OH274569   2.376   5.735  11.730 -0.1792 -0.0060 -0.4449
17693TIP3    H174570   2.450   5.796  11.730  1.0831 -1.4986 -0.9098
17693TIP3    H274571   2.415   5.649  11.745 -1.9067 -0.7564 -0.0069
17694TIP3   OH274572   5.568   0.564  13.150  0.3094 -0.5060  0.1670
17694TIP3    H174573   5.497   0.618  13.117  0.6771  0.1804  0.4644
17694TIP3    H274574   5.644   0.622  13.150  0.2525 -0.2977  2.5977
17695TIP3   OH274575   0.458   1.561   3.749 -0.5725  0.1055  0.3247
17695TIP3    H174576   0.491   1.471   3.758  0.3386  0.2512 -1.1906
17695TIP3    H274577   0.491   1.606   3.826 -2.9142 -1.3460  2.3086
17696TIP3   OH274578   4.518   2.536  15.928 -0.0892  0.0737 -0.3081
17696TIP3    H174579   4.535   2.628  15.945 -2.3037  0.4294  0.3186
17696TIP3    H274580   4.429   2.533  15.894 -0.1088 -1.8381 -0.2378
17697TIP3   OH274581   4.169   5.338  12.028  0.5734 -0.5984  0.7503
17697TIP3    H174582   4.078   5.325  12.001  0.6915 -1.4513  0.7213
17697TIP3    H274583   4.198   5.415  11.979 -0.3751  0.1826  1.3888
17698TIP3   OH274584   0.230   0.621   4.708 -0.1162  0.2479  0.1529
17698TIP3    H174585   0.296   0.553   4.693 -1.4825 -1.6653  2.1418
17698TIP3    H274586   0.153   0.591   4.661 -0.7428  0.4025  1.0571
17699TIP3   OH274587   0.755   4.879   0.807  0.4060 -0.1574 -0.1854
17699TIP3    H174588   0.846   4.881   0.778  0.2036  0.0533 -0.8403
17699TIP3    H274589   0.754   4.820   0.881  1.2206  0.4559  0.3294
17700TIP3   OH274590   6.081   3.177   1.271 -0.3970 -0.6422 -0.6701
17700TIP3    H174591   6.118   3.256   1.233 -2.3827  1.2078  0.9984
17700TIP3    H274592   6.100   3.108   1.207  1.3035  1.1590 -2.2279
17701TIP3   OH274593   0.124   1.030   3.871  0.0972 -0.2374  0.2677
17701TIP3    H174594   0.167   0.962   3.922 -0.2755 -1.4891 -1.0172
17701TIP3    H274595   0.031   1.019   3.889  0.0597  0.1332  0.2980
17702TIP3   OH274596   4.780   5.513  11.848 -0.3308 -0.1120 -0.1307
17702TIP3    H174597   4.695   5.554  11.866  0.8810  2.5057  0.1221
17702TIP3    H274598   4.759   5.421  11.830 -3.3717  0.7312 -1.6110
17703TIP3   OH274599   2.212   3.177   3.305  0.2405 -0.2691  0.4832
17703TIP3    H174600   2.296   3.213   3.332 -0.0508  0.2876  0.6795
17703TIP3    H274601   2.155   3.191   3.380 -0.9798  2.6286 -0.8448
17704TIP3   OH274602   6.799   4.429   2.750  0.0024  0.0103 -0.2116
17704TIP3    H174603   6.786   4.407   2.843 -2.5923  1.5001 -0.1303
17704TIP3    H274604   6.721   4.396   2.707  1.1505 -0.6138 -1.9245
17705TIP3   OH274605   1.101   1.498   4.546 -0.4345 -0.1278  0.6496
17705TIP3    H174606   1.164   1.543   4.490 -0.1371 -0.3637  0.7954
17705TIP3    H274607   1.109   1.542   4.631  0.0005 -0.5814  0.8491
17706TIP3   OH274608   6.473   3.012   4.611  0.2283  0.5385 -0.2268
17706TIP3    H174609   6.437   2.957   4.681  0.9491  0.3410 -0.0051
17706TIP3    H274610   6.509   3.088   4.657  1.4722  0.0060 -0.2845
17707TIP3   OH274611   0.143   2.803   3.075 -0.2775 -0.1866 -0.0120
17707TIP3    H174612   0.168   2.807   2.983 -0.4461  1.9918 -0.0258
17707TIP3    H274613   0.114   2.713   3.088  0.5682 -0.7815 -1.8537
17708TIP3   OH274614   1.631   3.315   2.457 -0.6319 -0.3313  0.0282
17708TIP3    H174615   1.637   3.397   2.506 -0.8181  0.1561 -0.7317
17708TIP3    H274616   1.663   3.337   2.369 -1.8165 -0.7530 -0.5345
17709TIP3   OH274617   3.703   2.606   4.104 -0.0018 -0.0891 -0.2177
17709TIP3    H174618   3.666   2.527   4.144 -2.3943  0.3462 -1.3923
17709TIP3    H274619   3.628   2.663   4.089  1.7383  2.8089  1.2704
17710TIP3   OH274620   3.719   2.690  14.092 -0.0513 -0.2447 -0.1735
17710TIP3    H174621   3.712   2.747  14.169  0.7156 -0.1471 -0.1694
17710TIP3    H274622   3.800   2.641  14.106  1.5176  1.6247 -2.1280
17711TIP3   OH274623   1.720   0.768  13.603  0.4250  0.2178  0.4135
17711TIP3    H174624   1.720   0.839  13.668  0.1883  0.9444 -0.3551
17711TIP3    H274625   1.802   0.779  13.555  1.5498 -1.5042  1.7986
17712TIP3   OH274626   4.156   2.096  17.285  0.2941 -0.2776  0.4149
17712TIP3    H174627   4.215   2.095  17.209 -0.7107  0.7908 -0.4102
17712TIP3    H274628   4.191   2.167  17.340 -0.7741  1.0788 -0.5777
17713TIP3   OH274629   2.232   0.899  17.237 -0.2917  0.9115 -0.2994
17713TIP3    H174630   2.141   0.874  17.255  0.1741  0.3501  1.5490
17713TIP3    H274631   2.257   0.953  17.312  2.0394 -2.0926  1.3396
17714TIP3   OH274632   6.698   5.674   1.606  0.2144  0.1189 -0.1929
17714TIP3    H174633   6.652   5.651   1.687  0.4814  2.5179  0.7176
17714TIP3    H274634   6.628   5.694   1.544  0.0196 -1.1478 -0.4128
17715TIP3   OH274635   0.278   4.099   2.292  0.2600 -0.0570 -0.0614
17715TIP3    H174636   0.291   4.193   2.279  1.0872  0.4054  3.3293
17715TIP3    H274637   0.189   4.083   2.261 -0.5134  2.2141  0.7663
17716TIP3   OH274638   0.304   4.950   3.247  0.3479 -0.0942 -0.0476
17716TIP3    H174639   0.300   5.037   3.208 -2.0982  0.0888  0.4774
17716TIP3    H274640   0.342   4.964   3.334  0.9904  0.2673 -0.3828
17717TIP3   OH274641   5.837   6.796   3.649 -0.3737 -0.3475  0.1593
17717TIP3    H174642   5.768   6.743   3.609 -0.9249  1.1925 -1.0157
17717TIP3    H274643   5.909   6.791   3.587  0.7072 -2.0680  1.4488
17718TIP3   OH274644   4.239   2.807   3.787 -0.3666  0.1203 -0.2312
17718TIP3    H174645   4.274   2.719   3.771  0.6569  0.4828 -0.0231
17718TIP3    H274646   4.209   2.837   3.701  1.8316  0.6480 -0.8786
17719TIP3   OH274647   2.592   2.519  14.064  0.3052  0.1808  0.2206
17719TIP3    H174648   2.661   2.453  14.057 -0.8507 -1.0017 -0.4457
17719TIP3    H274649   2.572   2.543  13.973 -0.2141  0.4392  0.3974
17720TIP3   OH274650   2.444   0.356  13.890  0.3736 -0.7100 -0.4929
17720TIP3    H174651   2.431   0.347  13.795  1.8634 -0.0666 -0.7913
17720TIP3    H274652   2.511   0.424  13.898  1.1797 -1.6345  0.9708
17721TIP3   OH274653   6.650   6.196  13.051  0.1096 -0.0010  0.1495
17721TIP3    H174654   6.714   6.256  13.091 -1.8293  1.6912  0.8505
17721TIP3    H274655   6.596   6.167  13.125 -0.6681 -0.4730 -0.6011
17722TIP3   OH274656   0.805   4.820  11.908 -0.0147  0.4051  0.2182
17722TIP3    H174657   0.810   4.905  11.864 -2.7563  1.1719  1.2086
17722TIP3    H274658   0.872   4.767  11.865  1.4084  2.8676 -0.8128
17723TIP3   OH274659   2.135   1.940   3.137 -0.4285 -0.2659 -0.4697
17723TIP3    H174660   2.152   2.030   3.111 -1.0429  0.1343  0.4795
17723TIP3    H274661   2.189   1.887   3.078  0.2106  0.7332 -0.7911
17724TIP3   OH274662   1.555   4.055   1.911  0.4408  0.1436  0.4438
17724TIP3    H174663   1.493   4.079   1.842  0.5560 -0.8268 -0.0118
17724TIP3    H274664   1.634   4.027   1.865  0.2018 -1.4086  0.9066
17725TIP3   OH274665   5.641   6.442   1.635 -0.1937 -0.1818 -0.4271
17725TIP3    H174666   5.735   6.435   1.618 -0.5875 -0.9519 -2.6726
17725TIP3    H274667   5.614   6.523   1.592 -0.5419  0.1703  0.4257
17726TIP3   OH274668   6.792   0.941  15.443 -0.2919  0.3178  0.1161
17726TIP3    H174669   6.794   0.847  15.457 -1.9285 -0.0562 -1.7615
17726TIP3    H274670   6.872   0.973  15.484 -0.3159 -1.7000  1.8964
17727TIP3   OH274671   4.219   2.221  13.904  0.4513 -0.0336 -0.3140
17727TIP3    H174672   4.295   2.212  13.846  0.1005  1.0771 -0.9694
17727TIP3    H274673   4.177   2.136  13.902  0.5519 -0.0598 -1.5442
17728TIP3   OH274674   5.296   0.897   6.679 -0.3229 -0.1007 -0.4373
17728TIP3    H174675   5.302   0.803   6.698  0.0793  0.1692  0.9247
17728TIP3    H274676   5.244   0.932   6.752  0.4961  0.8892 -0.3138
17729TIP3   OH274677   0.959   3.084  13.386  0.1440 -0.1825  0.4585
17729TIP3    H174678   0.864   3.074  13.387  0.0413  0.7317  0.7424
17729TIP3    H274679   0.977   3.135  13.307  0.4346 -0.5940  0.2509
17730TIP3   OH274680   2.565   4.614  11.966 -0.0036  0.0941 -0.3531
17730TIP3    H174681   2.619   4.555  12.018 -1.7563 -2.0132 -0.7804
17730TIP3    H274682   2.569   4.579  11.877 -2.8605 -0.8615 -0.2223
17731TIP3   OH274683   1.186   5.203  11.799 -0.1034  0.1447  0.0362
17731TIP3    H174684   1.181   5.260  11.722  0.5925  1.0101  0.6064
17731TIP3    H274685   1.255   5.242  11.853  0.9557 -1.6965  0.0846
17732TIP3   OH274686   4.778   2.206   3.746  0.0608  0.8484  0.3244
17732TIP3    H174687   4.779   2.250   3.661 -1.4794 -0.0638 -0.2071
17732TIP3    H274688   4.828   2.126   3.731  0.1865  0.9100  0.4143
17733TIP3   OH274689   1.135   0.225   0.859  0.0755  0.1100  0.0238
17733TIP3    H174690   1.167   0.285   0.927  1.3406  0.1361 -0.5619
17733TIP3    H274691   1.155   0.138   0.893 -2.2425 -0.0794  1.1169
17734TIP3   OH274692   5.154   1.325   1.795  0.1544  0.2790 -0.3936
17734TIP3    H174693   5.117   1.399   1.844 -0.8021 -0.1838 -0.4010
17734TIP3    H274694   5.244   1.317   1.828  0.1726  1.2481 -0.1766
17735TIP3   OH274695   4.929   2.864   2.813 -0.0060 -0.3511  0.2472
17735TIP3    H174696   5.014   2.820   2.822  0.5845  1.0036  1.9181
17735TIP3    H274697   4.926   2.924   2.887 -1.9863  0.4025 -0.3918
17736TIP3   OH274698   0.366   0.916  14.861  0.3250  0.3072 -0.2037
17736TIP3    H174699   0.351   0.897  14.769  2.7873 -0.9658 -0.4059
17736TIP3    H274700   0.440   0.977  14.862  2.5440 -2.1798  0.9087
17737TIP3   OH274701   4.314   5.787  14.728 -0.7088 -0.5003  0.4796
17737TIP3    H174702   4.265   5.842  14.667 -1.4065  0.4537  1.8393
17737TIP3    H274703   4.315   5.701  14.687  0.1372  0.4058 -1.5732
17738TIP3   OH274704   3.632   4.199   4.343 -0.1533  0.4602  0.0894
17738TIP3    H174705   3.585   4.157   4.271 -1.0631  0.5755  0.5922
17738TIP3    H274706   3.616   4.141   4.418  0.9998  0.1991  0.1553
17739TIP3   OH274707   0.336   0.048   0.830  0.9006  0.0904  0.6357
17739TIP3    H174708   0.324   0.081   0.741 -1.1474 -0.0858  0.8030
17739TIP3    H274709   0.253   0.006   0.852  1.8203 -1.0354  2.1601
17740TIP3   OH274710   5.048   4.047   2.249 -0.0325  0.7113 -0.2371
17740TIP3    H174711   4.970   4.094   2.278  0.1992  1.3380 -0.6189
17740TIP3    H274712   5.026   3.954   2.261 -0.8013  0.8858 -0.2756
17741TIP3   OH274713   3.933   3.849   6.827  0.1161  0.2575 -0.1596
17741TIP3    H174714   3.879   3.875   6.902 -0.0001  0.3662 -0.2821
17741TIP3    H274715   4.020   3.836   6.864 -0.1623 -0.7009  0.1896
17742TIP3   OH274716   3.345   1.696  16.482  0.2849  0.1288 -0.7707
17742TIP3    H174717   3.398   1.655  16.414 -0.6402 -0.3007 -1.2550
17742TIP3    H274718   3.256   1.667  16.464  0.0365 -0.1841  0.7632
17743TIP3   OH274719   6.723   5.557  15.387 -0.1445 -0.1388 -0.1067
17743TIP3    H174720   6.723   5.476  15.336 -0.4606  0.1715 -0.6029
17743TIP3    H274721   6.779   5.537  15.463 -0.1294 -0.7815 -0.2812
17744TIP3   OH274722   4.126   0.969   3.132 -0.0859 -0.0797 -0.1020
17744TIP3    H174723   4.147   1.042   3.073  2.4587  0.5229  1.4235
17744TIP3    H274724   4.072   1.009   3.200  1.5194  0.4934  0.8714
17745TIP3   OH274725   5.422   4.592   2.149 -0.2761 -0.1666 -0.4555
17745TIP3    H174726   5.475   4.514   2.132 -0.6625 -0.2577 -1.2724
17745TIP3    H274727   5.484   4.665   2.143  0.2893 -0.4580  1.2907
17746TIP3   OH274728   3.647   5.794  13.057  0.9399  0.0223 -0.0495
17746TIP3    H174729   3.686   5.715  13.017 -0.9226 -0.9716 -0.0031
17746TIP3    H274730   3.672   5.789  13.149  0.1082 -1.0343  0.1448
17747TIP3   OH274731   1.425   3.446   3.054 -0.2438 -0.2198 -0.6415
17747TIP3    H174732   1.471   3.484   3.129 -2.2970  1.6686 -0.2357
17747TIP3    H274733   1.439   3.351   3.064  0.0180 -0.0028  1.8344
17748TIP3   OH274734   0.879   2.864   1.118 -0.1607 -0.4550  0.0639
17748TIP3    H174735   0.927   2.946   1.118  0.9720 -1.0746  2.0536
17748TIP3    H274736   0.896   2.826   1.031  0.3135  0.8089 -0.4090
17749TIP3   OH274737   1.684   5.739  12.304 -0.2762  0.1070 -0.1285
17749TIP3    H174738   1.765   5.706  12.344 -2.1092 -1.4909  2.5640
17749TIP3    H274739   1.657   5.811  12.361 -1.7696 -0.7419  0.3069
17750TIP3   OH274740   6.161   5.397  14.542  0.3150 -0.2517  0.6685
17750TIP3    H174741   6.113   5.323  14.579  1.0325 -1.0551  0.0083
17750TIP3    H274742   6.251   5.387  14.572 -0.0343  1.7842  2.7076
17751TIP3   OH274743   1.818   1.292   0.887  0.2476  0.0769 -0.4207
17751TIP3    H174744   1.762   1.215   0.880 -0.1629  0.4152 -0.9189
17751TIP3    H274745   1.830   1.320   0.796 -0.7961  1.4520 -0.1543
17752TIP3   OH274746   0.995   1.058  11.660 -0.4676 -0.2383  0.1509
17752TIP3    H174747   0.924   1.008  11.701  0.8368 -1.6324  0.7898
17752TIP3    H274748   1.068   1.052  11.721  0.1667  1.3828 -0.3790
17753TIP3   OH274749   3.937   4.229  13.235  0.6719 -0.2704 -0.3345
17753TIP3    H174750   4.009   4.175  13.265 -0.1011  0.0951  2.4753
17753TIP3    H274751   3.860   4.194  13.279 -0.3731  1.1824 -0.8958
17754TIP3   OH274752   0.608   1.700  16.054  0.0175  0.2406 -0.9843
17754TIP3    H174753   0.694   1.658  16.053  1.3873  2.7988 -0.5683
17754TIP3    H274754   0.551   1.636  16.096  2.4020 -0.4581  1.5069
17755TIP3   OH274755   1.666   5.642   1.712 -0.3964 -0.6401 -0.0036
17755TIP3    H174756   1.739   5.599   1.757  0.0000 -0.7110 -0.6929
17755TIP3    H274757   1.708   5.699   1.647 -0.9522 -0.5068 -0.2530
17756TIP3   OH274758   5.808   3.653  15.849  0.7807 -0.0672 -0.1017
17756TIP3    H174759   5.854   3.735  15.835  0.3877 -0.1394 -2.0706
17756TIP3    H274760   5.818   3.604  15.768  0.4636 -1.7162  0.7891
17757TIP3   OH274761   1.751   3.082   4.271  0.0247 -0.0537  0.0880
17757TIP3    H174762   1.691   3.051   4.203  0.6733 -1.0837 -0.0314
17757TIP3    H274763   1.728   3.030   4.348  0.2674  0.0772  0.2472
17758TIP3   OH274764   6.138   1.273   2.256 -0.3362  0.0550  0.0912
17758TIP3    H174765   6.089   1.196   2.285  0.2768 -0.5827 -0.5334
17758TIP3    H274766   6.183   1.303   2.335 -1.0825  0.1750  0.4882
17759TIP3   OH274767   2.293   3.285  15.379 -0.4896  0.1558  0.6064
17759TIP3    H174768   2.372   3.273  15.431 -0.7448 -1.3445  0.6909
17759TIP3    H274769   2.280   3.200  15.335 -1.0233  0.9544 -0.8521
17760TIP3   OH274770   1.801   3.392  14.212 -0.1405 -0.8605  0.0568
17760TIP3    H174771   1.800   3.325  14.144  0.5184 -1.3942  0.5528
17760TIP3    H274772   1.886   3.380  14.255 -0.3574 -0.2311  0.6664
17761TIP3   OH274773   5.160   2.021   3.107 -0.2130  0.7952 -1.1937
17761TIP3    H174774   5.146   1.926   3.110  1.5271  0.4526 -2.4457
17761TIP3    H274775   5.137   2.046   3.017  0.1603  1.4113 -1.1240
17762TIP3   OH274776   2.295   0.669  13.647  0.0265  0.0148  0.2749
17762TIP3    H174777   2.327   0.593  13.599 -1.8526  0.4028 -1.7713
17762TIP3    H274778   2.320   0.744  13.593 -0.9742  0.5706  0.5549
17763TIP3   OH274779   3.023   3.844   4.409  0.3294  0.0891  0.3117
17763TIP3    H174780   3.033   3.906   4.482 -1.4094 -0.2223  0.8488
17763TIP3    H274781   3.060   3.762   4.441 -0.0019  0.0787  0.6656
17764TIP3   OH274782   3.790   1.486  13.131 -0.2691 -0.1971  0.3180
17764TIP3    H174783   3.856   1.543  13.092 -0.0089 -0.1394  0.8231
17764TIP3    H274784   3.792   1.406  13.078  0.0980 -0.1358  0.2358
17765TIP3   OH274785   0.731   5.109   0.325 -0.8805  0.2692  0.7560
17765TIP3    H174786   0.706   5.125   0.416 -0.2024  2.3395  0.6287
17765TIP3    H274787   0.809   5.054   0.331 -2.6830 -2.4322  1.2632
17766TIP3   OH274788   5.812   2.580   2.100 -0.5757  0.4532  0.2357
17766TIP3    H174789   5.744   2.599   2.164  0.2052 -0.8682  1.5392
17766TIP3    H274790   5.766   2.542   2.025 -1.2607 -1.1273  1.3909
17767TIP3   OH274791   1.378   3.013   5.338  0.5940  0.1078 -0.8435
17767TIP3    H174792   1.380   2.917   5.334 -1.2425  0.0116 -0.5452
17767TIP3    H274793   1.301   3.033   5.392  2.4576  1.7427  1.4380
17768TIP3   OH274794   0.950   6.466   4.630 -0.4658  0.2464 -0.2959
17768TIP3    H174795   0.970   6.552   4.666 -0.4410 -0.0156  0.3399
17768TIP3    H274796   1.033   6.433   4.597 -0.2782  0.0757  0.3310
17769TIP3   OH274797   2.256   0.076   1.624 -0.2632 -0.2275 -0.5384
17769TIP3    H174798   2.344   0.040   1.630 -0.7608 -1.8447 -1.9314
17769TIP3    H274799   2.267   0.171   1.631  1.5479 -0.4253 -0.4460
17770TIP3   OH274800   0.543   4.084  14.798 -0.3564 -0.4847 -0.1127
17770TIP3    H174801   0.633   4.100  14.770 -0.1629 -0.4499  0.5007
17770TIP3    H274802   0.544   4.100  14.892 -0.4930 -2.5615  0.2995
17771TIP3   OH274803   6.771   5.920   2.867  0.3149 -0.1258 -0.2312
17771TIP3    H174804   6.831   5.991   2.889  0.4795  0.0415 -1.1723
17771TIP3    H274805   6.816   5.872   2.797  0.2927 -1.2714  0.5049
17772TIP3   OH274806   2.774   0.240  13.961 -0.7208  0.0276 -0.4190
17772TIP3    H174807   2.761   0.326  13.921  0.6341  0.1289 -0.6792
17772TIP3    H274808   2.850   0.252  14.018 -1.0591 -0.7781  0.2091
17773TIP3   OH274809   4.551   0.926   5.449  0.4680  0.2028 -0.3253
17773TIP3    H174810   4.469   0.876   5.444  1.2791 -1.1007 -0.9358
17773TIP3    H274811   4.528   1.004   5.500 -0.8218 -0.7970  0.6808
17774TIP3   OH274812   2.043   4.298   0.420  0.3180  0.0540  0.5808
17774TIP3    H174813   2.013   4.379   0.379 -0.8396 -0.7349 -0.1508
17774TIP3    H274814   1.975   4.234   0.401  1.3888 -1.2002  0.8411
17775TIP3   OH274815   0.994   5.758   4.601  0.3395 -0.7657 -0.0606
17775TIP3    H174816   1.089   5.755   4.605  0.3746 -1.7023 -1.0160
17775TIP3    H274817   0.965   5.673   4.635 -0.2608  0.1297  1.8284
17776TIP3   OH274818   3.075   0.530  11.375 -0.1078  0.6853 -0.0145
17776TIP3    H174819   3.091   0.436  11.363 -1.4290  0.5458 -0.8350
17776TIP3    H274820   3.122   0.552  11.456  1.0195 -0.4660 -0.3230
17777TIP3   OH274821   1.745   5.184  12.096 -0.3040 -0.1255  0.6734
17777TIP3    H174822   1.760   5.277  12.080  0.2385 -0.5787 -2.1766
17777TIP3    H274823   1.650   5.174  12.094 -0.4987 -0.1149 -4.2009
17778TIP3   OH274824   2.697   6.319   0.984  0.1259 -0.0622  0.0255
17778TIP3    H174825   2.775   6.269   1.007 -1.2461 -2.5179 -0.3229
17778TIP3    H274826   2.669   6.359   1.066  1.4356  0.4245  0.2537
17779TIP3   OH274827   5.148   5.764   4.832 -0.3114 -0.2865  0.4511
17779TIP3    H174828   5.206   5.742   4.905 -1.2460 -0.0528  1.2883
17779TIP3    H274829   5.079   5.697   4.835  0.1037 -0.8082 -0.7869
17780TIP3   OH274830   1.059   4.011   4.839 -0.1598 -0.2705 -0.4253
17780TIP3    H174831   1.131   4.059   4.799 -0.4584 -0.4627 -1.2328
17780TIP3    H274832   1.000   3.992   4.766 -0.2180 -1.5504 -0.0714
17781TIP3   OH274833   0.724   5.139  15.415  0.3539 -0.0506  0.1626
17781TIP3    H174834   0.788   5.178  15.356  1.1582  0.7271  1.5194
17781TIP3    H274835   0.755   5.159  15.503 -0.2378 -2.0965  0.9145
17782TIP3   OH274836   3.739   4.840   0.006 -0.1873 -0.3995  0.0842
17782TIP3    H174837   3.681   4.848  -0.069 -0.0143  0.4775  0.0339
17782TIP3    H274838   3.781   4.755  -0.005  1.9067  0.8198 -2.3131
17783TIP3   OH274839   2.483   3.015   5.825 -0.6419  0.1187 -0.2090
17783TIP3    H174840   2.551   2.955   5.856 -1.9153 -2.0685 -1.3991
17783TIP3    H274841   2.422   3.021   5.898  0.2285  1.2267  0.4631
17784TIP3   OH274842   6.678   2.660  14.521 -0.0944 -0.2109  0.2152
17784TIP3    H174843   6.607   2.611  14.480 -2.4111  2.8785  0.2205
17784TIP3    H274844   6.683   2.742  14.472  0.4823  1.4733  2.8849
17785TIP3   OH274845   5.845   0.182  12.393  0.0583 -0.3985 -0.1115
17785TIP3    H174846   5.925   0.191  12.445 -0.2166 -0.2187  0.2797
17785TIP3    H274847   5.803   0.103  12.426 -0.5751  0.2100  0.5687
17786TIP3   OH274848   4.501   0.700   3.555 -0.0074 -0.0376 -0.2504
17786TIP3    H174849   4.510   0.782   3.604  0.2657  0.1137 -0.5516
17786TIP3    H274850   4.558   0.711   3.479  0.6495 -0.8179  0.1079
17787TIP3   OH274851   6.194   5.002  12.990 -0.1579 -0.2829 -0.2212
17787TIP3    H174852   6.289   5.014  12.988 -0.2246  0.4424  0.3949
17787TIP3    H274853   6.174   4.953  12.911  0.6861 -0.1018 -0.5556
17788TIP3   OH274854   0.337   2.892  14.916  0.2644  0.0440  0.3483
17788TIP3    H174855   0.252   2.910  14.875 -1.0829 -2.1051  1.9574
17788TIP3    H274856   0.335   2.798  14.933  1.9727  0.3443  2.5904
17789TIP3   OH274857   2.102   6.473  14.972 -0.1183  0.0326 -0.8033
17789TIP3    H174858   2.079   6.486  15.064 -0.5469 -2.2332 -0.5336
17789TIP3    H274859   2.158   6.548  14.950 -2.1985  2.1202  0.4601
17790TIP3   OH274860   3.385   0.777  11.310 -0.1261 -0.6270  0.0565
17790TIP3    H174861   3.418   0.697  11.350 -0.8356 -1.4663 -0.9671
17790TIP3    H274862   3.392   0.761  11.216 -0.1611  0.5681 -0.1642
17791TIP3   OH274863   0.816   6.529   5.963  0.1394 -0.4883 -0.1905
17791TIP3    H174864   0.853   6.614   5.938 -2.0930  0.5250 -0.2326
17791TIP3    H274865   0.807   6.534   6.058 -4.1660  1.2667 -0.4908
17792TIP3   OH274866   2.092   1.319  16.084  0.4643 -0.1021 -0.3145
17792TIP3    H174867   2.148   1.323  16.006 -1.5262  0.0866 -1.8234
17792TIP3    H274868   2.015   1.268  16.056  1.0134 -2.7456  2.4702
17793TIP3   OH274869   4.840   1.037  13.412 -0.4796 -0.3028  0.6165
17793TIP3    H174870   4.841   1.069  13.502  0.3117  0.6714  0.2834
17793TIP3    H274871   4.926   1.061  13.377 -1.2106  0.4442 -0.7754
17794TIP3   OH274872   1.242   3.561   4.379  0.3575 -0.1719  0.3721
17794TIP3    H174873   1.293   3.637   4.353 -0.0303  0.0635  0.2931
17794TIP3    H274874   1.164   3.563   4.323  0.6337 -0.9789 -0.0735
17795TIP3   OH274875   1.856   4.984   2.781  0.0384 -0.1772 -0.6404
17795TIP3    H174876   1.867   5.079   2.781  1.5469 -0.2768  1.4683
17795TIP3    H274877   1.761   4.970   2.776 -0.2308  1.4564 -0.4584
17796TIP3   OH274878   0.530   4.838   4.923 -0.4328  0.1826  1.2098
17796TIP3    H174879   0.543   4.825   4.829  1.6040 -0.6681  1.5465
17796TIP3    H274880   0.541   4.750   4.960 -0.0850  0.6799  2.3301
17797TIP3   OH274881   6.778   5.240  16.295 -0.2123 -0.2812  0.9142
17797TIP3    H174882   6.820   5.288  16.366  0.6437 -1.5936  1.3374
17797TIP3    H274883   6.748   5.308  16.235  1.8467  0.7796  0.9680
17798TIP3   OH274884   6.122   2.945  13.106 -0.0528 -0.0490  0.1090
17798TIP3    H174885   6.079   2.974  13.025  0.8996  0.8002 -0.1272
17798TIP3    H274886   6.134   3.026  13.156 -0.4037 -0.5373  0.9866
17799TIP3   OH274887   3.752   3.455  12.612  0.5094 -0.4083 -0.0497
17799TIP3    H174888   3.717   3.448  12.523  0.0207 -1.0191  0.1738
17799TIP3    H274889   3.745   3.547  12.634 -1.4547 -0.5624  0.1499
17800TIP3   OH274890   6.206   6.206  14.677  0.0346 -0.1759 -0.4929
17800TIP3    H174891   6.247   6.209  14.764  1.2659 -0.8867 -1.0221
17800TIP3    H274892   6.186   6.298  14.658  2.2372  0.3595 -0.5621
17801TIP3   OH274893   6.107   0.710  13.921 -0.0159 -0.1637  0.4552
17801TIP3    H174894   6.066   0.676  13.841  1.2258 -2.0612  0.5548
17801TIP3    H274895   6.065   0.661  13.991  0.0509  0.3179  0.8300
17802TIP3   OH274896   0.030   2.218   3.990  0.2314  0.1592 -0.0720
17802TIP3    H174897   0.095   2.274   4.032 -0.0390  0.7426 -0.4244
17802TIP3    H274898   0.068   2.199   3.904  0.0395  0.3189 -0.1927
17803TIP3   OH274899   0.940   2.383  16.429  0.3385 -0.1912  0.6763
17803TIP3    H174900   0.922   2.459  16.484  0.2991 -0.2448  0.7375
17803TIP3    H274901   1.013   2.339  16.473  0.7252  0.1126  0.3405
17804TIP3   OH274902   2.867   4.849   6.135  0.1900 -0.3044 -0.2399
17804TIP3    H174903   2.943   4.905   6.143 -0.1349  0.0258  0.5729
17804TIP3    H274904   2.883   4.776   6.194  1.0205 -1.5755 -1.9417
17805TIP3   OH274905   5.590   2.212   6.292 -0.1090 -0.1434  0.3281
17805TIP3    H174906   5.673   2.179   6.260  0.9403  0.5687  2.1743
17805TIP3    H274907   5.613   2.279   6.356 -2.1203  0.9683 -0.0130
17806TIP3   OH274908   4.091   5.953  16.441 -0.2391  0.4178 -0.1839
17806TIP3    H174909   4.165   5.898  16.466 -0.0926  0.0567 -1.3386
17806TIP3    H274910   4.130   6.029  16.398 -0.5205  0.4007 -0.4779
17807TIP3   OH274911   5.994   3.780   5.366 -0.0064 -0.2857 -0.2239
17807TIP3    H174912   5.962   3.818   5.447 -0.2927 -1.0454  0.0258
17807TIP3    H274913   6.061   3.717   5.393  1.0481  0.6009 -0.6845
17808TIP3   OH274914   3.193   1.132   0.336  0.5926  0.1185  0.1630
17808TIP3    H174915   3.213   1.072   0.264  0.1275 -1.3891  1.2437
17808TIP3    H274916   3.105   1.166   0.315 -0.1520 -1.4006  0.6861
17809TIP3   OH274917   0.735   3.817   0.814  0.1842 -0.5383  0.0090
17809TIP3    H174918   0.827   3.819   0.788  0.1002  0.5855 -0.2378
17809TIP3    H274919   0.698   3.899   0.781 -0.7160 -0.6024  0.7950
17810TIP3   OH274920   5.029   0.569  12.259 -0.1054  0.6055  0.3305
17810TIP3    H174921   5.000   0.494  12.207  1.0510  0.8586 -0.7226
17810TIP3    H274922   5.069   0.531  12.337  0.6639  0.0982 -0.2946
17811TIP3   OH274923   1.722   3.837   4.399 -0.1712 -0.0101  0.7054
17811TIP3    H174924   1.786   3.859   4.466 -0.6820 -0.6975  1.4344
17811TIP3    H274925   1.643   3.815   4.448 -1.2078  1.5264 -0.1942
17812TIP3   OH274926   5.686   4.122  13.166 -0.2719 -0.8262 -0.5032
17812TIP3    H174927   5.681   4.160  13.078 -0.4667  1.6070  0.4840
17812TIP3    H274928   5.598   4.137  13.203 -0.1810 -1.7780  0.1215
17813TIP3   OH274929   0.934   4.724  14.450 -0.4592  0.0727 -0.0068
17813TIP3    H174930   0.841   4.749  14.448 -0.1185  1.5619  1.2933
17813TIP3    H274931   0.980   4.805  14.470  1.1773 -0.5841 -0.9378
17814TIP3   OH274932   2.264   3.455   0.046  0.3827 -0.1776 -0.5364
17814TIP3    H174933   2.338   3.415   0.092  0.4755  0.2487 -0.3103
17814TIP3    H274934   2.200   3.384   0.038  1.1014 -0.7520 -1.3844
17815TIP3   OH274935   4.979   6.067  14.530  0.4707  0.1167 -0.5339
17815TIP3    H174936   5.011   6.115  14.454  0.2633  1.5277  0.2193
17815TIP3    H274937   5.055   6.058  14.587  0.6586 -1.0632 -0.9615
17816TIP3   OH274938   6.586   4.671   4.723  0.2921 -0.0278  0.4236
17816TIP3    H174939   6.499   4.655   4.760 -0.7089  0.3604 -1.6366
17816TIP3    H274940   6.587   4.765   4.705  1.1820 -0.0121  0.5403
17817TIP3   OH274941   1.732   1.079  15.768 -0.8578 -0.4245 -0.2764
17817TIP3    H174942   1.680   1.115  15.840  1.8386  0.6686  1.2442
17817TIP3    H274943   1.691   0.994  15.750 -2.3349 -0.2126  1.7254
17818TIP3   OH274944   4.587   2.996   3.706 -0.0738  0.2101 -0.7522
17818TIP3    H174945   4.597   3.060   3.635  1.3881 -1.7495 -2.4337
17818TIP3    H274946   4.547   2.920   3.664 -0.5483 -0.4837  0.8910
17819TIP3   OH274947   3.085   3.550   4.363 -0.0525  0.1381 -0.3777
17819TIP3    H174948   3.154   3.578   4.302 -1.0606 -0.3976 -1.8175
17819TIP3    H274949   3.064   3.461   4.334  0.6902 -0.8562  1.9235
17820TIP3   OH274950   4.687   2.788   2.638  0.0195 -0.0526 -0.3480
17820TIP3    H174951   4.750   2.805   2.708  1.2164 -0.1614 -1.3885
17820TIP3    H274952   4.674   2.693   2.640 -1.8260  0.1536  1.2807
17821TIP3   OH274953   3.855   4.626  13.031 -0.1415  0.4592  0.1788
17821TIP3    H174954   3.826   4.717  13.042  1.1040  0.6984  1.9931
17821TIP3    H274955   3.949   4.632  13.014 -0.1756 -0.4710 -0.4191
17822TIP3   OH274956   4.394   4.349  12.161  0.5143  0.2613 -0.7277
17822TIP3    H174957   4.349   4.417  12.111  0.7017 -1.0100 -2.7165
17822TIP3    H274958   4.407   4.388  12.248 -0.0350  2.4643 -1.5727
17823TIP3   OH274959   6.742   0.629   2.129 -0.0449 -0.0029 -0.0693
17823TIP3    H174960   6.730   0.610   2.036  3.5897 -1.1405 -0.4592
17823TIP3    H274961   6.711   0.551   2.174 -1.0410  0.2139 -0.3583
17824TIP3   OH274962   6.743   0.589   4.613 -0.5604  0.0545  0.3030
17824TIP3    H174963   6.728   0.509   4.663  1.2533  0.3607  1.4282
17824TIP3    H274964   6.656   0.622   4.594 -1.3623 -2.1614 -0.1815
17825TIP3   OH274965   2.040   3.299  14.029  1.0383 -0.4957  0.0427
17825TIP3    H174966   2.120   3.271  14.073  3.2445  2.4178 -1.7858
17825TIP3    H274967   2.049   3.266  13.940 -0.8654 -1.8040  0.2466
17826TIP3   OH274968   6.200   4.211  15.616  0.2918  0.3368  0.2900
17826TIP3    H174969   6.175   4.121  15.641  1.0364 -0.2535 -0.9994
17826TIP3    H274970   6.132   4.266  15.655 -0.5491 -0.8427  0.5582
17827TIP3   OH274971   1.837   0.586  12.592 -0.0240  0.2203 -1.1795
17827TIP3    H174972   1.851   0.566  12.499  1.0607 -0.1705 -0.9486
17827TIP3    H274973   1.836   0.500  12.635 -1.6751  0.3239 -0.9573
17828TIP3   OH274974   5.135   2.560   5.771 -0.1750 -0.1613  0.0804
17828TIP3    H174975   5.148   2.606   5.688  0.7330 -1.6008 -0.6063
17828TIP3    H274976   5.075   2.616   5.820  0.1571  1.2823 -1.0861
17829TIP3   OH274977   6.715   4.838   6.115 -0.4593  0.4586 -0.1865
17829TIP3    H174978   6.727   4.820   6.208  0.2619 -0.8866 -0.5111
17829TIP3    H274979   6.651   4.773   6.086 -0.2849  0.5299 -0.7422
17830TIP3   OH274980   2.447   2.428   2.198 -0.0500  0.7796 -0.3375
17830TIP3    H174981   2.452   2.334   2.216 -0.3471  0.6935 -0.6927
17830TIP3    H274982   2.489   2.469   2.274 -1.0516  0.4136  0.4351
17831TIP3   OH274983   1.316   4.024  11.549  1.1525 -0.1939 -0.6384
17831TIP3    H174984   1.385   3.963  11.574  0.0612 -1.0893  0.3133
17831TIP3    H274985   1.294   4.001  11.459 -0.3907 -2.4165  0.2129
17832TIP3   OH274986   4.783   3.864  14.140  0.1830  0.6114 -0.1665
17832TIP3    H174987   4.836   3.912  14.203 -1.1072  0.1042  1.3557
17832TIP3    H274988   4.811   3.773  14.149 -1.1979  0.2738  0.9568
17833TIP3   OH274989   0.917   2.490  15.968  0.5055  0.1176  0.1386
17833TIP3    H174990   0.954   2.433  15.901  1.0737  0.7761 -0.1253
17833TIP3    H274991   0.888   2.431  16.038 -1.4899 -0.7201 -1.3108
17834TIP3   OH274992   4.447   1.138   2.849 -0.0511 -0.1004 -0.0369
17834TIP3    H174993   4.534   1.164   2.819  1.4042 -0.9692  2.9608
17834TIP3    H274994   4.457   1.125   2.944 -3.0280 -1.9443  0.1813
17835TIP3   OH274995   5.313   5.794   3.009  0.2797 -0.3094  0.0267
17835TIP3    H174996   5.268   5.717   3.045  0.4386 -0.8487 -0.8971
17835TIP3    H274997   5.403   5.764   2.994  0.2172 -0.0945 -0.7945
17836TIP3   OH274998   5.921   5.080  15.782  0.1074  0.7106 -0.5258
17836TIP3    H174999   5.977   5.072  15.705 -1.0178  0.0013 -1.3068
17836TIP3    H275000   5.907   5.174  15.793  2.8538  1.0555  0.7815
17837TIP3   OH275001   1.110   4.412  12.648 -0.0734 -0.2861 -0.3159
17837TIP3    H175002   1.035   4.358  12.624 -0.0534 -0.9326  0.9741
17837TIP3    H275003   1.077   4.501  12.647 -1.3344 -0.6792  1.7800
17838TIP3   OH275004   5.570   5.061   1.369 -0.3609 -0.8105 -0.2175
17838TIP3    H175005   5.648   5.062   1.313 -0.4283  0.0781 -0.3191
17838TIP3    H275006   5.584   4.987   1.429  1.7019  0.6716  1.3142
17839TIP3   OH275007   6.189   4.893  16.818  0.0691 -0.2085  0.5342
17839TIP3    H175008   6.223   4.970  16.772  0.3910  0.0785  1.2441
17839TIP3    H275009   6.154   4.928  16.900 -3.6865 -0.1657 -0.8738
17840TIP3   OH275010   3.539   0.090   2.158 -0.3682  0.0889 -0.3967
17840TIP3    H175011   3.627   0.125   2.169  0.7937 -2.7684  0.2655
17840TIP3    H275012   3.538   0.055   2.068 -1.9034  2.6122 -1.4910
17841TIP3   OH275013   2.201   0.508  11.218 -0.5819 -0.2264 -0.0154
17841TIP3    H175014   2.188   0.591  11.265  1.5860 -0.8460  1.8364
17841TIP3    H275015   2.119   0.460  11.230 -1.3393  1.0562  0.1045
17842TIP3   OH275016   3.551   1.769   5.342 -0.5971  1.1048 -0.0961
17842TIP3    H175017   3.528   1.854   5.303  0.2555  0.6894 -1.5623
17842TIP3    H275018   3.615   1.732   5.282  0.1429  0.0526  1.2993
17843TIP3   OH275019   3.076   2.600  13.559  0.4885 -0.5038  1.0902
17843TIP3    H175020   3.114   2.637  13.480  0.2140  1.3686  1.7688
17843TIP3    H275021   3.134   2.630  13.629  0.6974 -2.0795  1.6329
17844TIP3   OH275022   3.700   5.631   5.854 -0.3246 -0.2690  0.1585
17844TIP3    H175023   3.655   5.594   5.931 -1.3414  0.6336  0.0219
17844TIP3    H275024   3.692   5.563   5.787 -1.9545  0.0368 -0.0129
17845TIP3   OH275025   2.156   2.074   3.780  0.2056 -0.3263 -0.2621
17845TIP3    H175026   2.140   2.121   3.862  3.3289  0.6200 -0.0564
17845TIP3    H275027   2.129   2.136   3.711 -0.0219 -0.0861  0.0416
17846TIP3   OH275028   1.851   3.221  16.178  0.2598  0.8378  0.1620
17846TIP3    H175029   1.907   3.245  16.252  0.7484 -1.4459  0.6212
17846TIP3    H275030   1.905   3.162  16.126 -1.0958  0.0468 -0.3823
17847TIP3   OH275031   0.265   5.039  13.743 -0.1415 -0.1106  0.1979
17847TIP3    H175032   0.340   5.089  13.776  0.6120 -2.4302  2.3119
17847TIP3    H275033   0.189   5.092  13.766  0.6840  0.7839  0.9781
17848TIP3   OH275034   3.185   3.563   3.533 -0.0854 -0.0048 -0.0952
17848TIP3    H175035   3.194   3.626   3.603  0.9591  0.6089 -0.7617
17848TIP3    H275036   3.093   3.570   3.506 -0.5719 -0.4449  1.3546
17849TIP3   OH275037   4.816   0.628   0.257  0.6315  0.1636  0.1187
17849TIP3    H175038   4.785   0.718   0.244 -0.1417 -0.4167 -2.7459
17849TIP3    H275039   4.905   0.628   0.220  0.5810 -0.2681 -0.0033
17850TIP3   OH275040   5.246   4.048  16.259  0.0672  0.3091 -0.9566
17850TIP3    H175041   5.267   4.141  16.244 -0.8113  0.6485 -0.1485
17850TIP3    H275042   5.234   4.041  16.354 -0.6288 -0.4755 -1.0932
17851TIP3   OH275043   6.614   4.784   5.282 -0.2072 -0.2300 -0.0370
17851TIP3    H175044   6.620   4.700   5.236 -3.4770  0.3707 -1.8802
17851TIP3    H275045   6.658   4.846   5.224  0.7977 -0.3706  0.5516
17852TIP3   OH275046   2.497   0.525   6.125 -0.2007 -0.2007  0.0063
17852TIP3    H175047   2.586   0.489   6.117  0.1562  0.9543 -1.7683
17852TIP3    H275048   2.445   0.452   6.158  1.1915 -1.2416 -0.0050
17853TIP3   OH275049   0.617   5.399  10.545 -0.1861  0.2663 -0.4182
17853TIP3    H175050   0.682   5.330  10.557 -0.4940 -0.0119 -0.3289
17853TIP3    H275051   0.664   5.470  10.503  0.0839 -0.0854 -0.7103
17854TIP3   OH275052   3.897   3.229  14.879  0.0983  0.2628  0.0796
17854TIP3    H175053   3.812   3.186  14.872  0.0678  0.1159  1.1486
17854TIP3    H275054   3.913   3.235  14.973  0.6292  1.5660 -0.0766
17855TIP3   OH275055   6.413   4.361   5.478 -0.5166 -0.7526 -0.2819
17855TIP3    H175056   6.342   4.388   5.419 -1.5528  0.4678  1.4282
17855TIP3    H275057   6.451   4.444   5.509  0.1849 -1.3624  0.5467
17856TIP3   OH275058   5.470   0.810  14.475  0.0998  0.2252 -0.0146
17856TIP3    H175059   5.412   0.738  14.500 -0.5273  0.6898 -0.1229
17856TIP3    H275060   5.450   0.880  14.538  0.8917  0.2222  0.2575
17857TIP3   OH275061   6.768   6.545  14.508 -0.1341 -0.5020  0.6028
17857TIP3    H175062   6.812   6.509  14.431  1.9093  1.3955  0.7833
17857TIP3    H275063   6.753   6.470  14.564  0.2242 -1.6280 -0.7444
17858TIP3   OH275064   6.637   4.186  11.634 -0.1519  0.0270 -0.2227
17858TIP3    H175065   6.566   4.122  11.643 -0.4209  0.2913 -0.4352
17858TIP3    H275066   6.639   4.206  11.541  0.3096 -0.0921 -0.2411
17859TIP3   OH275067   0.478   0.798   5.994 -0.0516 -0.1464 -0.4327
17859TIP3    H175068   0.385   0.817   6.010  0.2788 -0.5938  2.6620
17859TIP3    H275069   0.483   0.703   5.986  0.1166 -0.0956 -1.0020
17860TIP3   OH275070   5.655   6.095   1.020  0.2549 -0.6990  0.6519
17860TIP3    H175071   5.741   6.091   1.063 -0.0714 -0.7237  1.3191
17860TIP3    H275072   5.635   6.188   1.015  0.4839 -0.6732  0.1538
17861TIP3   OH275073   4.055   1.967   2.083  0.2526 -0.2656 -0.5282
17861TIP3    H175074   4.082   1.934   2.169  1.0242  0.7962 -0.3354
17861TIP3    H275075   3.961   1.983   2.092  0.5934  1.3126  0.6593
17862TIP3   OH275076   4.408   4.208   0.484 -0.4492 -0.2667 -0.3607
17862TIP3    H175077   4.451   4.286   0.448  2.1635 -0.6675  1.5552
17862TIP3    H275078   4.365   4.167   0.408  1.2712  1.0658 -2.1685
17863TIP3   OH275079   3.680   2.320  17.063 -0.3015 -0.3133  0.6485
17863TIP3    H175080   3.689   2.244  17.005 -2.6352 -1.2686  1.4253
17863TIP3    H275081   3.653   2.283  17.147 -1.4212  1.3442  1.0752
17864TIP3   OH275082   0.190   0.899   6.389 -0.3804 -0.2195  0.1321
17864TIP3    H175083   0.234   0.853   6.461  1.8862  1.3560 -0.1409
17864TIP3    H275084   0.097   0.881   6.403  0.0643 -0.8790  2.8199
17865TIP3   OH275085   1.859   1.306  15.459 -0.0425  0.5117  0.1149
17865TIP3    H175086   1.778   1.256  15.469  0.4328  0.0679  2.2400
17865TIP3    H275087   1.929   1.242  15.474  0.7153  0.9870 -1.2176
17866TIP3   OH275088   3.577   6.220   2.565 -1.2676  0.1508 -0.5434
17866TIP3    H175089   3.644   6.279   2.599 -2.2998  1.1112 -0.0984
17866TIP3    H275090   3.541   6.265   2.489 -1.1649 -0.5231 -1.0006
17867TIP3   OH275091   0.246   3.868   1.262  0.2647 -0.2347 -0.3638
17867TIP3    H175092   0.325   3.921   1.256  1.1633 -1.5281 -0.2768
17867TIP3    H275093   0.274   3.780   1.237 -0.6907 -1.1446  1.5772
17868TIP3   OH275094   2.309   1.712   4.927 -0.0509 -0.3043  0.2830
17868TIP3    H175095   2.327   1.805   4.936  1.2754 -0.6323  1.3946
17868TIP3    H275096   2.395   1.671   4.927 -0.6630 -1.7255  2.3486
17869TIP3   OH275097   0.387   5.611   4.235  0.7022 -0.3185 -0.7128
17869TIP3    H175098   0.392   5.696   4.192  0.2020 -0.5224 -1.1813
17869TIP3    H275099   0.338   5.628   4.316 -0.0022 -0.2862 -1.1388
17870TIP3   OH275100   6.045   2.910   3.035 -0.4300 -0.0506 -0.2680
17870TIP3    H175101   6.028   2.831   2.985  2.2481  0.0217 -1.4664
17870TIP3    H275102   6.085   2.970   2.972 -0.0727  1.3145  1.1930
17871TIP3   OH275103   1.889   2.489  12.695  0.2350  0.2796 -0.1171
17871TIP3    H175104   1.800   2.459  12.717  0.1606  1.3212  1.0831
17871TIP3    H275105   1.890   2.489  12.599 -0.5729 -1.1263 -0.1698
17872TIP3   OH275106   4.623   1.765  14.618 -0.1681 -0.2743  0.2636
17872TIP3    H175107   4.576   1.693  14.577  0.8157 -0.2721 -0.9217
17872TIP3    H275108   4.704   1.773  14.568  0.2344  0.9536  1.0541
17873TIP3   OH275109   3.621   3.067  13.265  0.4540  0.3561  0.0784
17873TIP3    H175110   3.563   3.096  13.336  0.9711  1.8617 -0.0952
17873TIP3    H275111   3.561   3.041  13.194 -0.1093 -1.8859  1.2538
17874TIP3   OH275112   5.019   0.087  11.255 -0.0516 -0.8794 -0.1674
17874TIP3    H175113   4.937   0.053  11.221 -0.8683 -2.0879  2.7568
17874TIP3    H275114   4.993   0.155  11.318  1.2426 -0.4981 -0.0085
17875TIP3   OH275115   4.391   4.928   2.951  0.2624  0.1026 -0.3493
17875TIP3    H175116   4.341   4.873   2.891  3.3103 -1.3384 -1.8348
17875TIP3    H275117   4.414   4.871   3.024 -0.2332  0.7534  0.3355
17876TIP3   OH275118   2.867   5.568   3.264  0.7581  0.6834 -0.0141
17876TIP3    H175119   2.877   5.508   3.339 -0.0326 -0.6785 -0.9398
17876TIP3    H275120   2.928   5.535   3.199  0.7988  1.3200 -0.3033
17877TIP3   OH275121   0.245   2.485   5.752 -0.2744  0.7549 -0.2892
17877TIP3    H175122   0.169   2.540   5.769 -1.1137 -0.4010 -0.1712
17877TIP3    H275123   0.271   2.453   5.839  0.7282  1.6114 -0.2583
17878TIP3   OH275124   1.377   1.838  11.671  0.4824  0.2900 -0.1822
17878TIP3    H175125   1.301   1.781  11.686  1.6346 -0.7283  2.2732
17878TIP3    H275126   1.453   1.779  11.678  1.5950  1.6176 -0.5848
17879TIP3   OH275127   1.216   4.990  14.023  0.3896  0.2221  0.5072
17879TIP3    H175128   1.246   4.907  13.985  0.2049  0.8910 -1.1666
17879TIP3    H275129   1.125   4.974  14.047  0.2680  0.0248 -0.0740
17880TIP3   OH275130   3.514   3.987   5.532 -0.6289 -0.0744 -0.4401
17880TIP3    H175131   3.510   3.979   5.628  2.1910 -0.6798 -0.2915
17880TIP3    H275132   3.507   3.897   5.500 -4.4836  0.2779 -1.1304
17881TIP3   OH275133   3.125   0.307  16.942  0.1959 -0.0802  0.2617
17881TIP3    H175134   3.054   0.249  16.970  0.9004 -0.6618  0.8500
17881TIP3    H275135   3.200   0.283  16.996  0.6680  0.9859  0.1148
17882TIP3   OH275136   6.340   2.836  17.120 -0.3265 -0.0347  0.2734
17882TIP3    H175137   6.329   2.742  17.133  0.5520 -0.1355  0.3716
17882TIP3    H275138   6.251   2.870  17.113 -0.6902 -1.2378 -2.4168
17883TIP3   OH275139   1.433   0.780  14.436  0.0015 -0.3286  0.2224
17883TIP3    H175140   1.424   0.781  14.341 -0.2615 -1.0280  0.2319
17883TIP3    H275141   1.355   0.733  14.467 -1.5533  2.4613  0.9898
17884TIP3   OH275142   1.997   2.405   1.881  0.1458  0.2786  0.3767
17884TIP3    H175143   2.087   2.422   1.910  0.1053 -0.4806  1.0007
17884TIP3    H275144   1.960   2.351   1.951 -0.3953 -0.4613 -0.4644
17885TIP3   OH275145   6.234   1.508   3.120  0.0225 -0.1744  0.1813
17885TIP3    H175146   6.189   1.583   3.080  0.2488  0.2757  0.7429
17885TIP3    H275147   6.221   1.436   3.058 -0.4213  0.2618 -0.2475
17886TIP3   OH275148   3.824   3.576  15.883  0.2397  0.0182 -0.0496
17886TIP3    H175149   3.855   3.486  15.892  0.1656 -0.3114 -2.4597
17886TIP3    H275150   3.729   3.568  15.878  0.1410  0.3892  1.0292
17887TIP3   OH275151   1.945   1.432   4.998 -0.3690  0.2123  0.4961
17887TIP3    H175152   1.899   1.513   4.974 -0.2402 -0.1038 -0.9276
17887TIP3    H275153   1.939   1.377   4.919  1.1544 -0.4251  0.7905
17888TIP3   OH275154   4.671   4.811  13.432 -0.0340  0.5147 -0.1991
17888TIP3    H175155   4.727   4.857  13.494 -1.0507  0.0408  1.1126
17888TIP3    H275156   4.583   4.843  13.451 -0.4187  0.0366 -1.1063
17889TIP3   OH275157   2.235   1.654   3.126  0.3132 -0.2454  0.4386
17889TIP3    H175158   2.196   1.576   3.084  0.3047 -0.4914  0.8999
17889TIP3    H275159   2.163   1.693   3.175  0.6377 -0.7135  1.3123
17890TIP3   OH275160   6.018   1.062  11.671 -0.3233  0.5352  0.2791
17890TIP3    H175161   6.003   1.099  11.584  0.0429  0.6842  0.2765
17890TIP3    H275162   6.110   1.036  11.670  0.5272  3.1583  1.5823
17891TIP3   OH275163   5.263   3.507  16.047  0.3002  0.4396 -0.0620
17891TIP3    H175164   5.355   3.510  16.073  0.7514  2.5317 -1.5998
17891TIP3    H275165   5.228   3.429  16.090  2.4002  0.4027  1.7658
17892TIP3   OH275166   1.169   3.079   2.410  0.8678 -0.1974  0.2755
17892TIP3    H175167   1.209   3.026   2.341  0.7938  0.3311 -0.1752
17892TIP3    H275168   1.235   3.145   2.432 -0.6409  2.4288 -2.3740
17893TIP3   OH275169   4.223   1.591  15.020  0.1392  0.5528  0.5140
17893TIP3    H175170   4.291   1.599  14.953 -2.4133 -0.1904 -2.3957
17893TIP3    H275171   4.228   1.500  15.049 -0.6963  0.0146 -0.9832
17894TIP3   OH275172   2.219   0.678   0.724 -0.0929 -0.6805 -0.4028
17894TIP3    H175173   2.160   0.748   0.754  0.8004  0.3539 -0.9661
17894TIP3    H275174   2.285   0.672   0.793  1.4434  1.0625 -1.6230
17895TIP3   OH275175   5.046   2.689  16.856 -0.4970 -0.4600  0.2822
17895TIP3    H175176   5.094   2.609  16.874  0.8577  0.2657 -0.0167
17895TIP3    H275177   5.012   2.678  16.767  1.1203 -0.0230 -0.4095
17896TIP3   OH275178   0.130   1.239   1.876  0.0851 -0.3281  0.2764
17896TIP3    H175179   0.080   1.264   1.954 -0.7439 -0.1169 -0.3077
17896TIP3    H275180   0.081   1.277   1.803  0.9134 -0.4256 -0.3427
17897TIP3   OH275181   3.555   5.046   4.622 -0.2140  0.0862  0.2474
17897TIP3    H175182   3.619   5.091   4.566  0.1204 -2.2360 -1.3522
17897TIP3    H275183   3.472   5.090   4.603  0.6796  2.9243  2.1067
17898TIP3   OH275184   1.045   5.433  14.036  0.0452 -0.1197 -0.8913
17898TIP3    H175185   1.060   5.527  14.025 -2.6713  0.5193  0.0280
17898TIP3    H275186   1.102   5.408  14.109 -0.9109  1.4362  0.4782
17899TIP3   OH275187   1.189   2.566  13.428 -0.7775 -0.2597 -0.4039
17899TIP3    H175188   1.101   2.586  13.461 -0.6298  1.7740 -1.0879
17899TIP3    H275189   1.246   2.581  13.503 -0.8300  0.5204 -0.5056
17900TIP3   OH275190   2.055   4.593  13.310  0.5074  0.5302  0.0082
17900TIP3    H175191   2.092   4.680  13.327  0.0649  0.9149 -0.8878
17900TIP3    H275192   2.099   4.535  13.371  0.6512  1.4287  0.7736
17901TIP3   OH275193   3.065   2.054  13.731  0.4032  0.3964  0.2112
17901TIP3    H175194   3.032   2.012  13.810 -0.0248 -0.2768 -0.3175
17901TIP3    H275195   3.153   2.084  13.755  0.1476  0.5051  1.0390
17902TIP3   OH275196   1.977   1.534  16.231  0.3159  0.3451  0.4541
17902TIP3    H175197   2.011   1.622  16.212 -0.5533  0.5087 -0.4807
17902TIP3    H275198   2.028   1.476  16.174  3.4221 -0.3511  3.5592
17903TIP3   OH275199   1.066   0.963   0.898  0.0002  0.4270  0.2524
17903TIP3    H175200   1.067   1.058   0.902  3.3546  0.4796  1.2415
17903TIP3    H275201   1.067   0.935   0.989  0.2116 -0.4930 -0.0192
17904TIP3   OH275202   4.237   2.482   6.612  0.1043 -0.1809 -0.4551
17904TIP3    H175203   4.256   2.530   6.531  0.3241 -0.0295 -0.3191
17904TIP3    H275204   4.286   2.401   6.604  0.2849 -0.0799 -0.3915
17905TIP3   OH275205   1.086   0.469  15.189  0.4751 -0.2066  0.5449
17905TIP3    H175206   1.052   0.548  15.229 -1.9353  1.0257 -3.3330
17905TIP3    H275207   1.181   0.481  15.189  0.2292  2.3212  0.8351
17906TIP3   OH275208   3.027   0.456  15.592 -0.0864  0.2594 -0.4027
17906TIP3    H175209   2.984   0.372  15.612 -0.7498  0.4919 -0.8110
17906TIP3    H275210   3.116   0.432  15.566 -0.5576 -0.4175 -1.4670
17907TIP3   OH275211   4.399   2.305   1.346 -0.2617 -0.3591 -0.0099
17907TIP3    H175212   4.410   2.229   1.288 -0.4506  0.7426 -1.5444
17907TIP3    H275213   4.486   2.321   1.381 -0.0111 -0.6778 -0.4768
17908TIP3   OH275214   6.275   3.703  11.249 -0.0854 -0.0701 -0.1648
17908TIP3    H175215   6.289   3.658  11.166  0.0853  0.4276 -0.4085
17908TIP3    H275216   6.226   3.782  11.226  0.5923  0.4395  0.1029
17909TIP3   OH275217   4.917   5.146   2.350 -0.0851  0.7269  0.6775
17909TIP3    H175218   4.905   5.092   2.428  2.8224  0.9129  1.3462
17909TIP3    H275219   4.858   5.220   2.363  0.0789  0.5707  2.5393
17910TIP3   OH275220   2.915   5.825   0.933  0.3149 -0.1722 -0.4787
17910TIP3    H175221   2.968   5.771   0.993  0.5447 -1.0884 -1.4661
17910TIP3    H275222   2.955   5.912   0.938  0.2631 -0.1963  0.7575
17911TIP3   OH275223   4.573   3.336   5.115 -0.0239 -0.3259 -0.5177
17911TIP3    H175224   4.633   3.384   5.173  0.0594 -1.4581  0.3703
17911TIP3    H275225   4.613   3.250   5.105 -0.4569 -0.4174 -1.6260
17912TIP3   OH275226   1.800   0.657  15.143  0.2779 -0.3887 -0.3037
17912TIP3    H175227   1.747   0.732  15.115 -0.7730 -1.1643 -0.4492
17912TIP3    H275228   1.758   0.582  15.101  0.4543 -1.2352  0.9960
17913TIP3   OH275229   1.893   1.079   3.053  0.3585  0.5746 -1.2245
17913TIP3    H175230   1.942   1.027   2.990 -1.6520 -1.1982 -1.4528
17913TIP3    H275231   1.863   1.155   3.003 -0.7838 -0.5558 -2.3482
17914TIP3   OH275232   3.692   5.475  16.678 -0.2434  0.0432  0.0639
17914TIP3    H175233   3.659   5.562  16.701 -3.7300 -0.8127 -1.0838
17914TIP3    H275234   3.735   5.488  16.593 -2.2130  0.4547 -0.9223
17915TIP3   OH275235   4.268   3.901  17.249  0.8635  0.2601 -0.7873
17915TIP3    H175236   4.202   3.853  17.199  0.6597 -1.5231  1.0628
17915TIP3    H275237   4.238   3.991  17.248 -0.9210 -0.3063 -1.0490
17916TIP3   OH275238   5.609   2.513   4.566 -0.1239 -0.4441 -0.2904
17916TIP3    H175239   5.689   2.555   4.536 -0.1252 -0.2268 -0.0016
17916TIP3    H275240   5.611   2.524   4.661 -1.4315  1.2876 -0.4112
17917TIP3   OH275241   1.137   3.575   2.333 -0.1536  0.5611  0.2866
17917TIP3    H175242   1.102   3.528   2.409 -1.7919 -0.3463 -0.9606
17917TIP3    H275243   1.084   3.655   2.328 -1.4491 -0.3249 -1.0070
17918TIP3   OH275244   2.509   3.999  14.204 -0.1640  0.2224 -0.2285
17918TIP3    H175245   2.479   4.066  14.266 -0.6481 -0.3796  0.2049
17918TIP3    H275246   2.432   3.982  14.149  0.0730  0.2902 -0.5875
17919TIP3   OH275247   2.298   4.290   5.680  0.1165  0.1465 -0.1688
17919TIP3    H175248   2.206   4.311   5.697 -0.0787  0.1575 -1.1579
17919TIP3    H275249   2.347   4.352   5.734 -0.4473 -0.3072  0.8884
17920TIP3   OH275250   1.372   0.277  13.152 -0.1588  0.7112  0.4392
17920TIP3    H175251   1.361   0.240  13.064  1.2748 -1.0899  0.9628
17920TIP3    H275252   1.335   0.365  13.145 -1.7880 -0.0444 -1.4454
17921TIP3   OH275253   2.527   5.287   3.423 -0.4282 -0.0829 -0.1793
17921TIP3    H175254   2.565   5.218   3.478  1.6597  1.4017  0.3821
17921TIP3    H275255   2.433   5.268   3.422 -0.3075 -1.2829  2.3155
17922TIP3   OH275256   2.986   4.039   1.484  0.2939  0.7285  0.3647
17922TIP3    H175257   3.055   3.974   1.474 -0.4600  0.2160 -2.1121
17922TIP3    H275258   2.928   4.003   1.551  0.5890 -0.5128 -0.0215
17923TIP3   OH275259   4.060   1.857   3.539 -0.6497  0.2871 -0.3957
17923TIP3    H175260   4.118   1.785   3.515  0.3490  0.8365  0.3036
17923TIP3    H275261   3.998   1.863   3.467 -0.0059 -0.4952 -1.0322
17924TIP3   OH275262   2.140   2.599   4.849 -0.7612 -0.2611 -0.1550
17924TIP3    H175263   2.177   2.512   4.838 -1.8700 -1.0213  1.6597
17924TIP3    H275264   2.159   2.622   4.940  0.2365  1.7802 -0.8207
17925TIP3   OH275265   1.681   1.962  13.842 -0.0283 -0.1501 -0.4859
17925TIP3    H175266   1.696   1.878  13.886 -0.4715 -0.5726 -1.1184
17925TIP3    H275267   1.769   1.995  13.824  0.1896 -1.2702 -1.6737
17926TIP3   OH275268   0.727   4.947   1.412 -0.3130 -0.2405  0.3994
17926TIP3    H175269   0.666   5.022   1.410 -1.4533 -1.1124  1.0149
17926TIP3    H275270   0.814   4.987   1.412 -0.8896  1.0725  0.2059
17927TIP3   OH275271   3.972   2.046  17.076  0.4111  0.0083  0.2636
17927TIP3    H175272   3.964   1.954  17.100  1.4971 -0.3831 -0.8032
17927TIP3    H275273   4.016   2.086  17.151  1.5398 -0.7026 -0.0023
17928TIP3   OH275274   0.676   3.323  13.949 -0.1931  0.0260  0.9955
17928TIP3    H175275   0.748   3.262  13.935  0.0321  0.3947  0.5087
17928TIP3    H275276   0.681   3.384  13.875  0.5887  1.6189  2.2812
17929TIP3   OH275277   2.920   2.069  16.853  0.2826 -0.7681 -0.2281
17929TIP3    H175278   3.012   2.082  16.828 -0.0932 -0.5230 -1.5932
17929TIP3    H275279   2.895   2.149  16.897  0.4477 -0.4168 -0.7620
17930TIP3   OH275280   2.506   2.517   1.654 -0.0995  0.3986  0.0559
17930TIP3    H175281   2.442   2.588   1.643  0.1358  0.7812  1.0347
17930TIP3    H275282   2.482   2.477   1.738  1.4645  1.1096  0.8818
17931TIP3   OH275283   0.085   0.299  13.268  0.2415 -0.3073  0.1891
17931TIP3    H175284  -0.008   0.285  13.251  0.6934 -1.5628 -1.5658
17931TIP3    H275285   0.088   0.331  13.358 -1.8458 -0.6453  0.4412
17932TIP3   OH275286   1.174   5.381  14.262  0.0980 -0.0383 -0.1584
17932TIP3    H175287   1.084   5.395  14.291 -0.0397 -0.4336 -0.3877
17932TIP3    H275288   1.228   5.399  14.339 -0.1301  0.8298 -0.1849
17933TIP3   OH275289   1.529   1.971  14.177 -0.5071  0.5159 -0.1583
17933TIP3    H175290   1.455   1.958  14.119 -2.0968 -2.0505  2.1805
17933TIP3    H275291   1.595   1.909  14.148 -0.7521  0.2092 -0.0607
17934TIP3   OH275292   4.107   5.788  13.903  0.4935  0.6996  0.0709
17934TIP3    H175293   4.042   5.848  13.865 -0.2652 -0.3047 -0.2748
17934TIP3    H275294   4.071   5.766  13.989 -0.9361 -1.7288 -1.0318
17935TIP3   OH275295   5.421   4.838   3.333  0.4226  0.2109  0.1804
17935TIP3    H175296   5.437   4.749   3.303 -0.1503  0.2156 -0.1536
17935TIP3    H275297   5.445   4.837   3.426 -0.6727 -0.6015  0.4819
17936TIP3   OH275298   5.289   3.343   5.835 -0.1600  0.9351  0.3527
17936TIP3    H175299   5.369   3.392   5.857  1.2788 -1.7868  1.7735
17936TIP3    H275300   5.276   3.359   5.741  1.7590  1.8879  0.1946
17937TIP3   OH275301   2.341   6.174  12.336 -0.9079  0.1816 -0.3982
17937TIP3    H175302   2.295   6.138  12.259 -2.2954  0.3293  0.3281
17937TIP3    H275303   2.308   6.263  12.343 -0.1799  0.4267 -0.0932
17938TIP3   OH275304   6.341   4.669  16.910  0.5340 -0.0285 -0.1478
17938TIP3    H175305   6.285   4.735  16.869 -0.2970 -0.1324  0.7837
17938TIP3    H275306   6.334   4.593  16.853 -0.5099 -0.1297  0.0980
17939TIP3   OH275307   6.308   5.903  10.492 -0.3268  0.2294  0.1433
17939TIP3    H175308   6.258   5.898  10.410  0.4190  0.3083 -0.3202
17939TIP3    H275309   6.378   5.965  10.474  0.7594 -0.9071  0.3485
17940TIP3   OH275310   2.804   4.206  14.741 -0.0425  0.4243  0.3652
17940TIP3    H175311   2.805   4.157  14.824  0.3649  0.0559  0.1476
17940TIP3    H275312   2.760   4.288  14.762 -0.1768  0.2213  0.8866
17941TIP3   OH275313   6.495   2.430   6.275  0.1912 -0.1818 -0.3157
17941TIP3    H175314   6.535   2.432   6.362  1.5469 -2.1894 -0.8174
17941TIP3    H275315   6.545   2.494   6.225 -0.3836  0.7514  0.2749
17942TIP3   OH275316   4.351   4.193   0.216 -0.1473  0.2384  0.3456
17942TIP3    H175317   4.400   4.130   0.163 -1.0772 -0.1307 -0.0986
17942TIP3    H275318   4.263   4.194   0.177 -0.6963  0.3736  1.5522
17943TIP3   OH275319   3.285   4.003  15.959 -0.0959  0.0487  0.0068
17943TIP3    H175320   3.248   4.057  15.889  0.6189  1.4199  0.6367
17943TIP3    H275321   3.225   4.014  16.032 -0.4960 -0.8649 -0.1707
17944TIP3   OH275322   6.216   2.833  14.065 -0.4522  0.0578 -0.4074
17944TIP3    H175323   6.284   2.831  14.132 -1.8730  0.2333  1.1011
17944TIP3    H275324   6.226   2.918  14.023 -0.4973  0.6037  0.6429
17945TIP3   OH275325   1.034   0.417  10.383 -0.6346  0.3400 -0.4956
17945TIP3    H175326   0.959   0.441  10.437 -0.8890  1.6289 -1.3762
17945TIP3    H275327   0.998   0.357  10.318 -0.1579 -1.9463  1.2071
17946TIP3   OH275328   0.373   1.874   0.832 -0.3581 -0.0549 -0.2759
17946TIP3    H175329   0.426   1.952   0.818  2.1418 -1.7151 -0.5615
17946TIP3    H275330   0.285   1.900   0.805 -0.1057  3.2333  1.4850
17947TIP3   OH275331   6.525   4.021   6.043  0.3866 -0.2119  0.7990
17947TIP3    H175332   6.473   4.099   6.023  0.3177 -0.4997 -0.1513
17947TIP3    H275333   6.495   3.994   6.130  0.3255  0.7489  1.0906
17948TIP3   OH275334   2.435   1.071  10.566  0.5086 -0.2388 -0.2679
17948TIP3    H175335   2.465   1.162  10.573  1.1457 -0.4738  0.2688
17948TIP3    H275336   2.514   1.019  10.585  0.4614 -0.9248 -1.7924
17949TIP3   OH275337   4.412   0.757   5.855 -0.0153  0.2500 -0.0442
17949TIP3    H175338   4.485   0.817   5.837 -1.0065  1.1043 -1.3650
17949TIP3    H275339   4.413   0.747   5.950  0.6646  1.7392  0.1315
17950TIP3   OH275340   2.563   5.810   2.484  0.1007 -0.2318  0.0735
17950TIP3    H175341   2.622   5.766   2.545  1.0990  0.1085 -0.6175
17950TIP3    H275342   2.621   5.858   2.425 -0.9341  1.3002  0.2582
17951TIP3   OH275343   1.405   1.717  12.587  0.3508 -0.1402  0.0244
17951TIP3    H175344   1.442   1.800  12.558  0.3040 -0.1618 -0.0965
17951TIP3    H275345   1.480   1.667  12.618  0.1174  0.8635  2.3888
17952TIP3   OH275346   1.340   4.233   5.873  0.0067 -0.5579  0.3410
17952TIP3    H175347   1.330   4.231   5.778 -0.7742 -0.2598  0.4085
17952TIP3    H275348   1.317   4.323   5.897 -0.1183 -0.7194  0.8408
17953TIP3   OH275349   5.917   3.531  15.261  0.3819  0.1817 -0.0343
17953TIP3    H175350   5.971   3.528  15.340  1.5184 -0.4103 -0.8020
17953TIP3    H275351   5.885   3.442  15.250 -0.8197  0.5399  0.4393
17954TIP3   OH275352   4.824   0.430  16.901 -0.1376  0.1250  0.1532
17954TIP3    H175353   4.803   0.351  16.951  1.0434  0.3656  1.0772
17954TIP3    H275354   4.831   0.400  16.811 -3.7729 -0.0676 -0.2048
17955TIP3   OH275355   5.820   0.979   4.418  0.6862  0.2240  0.6370
17955TIP3    H175356   5.727   0.997   4.411  0.2510  0.1211  4.2289
17955TIP3    H275357   5.862   1.049   4.368 -1.2791  0.8803 -0.1791
17956TIP3   OH275358   3.946   3.416   5.366 -0.4362  0.8318 -0.5374
17956TIP3    H175359   3.994   3.410   5.448 -2.6576 -0.4880  0.7867
17956TIP3    H275360   3.870   3.471   5.386 -1.8928 -0.8397 -1.1649
17957TIP3   OH275361   5.441   0.637  12.206 -0.1000 -0.3087 -0.2072
17957TIP3    H175362   5.373   0.614  12.143  0.5644 -3.1772 -0.0065
17957TIP3    H275363   5.492   0.557  12.217  2.1418  1.1903  1.1139
17958TIP3   OH275364   5.342   2.478   0.258  0.3988  0.1278  0.0010
17958TIP3    H175365   5.421   2.465   0.311 -0.1948  0.9606  1.1469
17958TIP3    H275366   5.320   2.570   0.273 -2.6989 -0.8546  2.4728
17959TIP3   OH275367   4.719   6.619  12.233 -0.3534  0.2677 -0.7091
17959TIP3    H175368   4.765   6.645  12.153 -0.4296  0.0341 -0.8305
17959TIP3    H275369   4.648   6.563  12.202  0.4274 -0.9556 -0.3921
17960TIP3   OH275370   6.524   6.330   1.748 -0.5642  0.4680 -0.0091
17960TIP3    H175371   6.619   6.325   1.757 -0.4663  1.3281 -0.4697
17960TIP3    H275372   6.493   6.355   1.835 -0.1568  2.5263 -0.4137
17961TIP3   OH275373   4.256   2.793   5.047  0.2697 -0.2184 -0.4311
17961TIP3    H175374   4.288   2.719   4.995  1.6077  1.5238 -2.2042
17961TIP3    H275375   4.210   2.752   5.120  0.7104 -2.7961 -1.4911
17962TIP3   OH275376   6.438   6.413  15.716 -0.5941  0.4833 -0.3431
17962TIP3    H175377   6.455   6.394  15.624  1.7363 -0.0492  0.1416
17962TIP3    H275378   6.494   6.353  15.764 -0.0398  2.2651  1.3924
17963TIP3   OH275379   1.758   1.332  13.553 -0.0439  0.4522 -0.2310
17963TIP3    H175380   1.803   1.371  13.479  1.7344 -2.0284 -0.6039
17963TIP3    H275381   1.666   1.355  13.541  0.4791  1.8169 -2.0384
17964TIP3   OH275382   0.721   4.835  13.751  0.1406 -0.0369 -0.3437
17964TIP3    H175383   0.741   4.926  13.774 -1.3276  0.2457 -0.0519
17964TIP3    H275384   0.701   4.838  13.657  0.1469 -0.0612 -0.3456
17965TIP3   OH275385   5.285   4.637  11.752 -0.1602 -0.1238  0.1131
17965TIP3    H175386   5.231   4.559  11.738 -0.1682 -0.4586  1.8252
17965TIP3    H275387   5.271   4.690  11.673 -0.5208 -1.6194 -0.8782
17966TIP3   OH275388   5.776   6.354   0.378 -0.6538  0.0668  0.2746
17966TIP3    H175389   5.749   6.407   0.453 -0.5856  2.1817 -1.1021
17966TIP3    H275390   5.702   6.296   0.361 -1.0499  0.2318  1.3922
17967TIP3   OH275391   2.797   2.125  12.001  0.3235  0.1724  0.4127
17967TIP3    H175392   2.740   2.098  11.929  1.2698 -1.7093  0.3125
17967TIP3    H275393   2.739   2.173  12.060 -0.8163  0.4070 -0.8423
17968TIP3   OH275394   1.577   0.378  15.297  0.0890 -0.4679 -0.0470
17968TIP3    H175395   1.636   0.397  15.224 -0.2280  0.5238 -0.0633
17968TIP3    H275396   1.596   0.288  15.321  2.2638  0.0749  0.5243
17969TIP3   OH275397   6.172   2.613   4.671 -0.4487  0.4842 -0.3377
17969TIP3    H175398   6.139   2.612   4.761 -2.4996 -2.8112 -0.9766
17969TIP3    H275399   6.266   2.628   4.680 -0.4016 -0.9317  2.5014
17970TIP3   OH275400   5.672   2.588  16.016  0.3936  0.3659 -0.0938
17970TIP3    H175401   5.623   2.519  15.970  0.8938  0.7783 -1.2712
17970TIP3    H275402   5.682   2.554  16.105 -0.4682 -0.5233 -0.3123
17971TIP3   OH275403   4.053   3.877  12.201 -0.2712  0.8864  0.2708
17971TIP3    H175404   4.115   3.814  12.238 -1.8905 -1.4643 -0.7628
17971TIP3    H275405   4.108   3.938  12.152  1.2943 -1.6868 -1.4489
17972TIP3   OH275406   3.760   5.950   3.905 -0.1515 -0.2795 -0.7930
17972TIP3    H175407   3.793   6.017   3.964 -0.0933 -0.6111 -0.4473
17972TIP3    H275408   3.691   5.906   3.954  0.7484 -1.3864 -0.4925
17973TIP3   OH275409   6.182   2.277  11.893  0.6507 -0.0460  0.0285
17973TIP3    H175410   6.272   2.292  11.922  0.8165 -0.1221 -0.4277
17973TIP3    H275411   6.179   2.315  11.805 -0.4196  2.0744  0.9079
17974TIP3   OH275412   6.358   2.061   3.777  0.4751 -0.1404  0.2958
17974TIP3    H175413   6.415   1.989   3.749  0.1234 -0.3900  0.2150
17974TIP3    H275414   6.294   2.019   3.835  0.3098  0.1205  0.2997
17975TIP3   OH275415   2.406   4.719   4.259  0.2199 -0.2687  0.5206
17975TIP3    H175416   2.406   4.671   4.342 -0.4692  0.6175  1.0546
17975TIP3    H275417   2.326   4.690   4.215  0.0342  0.0374  0.6479
17976TIP3   OH275418   3.705   4.516  12.492 -0.3042  0.4296  0.2492
17976TIP3    H175419   3.793   4.553  12.498  0.1426 -0.7436  1.4772
17976TIP3    H275420   3.676   4.536  12.403  1.3246  0.5877 -0.2663
17977TIP3   OH275421   1.657   2.697  13.962 -0.4580  0.3430  0.2806
17977TIP3    H175422   1.706   2.738  14.034  0.1137  0.8746 -0.3935
17977TIP3    H275423   1.676   2.604  13.970  1.1077  0.5724 -0.2501
17978TIP3   OH275424   3.831   1.586   3.836  0.2596 -0.5088 -0.2896
17978TIP3    H175425   3.788   1.501   3.825 -2.0038  0.3487  1.2412
17978TIP3    H275426   3.817   1.631   3.753 -1.0005 -0.6175 -0.1466
17979TIP3   OH275427   4.530   3.335  16.271  0.1012  0.8028 -0.0835
17979TIP3    H175428   4.586   3.385  16.212  0.7694  0.6755  0.4287
17979TIP3    H275429   4.468   3.289  16.214  1.2530  0.0425 -0.7537
17980TIP3   OH275430   6.243   3.264  16.610  0.6338  0.1279 -0.2459
17980TIP3    H175431   6.309   3.319  16.653  0.4799 -0.8496  1.3142
17980TIP3    H275432   6.161   3.311  16.622  0.5789 -0.1764  0.6414
17981TIP3   OH275433   4.671   1.107   0.139  0.1384 -0.4351 -0.5648
17981TIP3    H175434   4.725   1.166   0.192  1.6122 -0.8453 -1.5470
17981TIP3    H275435   4.590   1.097   0.189 -0.4216  2.8244 -0.5614
17982TIP3   OH275436   4.626   4.332  14.024  0.1268  0.1443 -0.4240
17982TIP3    H175437   4.540   4.367  14.048  0.0559  0.0857 -0.5889
17982TIP3    H275438   4.631   4.346  13.929  0.1438 -0.2018 -0.4725
17983TIP3   OH275439   2.672   2.093   5.812  0.2436  0.2457  0.4501
17983TIP3    H175440   2.736   2.164   5.815  0.0190  0.5192 -0.6824
17983TIP3    H275441   2.695   2.037   5.886  1.7532  0.3689  0.1122
17984TIP3   OH275442   3.930   4.744   5.162 -0.0177 -0.1426 -0.1641
17984TIP3    H175443   3.962   4.660   5.128  1.8274  0.6033 -0.3494
17984TIP3    H275444   4.007   4.786   5.200 -1.2469  0.7501  1.5035
17985TIP3   OH275445   0.355   0.419  16.897  0.1364 -0.1763  0.0956
17985TIP3    H175446   0.312   0.488  16.949 -0.0551  0.5804 -1.0203
17985TIP3    H275447   0.414   0.376  16.958 -0.4908  0.3127  1.0793
17986TIP3   OH275448   2.948   1.581   2.374 -0.3594  0.0851 -0.4359
17986TIP3    H175449   2.901   1.510   2.417 -1.3014  0.9714  0.0331
17986TIP3    H275450   2.927   1.571   2.281  0.6276 -1.0442 -0.5731
17987TIP3   OH275451   1.670   2.699  14.266  1.1016 -0.7465 -0.2413
17987TIP3    H175452   1.704   2.612  14.286  1.3515 -0.7487 -0.6746
17987TIP3    H275453   1.583   2.682  14.229  0.3387 -0.7121  1.4176
17988TIP3   OH275454   2.769   5.107   4.638  0.2580  0.4402  0.6151
17988TIP3    H175455   2.772   5.194   4.678  1.4167  1.7194 -2.0097
17988TIP3    H275456   2.727   5.122   4.553 -0.5325 -1.8049  0.5609
17989TIP3   OH275457   6.475   3.566   4.465  0.2308 -0.1331 -0.0056
17989TIP3    H175458   6.544   3.633   4.463  1.6661 -1.4961  1.0257
17989TIP3    H275459   6.496   3.508   4.392 -0.3403 -0.0698 -0.2173
17990TIP3   OH275460   6.629   0.979   3.263 -0.0769 -0.0973  0.1891
17990TIP3    H175461   6.544   1.014   3.238 -0.1647 -0.5707 -0.1995
17990TIP3    H275462   6.618   0.884   3.257 -0.1201 -0.2447  2.1240
17991TIP3   OH275463   0.202   5.894   0.234  0.4242  0.2426  0.5968
17991TIP3    H175464   0.137   5.935   0.291  0.4896 -0.1723  0.9786
17991TIP3    H275465   0.177   5.920   0.146 -0.3536 -0.0397  0.7303
17992TIP3   OH275466   4.951   0.340  12.087 -0.3078  0.2072 -0.4147
17992TIP3    H175467   4.936   0.278  12.159  0.6713  1.1199  0.6131
17992TIP3    H275468   4.933   0.289  12.008  1.0320 -1.5867  0.3675
17993TIP3   OH275469   2.645   2.029  11.807  0.3085 -0.2701  0.0064
17993TIP3    H175470   2.643   2.058  11.716  0.3543  0.2472  0.1656
17993TIP3    H275471   2.557   1.995  11.824  0.3994 -0.6817 -0.3238
17994TIP3   OH275472   4.438   2.091  11.274 -0.1505 -0.2146 -0.5232
17994TIP3    H175473   4.430   2.173  11.225 -0.8683 -1.1598 -2.0768
17994TIP3    H275474   4.348   2.066  11.294  0.0706 -0.5393  0.1026
17995TIP3   OH275475   0.359   5.683  11.108 -0.2854  0.2372 -0.3316
17995TIP3    H175476   0.343   5.620  11.038  0.2519  0.3439 -0.5531
17995TIP3    H275477   0.398   5.758  11.064 -2.0239  1.2300 -0.2662
17996TIP3   OH275478   0.169   2.202   3.755 -0.2168  0.3855  0.5188
17996TIP3    H175479   0.247   2.227   3.803  1.4883  0.6482 -2.1749
17996TIP3    H275480   0.198   2.130   3.698 -1.9706  0.3947 -0.4598
17997TIP3   OH275481   1.456   5.878   2.368  0.2257 -0.7569 -0.0277
17997TIP3    H175482   1.404   5.902   2.291  0.2351 -0.7422 -0.0293
17997TIP3    H275483   1.402   5.904   2.443  0.3351 -0.5224 -0.0308
17998TIP3   OH275484   5.533   4.220  14.109 -0.1699  0.0923 -0.3444
17998TIP3    H175485   5.476   4.246  14.181 -1.7273 -0.1602 -1.4451
17998TIP3    H275486   5.592   4.156  14.148 -1.6507 -0.8246  0.5004
17999TIP3   OH275487   5.620   1.037  16.091 -0.2439  0.4834  0.2104
17999TIP3    H175488   5.607   1.008  16.001 -0.4072  0.5461  0.2130
17999TIP3    H275489   5.656   0.961  16.136  0.6238  0.7020 -0.0995
18000TIP3   OH275490   1.496   2.204   5.468 -0.6136 -0.5685  0.0204
18000TIP3    H175491   1.457   2.292   5.470 -2.2167 -1.2417 -0.4401
18000TIP3    H275492   1.564   2.210   5.401  0.3283  0.6982  1.0126
18001TIP3   OH275493   3.651   0.353  12.285 -0.3413 -0.2869  0.1521
18001TIP3    H175494   3.601   0.279  12.321  0.2283 -1.0654 -0.6132
18001TIP3    H275495   3.651   0.418  12.355 -0.8542 -1.0144  0.8462
18002TIP3   OH275496   1.876   6.059  11.034  0.8171 -0.1259  0.0346
18002TIP3    H175497   1.790   6.044  11.074  0.6214  0.4574 -0.1603
18002TIP3    H275498   1.930   6.092  11.106  1.1098 -1.2593  0.3470
18003TIP3   OH275499   3.169   3.040   1.229  0.5469  0.3856  0.2076
18003TIP3    H175500   3.204   3.128   1.218  1.9281 -0.0241  1.0651
18003TIP3    H275501   3.144   3.013   1.141 -2.2861  2.5339  0.2284
18004TIP3   OH275502   3.163   6.589  11.847  0.6871  0.0432 -0.0239
18004TIP3    H175503   3.212   6.523  11.798 -0.1549  0.3297 -1.3102
18004TIP3    H275504   3.091   6.540  11.887 -0.0867  0.1732 -1.1881
18005TIP3   OH275505   1.720   6.277   4.753  0.2082 -0.0452  0.1563
18005TIP3    H175506   1.742   6.364   4.788  1.0286  0.2728 -1.1120
18005TIP3    H275507   1.625   6.280   4.741 -0.0840 -0.0791  2.0444
18006TIP3   OH275508   6.731   6.427   3.958 -0.3831 -0.9402  0.1477
18006TIP3    H175509   6.730   6.358   3.891 -0.7803 -0.0500 -0.8048
18006TIP3    H275510   6.643   6.425   3.995 -1.1434  0.4460 -1.4222
18007TIP3   OH275511   1.887   3.724  15.019 -0.5809 -0.2144 -0.2742
18007TIP3    H175512   1.808   3.777  15.021 -0.8996 -0.6493 -0.9547
18007TIP3    H275513   1.910   3.712  15.112 -2.1791 -1.3519  0.0170
18008TIP3   OH275514   5.048   2.991  15.572  0.2996 -0.4681  0.5406
18008TIP3    H175515   5.104   2.924  15.533 -1.3353 -1.7440  0.2914
18008TIP3    H275516   5.028   3.050  15.500  1.3125  0.0458  0.6452
18009TIP3   OH275517   3.654   3.152   4.478  0.0603 -0.2723 -0.5732
18009TIP3    H175518   3.719   3.089   4.509 -1.2123 -0.8249  1.1451
18009TIP3    H275519   3.573   3.126   4.523 -0.4515  2.8118  0.5015
18010TIP3   OH275520   4.071   3.297  16.396 -0.1966 -0.0472  0.0239
18010TIP3    H175521   4.117   3.309  16.313  0.8980 -0.8719  0.4898
18010TIP3    H275522   4.140   3.285  16.461 -1.0495 -1.7023  0.6935
18011TIP3   OH275523   2.220   3.182  14.672  0.0807 -0.1720 -0.2207
18011TIP3    H175524   2.241   3.246  14.605  0.9889 -0.6988 -0.4625
18011TIP3    H275525   2.258   3.218  14.753 -0.6854  0.2809 -0.0520
18012TIP3   OH275526   4.658   1.372  12.594  0.3008  0.2450 -0.0089
18012TIP3    H175527   4.567   1.394  12.576  0.3427  0.2185 -0.2498
18012TIP3    H275528   4.702   1.378  12.509  0.7929  1.5859  0.3045
18013TIP3   OH275529   2.139   1.936  15.484  0.6477  0.1432 -0.4973
18013TIP3    H175530   2.177   2.014  15.525  0.0238 -1.0238  2.5831
18013TIP3    H275531   2.176   1.863  15.535 -2.5561 -1.2521  0.0441
18014TIP3   OH275532   6.804   0.370  16.227 -0.0992 -0.1581  0.4454
18014TIP3    H175533   6.779   0.330  16.311  0.4150 -0.8856  0.2674
18014TIP3    H275534   6.784   0.303  16.162  2.0079 -0.6693  0.2704
18015TIP3   OH275535   4.305   3.416   5.071 -0.4388 -0.7179 -0.3287
18015TIP3    H175536   4.399   3.401   5.079  0.0111  2.1113  0.6453
18015TIP3    H275537   4.267   3.376   5.149  0.1991 -0.3101  0.1978
18016TIP3   OH275538   3.508   1.453   5.565  0.3908 -0.1161 -0.4770
18016TIP3    H175539   3.576   1.385   5.571  0.6916  0.2845  0.9826
18016TIP3    H275540   3.447   1.432   5.635  1.6574  2.3342  1.5090
18017TIP3   OH275541   4.950   3.529   3.883 -0.4593  0.0877  0.4390
18017TIP3    H175542   4.936   3.554   3.792  0.6556 -1.1196 -0.0977
18017TIP3    H275543   4.861   3.521   3.919 -0.9120  0.6736 -0.4937
18018TIP3   OH275544   1.986   4.806   3.593 -0.4017  0.2071 -0.5052
18018TIP3    H175545   1.908   4.819   3.648  1.1842  0.1910  1.9406
18018TIP3    H275546   1.984   4.878   3.531 -1.7826  0.8631  0.2442
18019TIP3   OH275547   5.560   0.206  16.493 -0.0254  0.9891  0.3060
18019TIP3    H175548   5.521   0.132  16.445  0.5198  0.3350  0.8384
18019TIP3    H275549   5.621   0.164  16.555  1.6870  1.9794 -0.6561
18020TIP3   OH275550   2.852   0.387   2.743 -0.8869  0.0479 -0.3345
18020TIP3    H175551   2.779   0.368   2.683 -0.2340  0.5094 -1.3043
18020TIP3    H275552   2.909   0.444   2.693  0.1836 -0.3682  0.3863
18021TIP3   OH275553   4.235   4.910   0.937 -0.1189 -0.0871 -0.2658
18021TIP3    H175554   4.155   4.859   0.925  0.2126 -0.4375 -1.0694
18021TIP3    H275555   4.268   4.925   0.848  0.5967  0.2230  0.0412
18022TIP3   OH275556   5.216   5.554   3.475  0.0755 -0.3842 -0.0792
18022TIP3    H175557   5.267   5.602   3.410  0.2643 -0.2735  0.1464
18022TIP3    H275558   5.191   5.621   3.539  0.3160 -0.5825  0.2246
18023TIP3   OH275559   6.566   5.630   1.849 -0.3889  0.1980 -0.1656
18023TIP3    H175560   6.617   5.559   1.890 -1.5602 -0.1960  0.6626
18023TIP3    H275561   6.475   5.600   1.853 -0.6605  0.5600 -2.2745
18024TIP3   OH275562   4.509   3.311   2.103  0.4653 -0.5685 -0.0112
18024TIP3    H175563   4.587   3.281   2.056 -0.0146 -1.4965 -0.2280
18024TIP3    H275564   4.526   3.286   2.194  0.4253 -0.7708 -0.0581
18025TIP3   OH275565   0.001   3.695   1.193 -0.2654  0.0062  0.3630
18025TIP3    H175566   0.007   3.786   1.221 -1.2874  0.8172 -1.7572
18025TIP3    H275567  -0.092   3.674   1.201 -0.5510  0.1711 -1.8391
18026TIP3   OH275568   4.671   0.319   0.542  0.1567 -0.5104  0.3558
18026TIP3    H175569   4.721   0.252   0.494  0.0996  0.0385 -0.4958
18026TIP3    H275570   4.593   0.273   0.571  0.2572 -0.8970  0.0358
18027TIP3   OH275571   3.472   0.200  14.577  0.2080  0.1176  0.1563
18027TIP3    H175572   3.401   0.154  14.620 -0.4246 -1.6031 -2.4711
18027TIP3    H275573   3.543   0.135  14.570  0.9288  0.8844  0.1399
18028TIP3   OH275574   5.784   4.711   5.378  0.2245 -0.1582  0.1414
18028TIP3    H175575   5.697   4.703   5.417 -0.3663  0.9969 -0.8721
18028TIP3    H275576   5.779   4.658   5.298  0.7223 -0.7325  0.4810
18029TIP3   OH275577   2.559   0.630   2.286  0.7221  0.1234 -0.1301
18029TIP3    H175578   2.553   0.718   2.249  0.1628  0.1035 -0.1010
18029TIP3    H275579   2.615   0.639   2.363 -0.4448  0.7242  0.6705
18030TIP3   OH275580   0.256   1.896  14.657 -0.0665 -0.1698 -0.1493
18030TIP3    H175581   0.270   1.834  14.586  3.0613 -0.7063  0.7754
18030TIP3    H275582   0.193   1.959  14.622  1.7317 -0.0490 -3.6595
18031TIP3   OH275583   4.291   6.650   4.803 -0.2601 -0.0870 -0.4018
18031TIP3    H175584   4.358   6.706   4.843 -0.0341  0.4413 -1.4905
18031TIP3    H275585   4.340   6.575   4.770 -0.1435  0.4269 -1.4379
18032TIP3   OH275586   0.011   0.664   0.984  0.0902  0.6552 -0.1459
18032TIP3    H175587   0.055   0.585   0.952  0.5181 -0.0046  1.9654
18032TIP3    H275588  -0.054   0.632   1.047 -1.9764  1.7827 -1.5711
18033TIP3   OH275589   0.096   4.751   5.280  0.2068  0.3592 -0.1295
18033TIP3    H175590   0.042   4.673   5.270 -0.3637  0.9863 -2.5424
18033TIP3    H275591   0.186   4.721   5.264  0.1963 -0.0851  0.6095
18034TIP3   OH275592   0.763   4.257   3.769 -0.1717  0.5077 -0.2683
18034TIP3    H175593   0.706   4.256   3.846 -0.4835 -0.1591 -0.4995
18034TIP3    H275594   0.749   4.343   3.730  1.6315  1.7450  1.5977
18035TIP3   OH275595   6.248   2.592  12.007 -0.1705  0.1843 -0.2528
18035TIP3    H175596   6.266   2.514  12.060 -0.2410  0.9271  0.8879
18035TIP3    H275597   6.295   2.576  11.924  2.3359  0.2220  1.0574
18036TIP3   OH275598   4.593   5.799  15.872  0.0056 -0.1293 -0.0579
18036TIP3    H175599   4.640   5.773  15.951  0.8587  0.2936 -0.4063
18036TIP3    H275600   4.662   5.821  15.810 -0.6632  0.6559 -0.5464
18037TIP3   OH275601   0.855   2.828  14.812  0.4154  0.4012  0.1003
18037TIP3    H175602   0.831   2.833  14.905 -0.5648  0.6784 -0.1555
18037TIP3    H275603   0.790   2.770  14.773  1.0647 -0.0413 -0.3472
18038TIP3   OH275604   0.127   6.351  15.588 -0.2195 -0.2219 -0.2215
18038TIP3    H175605   0.204   6.382  15.541 -0.8749  1.1309 -0.4465
18038TIP3    H275606   0.083   6.292  15.526 -0.9876  1.4145 -1.2984
18039TIP3   OH275607   5.326   2.080  14.356  0.0363 -0.2207 -0.4057
18039TIP3    H175608   5.233   2.072  14.334 -0.5104  1.3376  1.0100
18039TIP3    H275609   5.368   2.006  14.313 -1.7687 -0.6411 -1.5699
18040TIP3   OH275610   6.110   0.585   4.262 -0.1049  0.3007 -0.2090
18040TIP3    H175611   6.074   0.520   4.201 -1.9520 -1.1148  2.1998
18040TIP3    H275612   6.036   0.643   4.281  0.6653  1.2055  0.1027
18041TIP3   OH275613   5.458   3.472   0.176  0.1462  0.8694  0.3296
18041TIP3    H175614   5.490   3.439   0.092 -0.0684  1.8337 -0.1380
18041TIP3    H275615   5.392   3.409   0.203 -0.3338  0.9634 -0.6042
18042TIP3   OH275616   3.593   5.977   0.300 -0.1107 -0.4939  0.0517
18042TIP3    H175617   3.554   5.889   0.308 -0.7276 -0.3809 -1.3267
18042TIP3    H275618   3.623   5.981   0.210  0.0854  0.6532  0.1591
18043TIP3   OH275619   5.474   5.274   3.141  0.5168 -0.1743 -0.7611
18043TIP3    H175620   5.469   5.356   3.191  1.1195 -0.7929  0.3689
18043TIP3    H275621   5.420   5.290   3.064 -0.9726  0.6295  0.3735
18044TIP3   OH275622   3.155   5.952   5.443  0.2374 -0.0216  0.1646
18044TIP3    H175623   3.174   5.920   5.531  0.5642 -0.4101 -0.0402
18044TIP3    H275624   3.241   5.964   5.403  0.1564  2.0005  0.5253
18045TIP3   OH275625   0.561   4.131  12.014 -0.1611  0.9340  0.6347
18045TIP3    H175626   0.536   4.074  12.087  1.2509 -0.3921  0.1336
18045TIP3    H275627   0.548   4.078  11.936  1.2420  1.2425  0.1625
18046TIP3   OH275628   1.889   5.276  11.680 -0.4037 -0.4869 -0.4690
18046TIP3    H175629   1.899   5.368  11.655 -0.8264 -0.2361  0.2699
18046TIP3    H275630   1.816   5.275  11.742  0.5989 -1.0966  0.7551
18047TIP3   OH275631   6.073   4.157   0.023 -0.1509 -0.0403 -0.1358
18047TIP3    H175632   6.114   4.243   0.008  0.9299 -0.8780 -2.4756
18047TIP3    H275633   6.051   4.157   0.116  0.1190  2.6360  0.0138
18048TIP3   OH275634   6.464   1.234   2.596  0.5973 -0.2566 -0.2844
18048TIP3    H175635   6.437   1.159   2.543  0.2497 -1.7185  1.8692
18048TIP3    H275636   6.547   1.262   2.558  2.7228 -4.1111  1.0290
18049TIP3   OH275637   5.727   4.001   5.304 -0.4977 -0.4403  0.2818
18049TIP3    H175638   5.715   3.986   5.398 -0.3559  1.2429  0.5938
18049TIP3    H275639   5.746   4.094   5.297  0.0320 -0.6516 -1.3824
18050TIP3   OH275640   0.525   3.944   1.300 -0.2125  0.0884  1.3805
18050TIP3    H175641   0.526   3.887   1.377  0.7468  0.7408  1.8764
18050TIP3    H275642   0.617   3.966   1.285 -0.5845  1.9078  1.5413
18051TIP3   OH275643   3.833   5.474   5.354 -0.3206  0.1420 -0.1226
18051TIP3    H175644   3.757   5.417   5.362 -0.1001 -0.0498  0.6430
18051TIP3    H275645   3.800   5.562   5.375  0.0867 -0.2377  2.3854
18052TIP3   OH275646   5.325   3.147   5.342  0.0495  0.3510  0.2989
18052TIP3    H175647   5.295   3.236   5.324 -0.0975  0.7012  2.1185
18052TIP3    H275648   5.406   3.158   5.391  0.6213 -0.5534 -0.3938
18053TIP3   OH275649   3.115   5.103   0.238  0.3214 -0.4783  0.0379
18053TIP3    H175650   3.086   5.158   0.164  2.0110  1.3479  0.6211
18053TIP3    H275651   3.143   5.021   0.197 -0.3981 -0.1636 -1.1394
18054TIP3   OH275652   2.800   3.903   3.228  0.0724  0.0827 -0.0376
18054TIP3    H175653   2.846   3.986   3.216 -1.1120  0.9685  1.1639
18054TIP3    H275654   2.718   3.914   3.179 -0.6379  0.1408  1.1227
18055TIP3   OH275655   3.957   6.438  10.722 -0.9558 -0.1932 -0.2111
18055TIP3    H175656   3.877   6.490  10.725 -0.1170  1.1036  1.4247
18055TIP3    H275657   4.022   6.494  10.679 -0.4444 -0.4486  0.2016
18056TIP3   OH275658   6.685   0.917   3.563 -0.7181  0.7007  0.0664
18056TIP3    H175659   6.670   0.836   3.513  1.6094  0.1108  0.1947
18056TIP3    H275660   6.640   0.985   3.513 -1.3063 -0.3994 -0.9653
18057TIP3   OH275661   3.765   4.015  14.058 -0.0437 -0.0611 -0.1355
18057TIP3    H175662   3.689   4.048  14.012 -1.0295 -1.5357  0.3648
18057TIP3    H275663   3.766   4.062  14.141  0.4120  0.9500 -0.6991
18058TIP3   OH275664   4.542   3.530  11.870  0.7843 -0.2233 -0.1162
18058TIP3    H175665   4.542   3.488  11.956  1.5626 -0.6565 -0.3161
18058TIP3    H275666   4.450   3.535  11.845  0.5735 -0.3605  0.6091
18059TIP3   OH275667   2.058   1.811   6.081  0.4762 -0.0226  0.7939
18059TIP3    H175668   1.990   1.840   6.143  1.1878 -1.2683  2.2132
18059TIP3    H275669   2.081   1.723   6.110  1.1853 -0.4628 -0.9957
18060TIP3   OH275670   2.893   4.171  11.032  0.1283 -0.5979 -0.5398
18060TIP3    H175671   2.943   4.104  10.986 -1.8113 -1.4950 -1.4922
18060TIP3    H275672   2.867   4.233  10.964  0.9783  0.5648  0.1507
18061TIP3   OH275673   3.261   4.920   4.898 -0.2706  0.0971 -0.4284
18061TIP3    H175674   3.348   4.950   4.924 -0.3376 -0.7737  0.9428
18061TIP3    H275675   3.275   4.828   4.872 -0.8687 -0.2559  0.4617
18062TIP3   OH275676   2.910   1.902   3.124 -0.6139  0.2765  0.2136
18062TIP3    H175677   2.859   1.822   3.109 -1.1618  0.8276 -1.0282
18062TIP3    H275678   2.897   1.922   3.216 -0.2397 -1.2220  0.6152
18063TIP3   OH275679   6.435   0.726   1.039 -0.1086 -0.1272 -0.2750
18063TIP3    H175680   6.360   0.778   1.009  1.9213  2.5324 -1.2188
18063TIP3    H275681   6.463   0.770   1.119  1.2221 -0.1771 -0.6851
18064TIP3   OH275682   6.498   3.226  12.352 -0.4593  0.3808 -0.1481
18064TIP3    H175683   6.445   3.298  12.318 -0.9797  0.3734  0.6314
18064TIP3    H275684   6.568   3.269  12.400 -1.8429  0.3985  1.9642
18065TIP3   OH275685   0.538   2.842   4.911  0.5979  0.2671 -0.7002
18065TIP3    H175686   0.597   2.791   4.856  1.8309 -1.3531  1.9473
18065TIP3    H275687   0.590   2.917   4.940  1.4633 -1.0884  1.5230
18066TIP3   OH275688   1.891   3.821  13.180 -0.3185  0.4528  0.0066
18066TIP3    H175689   1.959   3.855  13.122 -0.1312 -0.1337 -0.1219
18066TIP3    H275690   1.938   3.763  13.240 -0.8780 -1.0166 -0.9289
18067TIP3   OH275691   4.572   3.476  15.508 -0.4933 -0.3042  0.0051
18067TIP3    H175692   4.481   3.503  15.491 -0.6357 -0.2012  0.8533
18067TIP3    H275693   4.567   3.381  15.514 -0.4214 -0.3496 -0.6158
18068TIP3   OH275694   5.366   2.067   2.887 -0.4405  0.3660 -0.4420
18068TIP3    H175695   5.322   1.987   2.860  0.8556 -0.3468 -0.5280
18068TIP3    H275696   5.358   2.125   2.811 -0.4173 -0.1009 -0.8041
18069TIP3   OH275697   0.736   5.623  11.968 -0.1973 -0.0528 -0.1302
18069TIP3    H175698   0.824   5.658  11.957 -0.2055  0.1264  0.3384
18069TIP3    H275699   0.685   5.695  12.005 -0.8577  0.2328 -1.5335
18070TIP3   OH275700   2.880   1.667  14.003 -0.3116  0.1214  0.0318
18070TIP3    H175701   2.961   1.638  14.046 -0.7617  0.1106  0.8877
18070TIP3    H275702   2.864   1.602  13.935 -0.6992 -1.0274  1.1842
18071TIP3   OH275703   1.922   1.163  11.881  0.6532  0.4713 -0.1206
18071TIP3    H175704   1.836   1.181  11.919  0.3120  1.7411 -1.4010
18071TIP3    H275705   1.932   1.069  11.888 -0.0802  0.4789  1.6070
18072TIP3   OH275706   3.506   3.099  11.727  0.1835 -0.1651  0.2710
18072TIP3    H175707   3.567   3.070  11.795 -1.5138 -0.6070  1.6677
18072TIP3    H275708   3.471   3.182  11.758  1.4279  1.0821 -1.4393
18073TIP3   OH275709   1.545   0.434   0.643 -0.1877  0.3400  0.0151
18073TIP3    H175710   1.538   0.526   0.618 -2.4802  0.7151  1.7302
18073TIP3    H275711   1.479   0.390   0.589  1.7765 -0.6417 -1.7726
18074TIP3   OH275712   2.009   0.802  14.923  0.1493 -0.1549  0.2930
18074TIP3    H175713   1.940   0.763  14.870  1.4670 -1.6852 -0.4060
18074TIP3    H275714   2.021   0.890  14.887 -2.2748  0.6826  1.3117
18075TIP3   OH275715   1.916   3.144   1.546  0.6764  0.1828  0.0077
18075TIP3    H175716   1.879   3.057   1.560  2.9802 -1.0032 -0.7698
18075TIP3    H275717   1.882   3.197   1.618 -0.4679 -1.4580  0.7313
18076TIP3   OH275718   5.359   3.845  16.084 -0.3063  0.7023 -0.2557
18076TIP3    H175719   5.313   3.912  16.135  0.4779  0.8682  0.2583
18076TIP3    H275720   5.406   3.793  16.149 -2.8918 -2.0011 -0.3831
18077TIP3   OH275721   5.027   1.903   6.132 -1.0429 -0.2494  0.1171
18077TIP3    H175722   4.981   1.890   6.215 -0.5585 -0.0295  0.4217
18077TIP3    H275723   5.105   1.848   6.138  1.4888  3.1507  1.7763
18078TIP3   OH275724   1.305   2.255   2.978  0.4245 -0.3054 -0.1226
18078TIP3    H175725   1.346   2.192   2.919  0.3900 -0.5521  0.1127
18078TIP3    H275726   1.217   2.268   2.942  0.9073  0.7045 -0.9856
18079TIP3   OH275727   0.236   0.491  12.643 -0.1090  0.3052  0.0655
18079TIP3    H175728   0.210   0.399  12.648  0.4213  0.2056  1.2410
18079TIP3    H275729   0.229   0.512  12.550 -1.7926 -0.4558 -0.0185
18080TIP3   OH275730   0.755   6.547   4.874 -0.2431 -0.0892  0.6224
18080TIP3    H175731   0.822   6.538   4.806 -0.2497 -5.0208  0.9235
18080TIP3    H275732   0.673   6.557   4.826 -0.0303 -1.6011 -0.1220
18081TIP3   OH275733   4.183   5.480  13.868 -0.0034  0.2192 -0.1603
18081TIP3    H175734   4.162   5.573  13.873 -2.1981 -0.2124  0.0935
18081TIP3    H275735   4.175   5.458  13.775 -2.0643 -0.1701  0.0600
18082TIP3   OH275736   2.401   4.593   1.352 -0.0825 -0.1991 -0.1280
18082TIP3    H175737   2.340   4.663   1.327 -0.9235 -1.0903 -0.6682
18082TIP3    H275738   2.349   4.536   1.410  0.7994 -0.0190  0.8651
18083TIP3   OH275739   3.811   3.136  15.741  0.5388 -0.3016 -0.2212
18083TIP3    H175740   3.772   3.065  15.793  1.3815 -2.2657 -2.1558
18083TIP3    H275741   3.736   3.180  15.701 -0.0434  0.4665  1.5926
18084TIP3   OH275742   2.674   0.483  16.663  0.0912 -0.3002  0.7479
18084TIP3    H175743   2.634   0.474  16.577  1.2926  1.0977 -0.0026
18084TIP3    H275744   2.640   0.566  16.697  0.3612 -0.3745  1.2068
18085TIP3   OH275745   4.318   4.239   4.271  0.0747 -0.0637  0.2454
18085TIP3    H175746   4.260   4.165   4.251 -0.7795  1.0219 -1.4908
18085TIP3    H275747   4.371   4.208   4.345 -1.5068 -1.7335  0.7613
18086TIP3   OH275748   1.655   2.378  11.696  0.0514  0.3579 -0.4846
18086TIP3    H175749   1.684   2.420  11.777 -0.7174 -1.4764  0.8180
18086TIP3    H275750   1.715   2.304  11.685  0.2542  0.6891 -1.7142
18087TIP3   OH275751   0.561   4.403  15.930  0.3532 -0.2166  0.1296
18087TIP3    H175752   0.615   4.447  15.863  0.1836  2.0083  1.3549
18087TIP3    H275753   0.472   4.434  15.912  0.2980  0.3499  1.3086
18088TIP3   OH275754   5.198   6.688   2.860  0.3340  0.2627 -0.3929
18088TIP3    H175755   5.270   6.721   2.912  1.4923  0.6643 -2.1646
18088TIP3    H275756   5.220   6.596   2.842  0.6445  0.4978 -1.2795
18089TIP3   OH275757   0.034   6.616   6.120 -0.3512 -0.3215 -0.0909
18089TIP3    H175758   0.028   6.711   6.118 -1.9876 -0.4059 -0.6362
18089TIP3    H275759   0.128   6.598   6.117  0.0546  1.2727  1.2915
18090TIP3   OH275760   3.711   4.132  13.391 -0.4181 -0.1985  0.4569
18090TIP3    H175761   3.640   4.083  13.434  0.2694 -0.8931  0.8361
18090TIP3    H275762   3.763   4.167  13.464 -1.5114  2.0955  0.2258
18091TIP3   OH275763   1.473   5.324  14.241 -0.2351  0.4397 -0.2576
18091TIP3    H175764   1.515   5.364  14.317 -0.4264 -1.2420  0.8093
18091TIP3    H275765   1.379   5.336  14.257 -0.4652 -2.4602  1.4364
18092TIP3   OH275766   1.247   4.607  13.085  0.0141 -0.3153  0.6775
18092TIP3    H175767   1.302   4.659  13.144 -1.7772 -0.0778  2.2199
18092TIP3    H275768   1.171   4.662  13.067  0.8379 -0.0399 -2.6091
18093TIP3   OH275769   5.814   3.053   0.915 -0.2600  0.5509 -0.8153
18093TIP3    H175770   5.752   3.013   0.854 -0.0634  0.5311 -1.0035
18093TIP3    H275771   5.877   3.097   0.859  0.5817 -0.4358 -0.6619
18094TIP3   OH275772   0.550   0.543   1.620  0.8308  0.0303  0.0205
18094TIP3    H175773   0.561   0.455   1.582 -3.9293 -1.3373  1.2190
18094TIP3    H275774   0.603   0.541   1.700  0.6383 -1.8682  0.1457
18095TIP3   OH275775   3.126   3.960   5.758  0.6740 -0.2750 -0.1179
18095TIP3    H175776   3.070   3.936   5.832  2.7276  2.1932  2.4299
18095TIP3    H275777   3.187   3.887   5.749 -0.1914 -1.0271 -0.0861
18096TIP3   OH275778   1.699   0.158   6.375 -0.4619  0.5044 -0.1725
18096TIP3    H175779   1.775   0.104   6.396 -1.0325 -0.5888 -0.7878
18096TIP3    H275780   1.730   0.218   6.308 -0.2821 -0.3855 -0.9137
18097TIP3   OH275781   3.893   5.244   6.280  0.6314  0.0229 -0.1144
18097TIP3    H175782   3.812   5.205   6.314  0.4023  0.7119  0.1489
18097TIP3    H275783   3.926   5.179   6.218  0.5151 -0.8059  0.6638
18098TIP3   OH275784   6.661   3.595   0.931 -0.1254  0.0908 -0.0718
18098TIP3    H175785   6.581   3.543   0.932 -0.4581  0.5960 -0.0536
18098TIP3    H275786   6.650   3.658   1.002 -0.4050  1.1902 -1.0584
18099TIP3   OH275787   5.712   0.681  16.999  0.5017 -0.6848  0.1868
18099TIP3    H175788   5.647   0.674  17.070  0.4205 -0.8716  0.0946
18099TIP3    H275789   5.780   0.618  17.023  0.6264 -0.5249  0.2590
18100TIP3   OH275790   0.536   2.539   5.748  0.5514 -0.1735  0.0380
18100TIP3    H175791   0.556   2.510   5.837  1.3361  0.5066  0.0988
18100TIP3    H275792   0.557   2.463   5.693  2.3228  0.1225  0.2244
18101TIP3   OH275793   2.548   6.600  14.819  0.0167 -0.3531  0.6147
18101TIP3    H175794   2.539   6.641  14.732  1.3939 -0.5603  0.3511
18101TIP3    H275795   2.635   6.628  14.849  0.4993 -2.1291  0.9403
18102TIP3   OH275796   3.956   2.856  12.083 -0.3006 -0.1260 -0.6419
18102TIP3    H175797   3.943   2.791  12.152 -1.2736  0.3395 -0.3744
18102TIP3    H275798   3.874   2.859  12.035 -0.1769  0.6972 -0.8318
18103TIP3   OH275799   3.551   1.358  13.334  0.6278  0.3031  0.2963
18103TIP3    H175800   3.542   1.377  13.240  0.1277  2.6967  0.7755
18103TIP3    H275801   3.643   1.374  13.353  1.0889 -1.6928 -0.0390
18104TIP3   OH275802   0.966   4.509   4.222  0.0599 -0.4364 -0.1137
18104TIP3    H175803   1.010   4.571   4.163  1.0722 -0.4620  0.5941
18104TIP3    H275804   0.999   4.531   4.309  1.6796 -2.9622 -0.0063
18105TIP3   OH275805   5.756   6.587  13.412  0.1678  0.4112  0.4512
18105TIP3    H175806   5.786   6.645  13.343 -0.5910 -0.7600 -0.9294
18105TIP3    H275807   5.738   6.644  13.487 -2.1041  2.2101 -1.3296
18106TIP3   OH275808   2.879   1.795  13.292 -0.2541 -0.5774 -0.1080
18106TIP3    H175809   2.825   1.859  13.245  1.1450  2.7200  2.3443
18106TIP3    H275810   2.915   1.844  13.366  2.5999 -3.7383  0.8571
18107TIP3   OH275811   5.096   2.042  16.333  0.4135 -0.1364 -0.6878
18107TIP3    H175812   5.098   2.043  16.238  0.5223 -4.0966 -0.8719
18107TIP3    H275813   5.020   2.096  16.356 -0.1430  0.1724 -3.0584
18108TIP3   OH275814   4.834   6.570   2.123  0.0066  0.1367  0.1484
18108TIP3    H175815   4.845   6.664   2.105  0.2001 -0.1629 -1.5381
18108TIP3    H275816   4.741   6.554   2.111  0.1181 -0.0410 -0.5903
18109TIP3   OH275817   6.305   3.337   3.883 -0.6976  0.3036  0.1865
18109TIP3    H175818   6.336   3.295   3.963 -0.5996 -0.2096 -0.1149
18109TIP3    H275819   6.271   3.265   3.830 -0.3909  0.5871 -0.3983
18110TIP3   OH275820   1.693   3.257   0.949 -0.1310 -0.3065 -0.0972
18110TIP3    H175821   1.628   3.305   1.000  0.0588  1.4205 -1.3722
18110TIP3    H275822   1.765   3.319   0.937 -0.0230 -0.7414 -2.1172
18111TIP3   OH275823   5.185   0.097   2.677  0.2658  0.0024  0.1209
18111TIP3    H175824   5.186   0.103   2.582  0.4443 -2.5668 -0.1006
18111TIP3    H275825   5.139   0.015   2.696 -0.1218  0.6362  2.2823
18112TIP3   OH275826   2.860   3.704  12.445  0.2368 -0.1275  0.7972
18112TIP3    H175827   2.931   3.671  12.390  0.1526  1.8834 -0.6216
18112TIP3    H275828   2.904   3.741  12.521  0.8780  1.9805 -0.5232
18113TIP3   OH275829   3.805   2.834   3.451  0.3702 -0.5906  0.0143
18113TIP3    H175830   3.744   2.792   3.391 -0.8799 -0.4145  1.1180
18113TIP3    H275831   3.842   2.907   3.401 -2.4039  1.0211  0.1046
18114TIP3   OH275832   5.201   2.901   3.510  0.4492 -0.5135  0.4597
18114TIP3    H175833   5.269   2.968   3.512  0.3029 -0.3798  0.9672
18114TIP3    H275834   5.165   2.900   3.598 -2.6642  1.9161 -0.6115
18115TIP3   OH275835   1.412   6.522   0.594 -0.0703 -0.3690 -0.1746
18115TIP3    H175836   1.397   6.434   0.630 -1.5283  0.3355  1.0487
18115TIP3    H275837   1.366   6.580   0.654 -0.9271  1.0650 -2.1166
18116TIP3   OH275838   2.519   2.457   2.764  0.6641  0.1596  0.2236
18116TIP3    H175839   2.428   2.433   2.751  0.9033  0.1401 -1.8753
18116TIP3    H275840   2.541   2.425   2.851 -0.7287 -1.7917 -0.0869
18117TIP3   OH275841   6.587   1.385  16.355 -0.0283  0.8258 -0.2408
18117TIP3    H175842   6.605   1.430  16.272  1.3984 -0.9793 -0.9872
18117TIP3    H275843   6.650   1.313  16.357 -2.0244 -1.0157  0.9594
18118TIP3   OH275844   5.852   2.773  12.948  0.6115 -0.1854  0.4493
18118TIP3    H175845   5.769   2.751  12.989  0.5964 -0.2386  0.3907
18118TIP3    H275846   5.876   2.694  12.899  0.5057 -0.0375  0.1575
18119TIP3   OH275847   3.233   6.101  14.302 -0.4997  0.6522  0.2905
18119TIP3    H175848   3.232   6.029  14.239  1.9378 -0.0079  0.8833
18119TIP3    H275849   3.326   6.114  14.321 -1.0595  2.0314  2.4014
18120TIP3   OH275850   3.024   0.765  16.472 -0.1204 -0.1178  0.2696
18120TIP3    H175851   2.961   0.792  16.406  0.8965 -1.3847 -1.2828
18120TIP3    H275852   2.997   0.677  16.497  0.1984 -0.1075  0.6676
18121TIP3   OH275853   5.740   5.440  14.102  0.3384 -0.1873 -0.1204
18121TIP3    H175854   5.669   5.375  14.104  0.3020 -0.1634 -0.5413
18121TIP3    H275855   5.703   5.513  14.053  0.9877 -0.5621 -1.1830
18122TIP3   OH275856   1.120   0.823   2.195 -0.5733  0.0765 -0.3499
18122TIP3    H175857   1.055   0.872   2.245  1.1937  0.4237  1.7772
18122TIP3    H275858   1.110   0.854   2.105 -3.0632  0.3382 -0.0480
18123TIP3   OH275859   3.800   4.886  13.091  0.5704 -0.6271  0.1501
18123TIP3    H175860   3.807   4.925  13.004 -0.6778  0.2003  0.4111
18123TIP3    H275861   3.845   4.947  13.149 -0.9284  0.1930  0.4783
18124TIP3   OH275862   1.712   1.120  17.069  0.2843  0.2640 -0.2162
18124TIP3    H175863   1.657   1.168  17.130  0.3557 -0.7861  0.7127
18124TIP3    H275864   1.785   1.179  17.050  0.2471  0.6143  0.7010
18125TIP3   OH275865   5.958   1.714   2.084 -0.1599 -0.5569 -0.0481
18125TIP3    H175866   6.023   1.678   2.144  0.1192  1.3260  0.8553
18125TIP3    H275867   5.891   1.647   2.078  1.6052 -2.3844 -0.6559
18126TIP3   OH275868   1.168   2.832  13.737  0.4896  0.0190  0.2141
18126TIP3    H175869   1.207   2.894  13.798 -1.2675 -0.2788  1.7266
18126TIP3    H275870   1.113   2.887  13.679  0.2056  0.0502  0.5108
18127TIP3   OH275871   0.778   1.796   6.077  0.5383 -0.6987  0.3949
18127TIP3    H175872   0.788   1.704   6.053  1.2152  0.0382 -2.5222
18127TIP3    H275873   0.856   1.838   6.043 -1.7200  1.6126 -2.5107
18128TIP3   OH275874   6.456   4.844  13.744  0.3711 -0.0962 -0.1307
18128TIP3    H175875   6.365   4.833  13.773  0.0479  1.6338 -0.3527
18128TIP3    H275876   6.505   4.779  13.794 -0.6897  0.3910  1.6536
18129TIP3   OH275877   6.787   0.307   4.019 -0.1922  0.0953 -0.4197
18129TIP3    H175878   6.837   0.372   4.068 -0.5079 -0.2717  0.3934
18129TIP3    H275879   6.820   0.223   4.050 -0.4501 -0.1467 -0.7865
18130TIP3   OH275880   4.804   5.396   3.375  0.1165 -0.0261 -0.1000
18130TIP3    H175881   4.763   5.385   3.461  1.0165  1.4497  0.5555
18130TIP3    H275882   4.803   5.491   3.360  0.2358 -0.2440 -1.5942
18131TIP3   OH275883   4.891   6.523   4.984 -0.6308  0.2162  0.0018
18131TIP3    H175884   4.929   6.527   5.072 -1.5776 -0.4819  0.4591
18131TIP3    H275885   4.956   6.565   4.928  0.6300 -0.5759  0.8183
18132TIP3   OH275886   6.650   5.777   3.938  0.3881  0.0989  0.3575
18132TIP3    H175887   6.701   5.787   4.018  1.4486  0.7895 -0.3842
18132TIP3    H275888   6.653   5.683   3.920  1.1547  0.0887  0.4872
18133TIP3   OH275889   5.225   0.865   4.026 -0.0667 -0.1039 -0.4429
18133TIP3    H175890   5.202   0.786   3.978 -2.0322  0.3863 -0.3771
18133TIP3    H275891   5.268   0.922   3.961 -1.5376  0.0404 -1.3265
18134TIP3   OH275892   0.583   6.661   0.343 -0.2042 -0.6005 -0.1980
18134TIP3    H175893   0.670   6.622   0.342  0.0446 -0.0530 -0.7471
18134TIP3    H275894   0.596   6.750   0.377 -0.4934 -0.4140 -0.5616
18135TIP3   OH275895   5.526   4.385  16.426 -0.4610 -0.6285  0.6327
18135TIP3    H175896   5.476   4.370  16.507 -0.3008  1.8342  1.2657
18135TIP3    H275897   5.611   4.345  16.443 -0.8502 -1.2315  1.1971
18136TIP3   OH275898   5.874   2.558   2.381  0.3078  1.3511 -0.1032
18136TIP3    H175899   5.872   2.555   2.285 -2.5191  2.2501 -0.1490
18136TIP3    H275900   5.948   2.502   2.405  1.8207  2.0162 -2.8055
18137TIP3   OH275901   1.375   0.678   4.625  0.2796 -0.6947  0.0304
18137TIP3    H175902   1.295   0.726   4.603  1.4127  1.3658  0.1082
18137TIP3    H275903   1.354   0.630   4.705 -0.5055  0.9249  0.8392
18138TIP3   OH275904   3.842   1.027  16.658 -0.2337  0.3194  0.2620
18138TIP3    H175905   3.808   1.116  16.649  0.1393  0.4719  0.3536
18138TIP3    H275906   3.873   1.021  16.748  0.5776  0.4017  0.0055
18139TIP3   OH275907   2.157   4.654   6.042 -0.3818 -0.0207 -0.3974
18139TIP3    H175908   2.198   4.584   6.093 -1.9754 -0.0325  0.9401
18139TIP3    H275909   2.221   4.724   6.041  0.0559 -0.3807  0.8533
18140TIP3   OH275910   5.674   1.660   0.354  0.1663  0.1158  0.6295
18140TIP3    H175911   5.611   1.633   0.287  0.9150 -1.4386  0.4856
18140TIP3    H275912   5.642   1.744   0.386 -0.6739  0.4937 -1.0858
18141TIP3   OH275913   2.973   5.337   5.352  0.0050  0.6369 -0.2737
18141TIP3    H175914   2.908   5.293   5.407 -0.1404  0.7028 -0.3915
18141TIP3    H275915   2.943   5.429   5.350  0.3109  0.7443 -0.0214
18142TIP3   OH275916   4.988   3.875  15.954 -0.1438 -0.5444 -0.5550
18142TIP3    H175917   4.921   3.809  15.970 -0.5175 -0.5667 -2.0978
18142TIP3    H275918   4.954   3.928  15.882  1.0512  0.0679 -0.6950
18143TIP3   OH275919   3.753   1.665   2.783 -0.0433  0.0944  0.1374
18143TIP3    H175920   3.663   1.635   2.794 -0.4575  0.4772 -1.8083
18143TIP3    H275921   3.747   1.735   2.718  1.4551  1.3521  1.2704
18144TIP3   OH275922   2.118   3.905   1.106  0.0819 -0.2678 -0.0014
18144TIP3    H175923   2.117   3.942   1.194  0.1075  0.0823 -0.1471
18144TIP3    H275924   2.206   3.868   1.096  0.6984  1.2851 -0.5305
18145TIP3   OH275925   3.633   4.753  11.710 -0.5804  0.3738  0.0702
18145TIP3    H175926   3.586   4.710  11.638 -1.3012  1.3836 -0.0943
18145TIP3    H275927   3.583   4.834  11.725  0.8328  1.2462  0.2332
18146TIP3   OH275928   1.175   4.284   0.706  0.0054  0.0396 -0.8737
18146TIP3    H175929   1.224   4.315   0.782 -0.3283 -1.0298 -0.2032
18146TIP3    H275930   1.111   4.353   0.688 -1.5540 -0.7223  1.3444
18147TIP3   OH275931   3.799   1.897  16.600 -1.1255  0.1388 -0.3212
18147TIP3    H175932   3.881   1.938  16.627 -1.0247 -0.9210  1.1027
18147TIP3    H275933   3.744   1.970  16.573  0.5777  0.8026 -2.2516
18148TIP3   OH275934   4.668   1.351   3.410 -0.3583  0.2521 -0.0093
18148TIP3    H175935   4.725   1.428   3.417 -0.3357  0.1857  0.6522
18148TIP3    H275936   4.636   1.352   3.320  1.0577  0.0382 -0.5417
18149TIP3   OH275937   4.325   3.665  13.330  0.1771 -0.0950 -0.2993
18149TIP3    H175938   4.290   3.618  13.405 -1.2732  0.3855 -0.6291
18149TIP3    H275939   4.252   3.668  13.268  1.1568  0.0150 -1.5013
18150TIP3   OH275940   2.931   4.191   6.355  0.3413 -0.0314 -0.1443
18150TIP3    H175941   2.969   4.109   6.385 -0.0993  0.4593  1.8754
18150TIP3    H275942   2.999   4.256   6.370 -0.3598  0.4446  1.1890
18151TIP3   OH275943   5.296   3.029  12.365  0.7985 -0.7247 -0.0571
18151TIP3    H175944   5.212   3.074  12.377  1.1466 -0.0715 -0.0130
18151TIP3    H275945   5.274   2.936  12.368 -0.1370 -0.5765 -1.6054
18152TIP3   OH275946   0.518   5.094  15.159  0.6970 -0.3418  0.7621
18152TIP3    H175947   0.553   5.006  15.153 -2.8421 -1.9449  1.0940
18152TIP3    H275948   0.494   5.104  15.251 -0.3467  0.3324  0.4393
18153TIP3   OH275949   6.449   4.825   5.917 -0.1146  0.3485 -0.5751
18153TIP3    H175950   6.368   4.774   5.911 -0.3774  0.7715 -0.6998
18153TIP3    H275951   6.420   4.913   5.938  0.2343  0.7460 -1.6816
18154TIP3   OH275952   0.257   2.351   4.799  0.1350  0.1985  0.0068
18154TIP3    H175953   0.224   2.408   4.730 -1.2599  1.0929  1.3371
18154TIP3    H275954   0.179   2.328   4.850  1.2455  0.5715  1.9982
18155TIP3   OH275955   3.360   2.143  13.193  0.2049  0.7044 -0.5091
18155TIP3    H175956   3.390   2.213  13.134 -0.1653  1.6667  0.4028
18155TIP3    H275957   3.351   2.066  13.136  0.9316  1.3098 -1.4809
18156TIP3   OH275958   5.760   2.490   2.603  0.2472 -0.1826  0.0635
18156TIP3    H175959   5.783   2.553   2.534 -0.8769 -0.3977 -0.5482
18156TIP3    H275960   5.842   2.446   2.624  0.9457  1.0797  0.0860
18157TIP3   OH275961   6.798   6.111   4.843  0.5387  0.1304  0.1415
18157TIP3    H175962   6.868   6.156   4.795  0.8213 -0.8398 -0.3931
18157TIP3    H275963   6.826   6.019   4.844  0.3715  0.0730  1.9005
18158TIP3   OH275964   0.737   3.320  16.021  0.4340 -0.2849 -0.2483
18158TIP3    H175965   0.761   3.401  16.065  1.3563  0.2167 -1.6240
18158TIP3    H275966   0.819   3.270  16.017  0.3873 -0.2748 -1.4755
18159TIP3   OH275967   4.105   4.294   4.941 -0.0118  0.4418 -0.1937
18159TIP3    H175968   4.063   4.357   5.000 -0.7909 -0.4446  0.2348
18159TIP3    H275969   4.062   4.308   4.857 -0.4714  0.2286 -0.0015
18160TIP3   OH275970   4.817   4.613   4.695 -0.3800  0.0073 -0.1625
18160TIP3    H175971   4.794   4.558   4.620 -0.0475 -0.9477  0.4147
18160TIP3    H275972   4.786   4.564   4.771 -0.0388  0.6107  0.3765
18161TIP3   OH275973   6.596   2.485   1.400 -0.3953  0.4439  0.8115
18161TIP3    H175974   6.650   2.408   1.421  1.4664  1.7200  0.9448
18161TIP3    H275975   6.576   2.524   1.484  1.0770  1.6427  0.6395
18162TIP3   OH275976   3.130   1.647  14.397 -0.1684 -0.0297 -0.5504
18162TIP3    H175977   3.179   1.572  14.429 -0.6916  0.1617  0.7716
18162TIP3    H275978   3.072   1.671  14.470 -0.3918  1.3161 -1.1352
18163TIP3   OH275979   1.607   3.078  11.450 -0.3895  0.1771  1.3178
18163TIP3    H175980   1.583   2.993  11.411  0.0764  0.5681  0.1238
18163TIP3    H275981   1.617   3.136  11.375  2.5320  0.4933  1.8272
18164TIP3   OH275982   5.407   1.170   3.587  0.0558 -0.1095 -0.2911
18164TIP3    H175983   5.439   1.080   3.594  0.8585  0.2257  0.7724
18164TIP3    H275984   5.313   1.163   3.600  0.2374 -0.7101  0.8493
18165TIP3   OH275985   1.565   1.095   6.234 -0.0188 -0.5831 -0.1377
18165TIP3    H175986   1.548   1.001   6.234  0.5469 -0.6909 -0.2598
18165TIP3    H275987   1.505   1.131   6.299 -2.3783 -0.6343 -2.1216
18166TIP3   OH275988   6.077   3.666  13.212  0.0037  0.3650  0.1842
18166TIP3    H175989   6.029   3.748  13.217 -2.0636 -0.5358 -2.2595
18166TIP3    H275990   6.045   3.614  13.286 -3.0720 -0.2217 -1.3690
18167TIP3   OH275991   0.606   5.639  15.044 -0.4685 -0.1890  0.0779
18167TIP3    H175992   0.590   5.552  15.080 -1.0933 -0.7849 -1.5578
18167TIP3    H275993   0.519   5.678  15.036 -0.0856  1.4005  2.6048
18168TIP3   OH275994   6.149   0.389  15.520 -0.8773  0.2978 -0.2185
18168TIP3    H175995   6.213   0.457  15.542 -1.0375  0.3542  0.0700
18168TIP3    H275996   6.072   0.410  15.571 -1.2537  0.4254 -0.8312
18169TIP3   OH275997   3.828   5.867  16.232 -0.0372 -0.0029 -0.1818
18169TIP3    H175998   3.900   5.857  16.295  0.0704 -0.1152 -0.3243
18169TIP3    H275999   3.864   5.836  16.149  0.1295  1.0142 -0.5087
18170TIP3   OH276000   5.643   6.441   4.437  0.4379  0.0955  0.3128
18170TIP3    H176001   5.556   6.460   4.403  0.2271  0.3876  0.9974
18170TIP3    H276002   5.698   6.431   4.359  0.2711  2.1542 -0.1239
18171TIP3   OH276003   2.361   5.212  13.196  0.9148 -0.4626 -0.0231
18171TIP3    H176004   2.328   5.299  13.220  2.1003  0.0034  0.0289
18171TIP3    H276005   2.284   5.156  13.197 -0.0495  0.7816 -0.9824
18172TIP3   OH276006   3.350   0.520  16.768 -0.3261 -0.1096 -0.1960
18172TIP3    H176007   3.409   0.523  16.693 -0.3353  1.1001 -0.1723
18172TIP3    H276008   3.350   0.609  16.802 -1.1738 -0.3923  0.5807
18173TIP3   OH276009   3.823   4.609   5.442 -0.6682  0.0170 -0.2091
18173TIP3    H176010   3.837   4.700   5.418 -1.8503  0.6846  1.4083
18173TIP3    H276011   3.747   4.582   5.390 -0.1924 -0.1174 -0.8383
18174TIP3   OH276012   0.733   4.290   0.283 -0.0607 -0.0720  0.1250
18174TIP3    H176013   0.684   4.299   0.365 -1.0084 -1.1683 -0.2884
18174TIP3    H276014   0.715   4.370   0.235  0.2298  0.4333  0.8363
18175TIP3   OH276015   5.480   6.715  11.399 -0.2290 -0.3211 -0.0521
18175TIP3    H176016   5.387   6.730  11.383 -0.0685 -0.0817 -0.7991
18175TIP3    H276017   5.499   6.633  11.354 -0.2034 -0.6761  0.5953
18176TIP3   OH276018   0.377   1.996  10.815 -0.9076  0.1498  0.3610
18176TIP3    H176019   0.454   2.036  10.855 -1.1077 -0.7307  1.6900
18176TIP3    H276020   0.389   2.010  10.721  1.6520 -1.3063  0.3789
18177TIP3   OH276021   4.416   4.892  17.175 -0.0336 -0.1188 -0.2979
18177TIP3    H176022   4.413   4.812  17.122  3.7122 -1.1578  0.7831
18177TIP3    H276023   4.357   4.875  17.248 -1.1005 -0.8436 -1.2863
18178TIP3   OH276024   1.445   2.821   0.933 -0.1791  0.0335 -0.1884
18178TIP3    H176025   1.357   2.839   0.965 -0.7112  0.2451 -1.6679
18178TIP3    H276026   1.503   2.865   0.995 -1.0532 -0.8336  1.3083
18179TIP3   OH276027   2.793   3.968  11.402 -0.0805 -0.2870 -0.3414
18179TIP3    H176028   2.721   3.946  11.462  0.5886  0.3754  0.7373
18179TIP3    H276029   2.846   3.889  11.399 -0.1249 -0.3279 -0.0723
18180TIP3   OH276030   2.811   1.874  12.194 -0.5248  0.1568 -1.2526
18180TIP3    H176031   2.887   1.931  12.206 -1.2080  1.0643 -1.0870
18180TIP3    H276032   2.828   1.829  12.111  1.3293 -1.5138 -0.0500
18181TIP3   OH276033   2.266   6.572  10.765  0.4577  0.5084 -0.6203
18181TIP3    H176034   2.229   6.486  10.745  0.7537  0.1377  0.3756
18181TIP3    H276035   2.353   6.553  10.801 -0.0270  1.1128  0.9815
18182TIP3   OH276036   2.015   1.373   6.346  0.1164 -0.0523 -0.6531
18182TIP3    H176037   1.928   1.332   6.347  0.3266 -0.5257 -1.2362
18182TIP3    H276038   2.076   1.301   6.363  0.3939  0.2998 -0.1139
18183TIP3   OH276039   6.436   4.936  15.476  0.5626 -0.7040  0.8462
18183TIP3    H176040   6.412   4.968  15.563 -0.6723 -0.9061  0.5984
18183TIP3    H276041   6.482   5.010  15.435 -0.9701  0.2736  0.8127
18184TIP3   OH276042   4.546   4.436   6.342  0.1581  0.0584 -0.0105
18184TIP3    H176043   4.640   4.425   6.358  0.2611 -2.7750 -1.8478
18184TIP3    H276044   4.541   4.485   6.260  0.0904 -0.7808 -0.5181
18185TIP3   OH276045   2.164   5.173  15.752  0.4430 -0.6797 -0.1205
18185TIP3    H176046   2.071   5.167  15.774  0.7054 -0.9959  0.9763
18185TIP3    H276047   2.199   5.087  15.774  0.9457 -0.6556 -0.8021
18186TIP3   OH276048   5.509   6.588   4.835  0.0933  0.1352 -0.5407
18186TIP3    H176049   5.495   6.661   4.775 -0.1553  1.2458  0.8273
18186TIP3    H276050   5.559   6.625   4.907 -0.9576 -0.7773  0.7004
18187TIP3   OH276051   1.163   3.106  15.565 -0.2076 -0.0863 -0.4733
18187TIP3    H176052   1.189   3.175  15.626 -2.1297  0.7336 -0.5230
18187TIP3    H276053   1.211   3.126  15.485  0.3761  0.3288 -0.0282
18188TIP3   OH276054   3.389   0.235   3.563 -0.3298 -0.2785  0.3927
18188TIP3    H176055   3.452   0.194   3.622  0.4545  1.4748  0.8144
18188TIP3    H276056   3.363   0.164   3.504  1.5042 -1.2230  0.6379
18189TIP3   OH276057   1.113   1.854  10.374 -0.2215  0.4532 -0.6343
18189TIP3    H176058   1.099   1.790  10.304 -1.6594 -0.1268  0.1547
18189TIP3    H276059   1.198   1.832  10.411 -0.6689 -0.9852 -0.4131
18190TIP3   OH276060   3.876   3.051  10.716 -0.3963  0.3492  0.2008
18190TIP3    H176061   3.850   3.137  10.683  1.6934 -0.3244 -3.8255
18190TIP3    H276062   3.963   3.065  10.755  0.7014 -0.0877 -1.9605
18191TIP3   OH276063   0.135   3.620  16.142  0.3232  0.2332  0.3087
18191TIP3    H176064   0.085   3.638  16.221  1.6818  1.4520  0.9392
18191TIP3    H276065   0.200   3.690  16.138  2.7787 -1.9062  0.1921
18192TIP3   OH276066   2.931   5.201   3.624 -0.3810 -0.0547  0.3682
18192TIP3    H176067   3.004   5.139   3.624 -1.7668 -1.8152  2.0981
18192TIP3    H276068   2.955   5.265   3.691 -0.1854 -0.3373  0.5744
18193TIP3   OH276069   2.656   6.762  14.194  0.1852  0.0015  0.6682
18193TIP3    H176070   2.605   6.711  14.257 -0.5157  0.6050  0.5929
18193TIP3    H276071   2.689   6.697  14.132  0.2104 -0.4940  1.1881
18194TIP3   OH276072   3.178   6.490   3.826 -0.0780 -0.4715  1.0675
18194TIP3    H176073   3.271   6.495   3.844 -0.1206 -0.0422  1.1716
18194TIP3    H276074   3.141   6.446   3.902  0.0069 -0.4282  1.1339
18195TIP3   OH276075   3.255   6.058   2.992 -0.3915 -0.1867 -0.1697
18195TIP3    H176076   3.181   6.119   2.994  0.6510  1.1425 -0.5630
18195TIP3    H276077   3.233   5.991   3.056 -1.7463  0.4085  0.0135
18196TIP3   OH276078   4.530   1.695   0.846  0.4978  0.5459  0.2775
18196TIP3    H176079   4.554   1.668   0.757  0.9026  1.3201  0.1363
18196TIP3    H276080   4.436   1.683   0.850  0.5793 -0.2456  0.0081
18197TIP3   OH276081   5.423   2.260  14.131 -0.0985  0.4531 -0.0005
18197TIP3    H176082   5.392   2.192  14.072 -0.8110  0.5364  0.2687
18197TIP3    H276083   5.377   2.243  14.214 -0.6335  1.5136 -0.0558
18198TIP3   OH276084   6.647   4.480  13.216  0.3203 -0.1772  0.2880
18198TIP3    H176085   6.655   4.463  13.309 -1.5491 -1.4213  0.2753
18198TIP3    H276086   6.601   4.404  13.181  0.0715  0.7111 -1.4765
18199TIP3   OH276087   6.182   3.888   2.772 -0.1572 -0.0200  0.1570
18199TIP3    H176088   6.236   3.837   2.712  0.5989  0.1910  0.6429
18199TIP3    H276089   6.186   3.978   2.738 -2.6704 -0.4671 -1.5464
18200TIP3   OH276090   3.736   0.435  12.028  0.2170 -0.3491  0.5312
18200TIP3    H176091   3.777   0.359  11.986  2.2319  1.2138 -0.5073
18200TIP3    H276092   3.705   0.401  12.112  0.3997 -2.4774 -0.1877
18201TIP3   OH276093   4.978   5.315  12.145  0.0989 -0.5723  0.4230
18201TIP3    H176094   4.992   5.329  12.052 -0.4411 -3.0273 -0.1029
18201TIP3    H276095   4.892   5.353  12.163  0.3170  0.1370  0.0053
18202TIP3   OH276096   0.283   4.007   3.152 -0.1122 -0.0292 -1.0116
18202TIP3    H176097   0.346   3.959   3.206 -1.7186 -1.2216 -0.1165
18202TIP3    H276098   0.212   4.028   3.211  0.8751  4.4677 -1.0740
18203TIP3   OH276099   3.568   0.051  16.599 -0.0264 -0.2843  0.6211
18203TIP3    H176100   3.647   0.036  16.651 -0.2934 -2.3097  0.5212
18203TIP3    H276101   3.524   0.124  16.642  0.9892 -0.3073  1.7503
18204TIP3   OH276102   3.323   0.291   1.347 -0.2096 -0.2202  0.8211
18204TIP3    H176103   3.358   0.351   1.281  1.8677 -0.5653  1.5497
18204TIP3    H276104   3.235   0.324   1.365  0.9048  2.7767  1.3654
18205TIP3   OH276105   3.932   2.231   1.349 -0.5915  0.5047 -0.3330
18205TIP3    H176106   3.893   2.244   1.435  0.9857  2.0948  0.1877
18205TIP3    H276107   4.010   2.178   1.365 -1.5067 -1.1864 -1.1423
18206TIP3   OH276108   5.809   4.067  17.107  0.3392  0.3253 -0.2066
18206TIP3    H176109   5.820   4.063  17.202 -2.6065  1.0362  0.2697
18206TIP3    H276110   5.771   3.982  17.084  3.1444 -0.7775 -1.2140
18207TIP3   OH276111   2.309   5.789   2.389  0.0649 -0.2450 -0.1356
18207TIP3    H176112   2.289   5.695   2.383  1.4752 -0.6126  0.5207
18207TIP3    H276113   2.390   5.793   2.439  0.1266  1.3311 -0.3148
18208TIP3   OH276114   2.483   6.015   2.924 -0.3275 -0.1396 -0.2928
18208TIP3    H176115   2.494   6.109   2.913  1.9932 -0.5681 -2.3974
18208TIP3    H276116   2.390   6.000   2.908 -0.3556  1.5796 -2.1691
18209TIP3   OH276117   5.736   2.570  13.465 -0.3206  0.3809 -0.4815
18209TIP3    H176118   5.684   2.490  13.470  0.5964 -0.4206 -2.4931
18209TIP3    H276119   5.761   2.589  13.555  0.1304 -2.1145 -0.0156
18210TIP3   OH276120   4.518   6.479   2.923  0.3886  0.8049 -0.3465
18210TIP3    H176121   4.545   6.513   3.009  1.1992 -1.0585  0.1833
18210TIP3    H276122   4.534   6.385   2.928  2.3294  0.8413 -3.1884
18211TIP3   OH276123   6.694   2.261   6.590 -0.5188  0.7076 -0.4716
18211TIP3    H176124   6.693   2.347   6.547 -2.2870  1.3705  0.7696
18211TIP3    H276125   6.612   2.258   6.639 -0.7973 -1.9844 -0.9682
18212TIP3   OH276126   0.836   6.329   2.006 -0.0089  0.4982 -0.0558
18212TIP3    H176127   0.902   6.348   1.940  0.7933 -0.6393  0.3860
18212TIP3    H276128   0.781   6.408   2.009  2.3171  2.1799  0.7738
18213TIP3   OH276129   0.768   4.232   5.199  0.5883  0.0672  0.1404
18213TIP3    H176130   0.776   4.271   5.112  1.9085  3.1396  1.4853
18213TIP3    H276131   0.675   4.237   5.219  0.4204  0.3662 -0.6610
18214TIP3   OH276132   0.734   2.683  16.533  0.4096 -0.5512 -0.4700
18214TIP3    H176133   0.695   2.643  16.455 -0.2976 -0.2972 -0.2529
18214TIP3    H276134   0.674   2.754  16.556  0.8977 -0.2824 -0.0040
18215TIP3   OH276135   2.561   0.061   6.345  0.6234 -0.2310 -0.0317
18215TIP3    H176136   2.623  -0.006   6.373  2.6084  0.7199 -1.8470
18215TIP3    H276137   2.476   0.017   6.345  1.2726 -1.6528  2.2987
18216TIP3   OH276138   4.383   4.410  15.635  0.0524 -0.2176  0.2929
18216TIP3    H176139   4.298   4.430  15.595  0.1829 -0.3879 -0.0629
18216TIP3    H276140   4.448   4.437  15.570  0.2731 -0.1043  0.5580
18217TIP3   OH276141   4.999   1.398  16.749  0.4877  0.5132  0.5280
18217TIP3    H176142   5.004   1.338  16.824  1.4120  0.0033  0.0738
18217TIP3    H276143   5.079   1.451  16.756  0.1470  1.0462  0.3822
18218TIP3   OH276144   5.872   6.718  13.169  0.0470  0.2350 -0.0075
18218TIP3    H176145   5.796   6.772  13.148 -1.1885 -1.0070  1.0833
18218TIP3    H276146   5.941   6.781  13.192 -0.7285  1.3716 -0.7018
18219TIP3   OH276147   6.786   0.706  12.199  0.5243 -0.2759  0.8055
18219TIP3    H176148   6.794   0.802  12.198  1.6124 -0.3485  0.9936
18219TIP3    H276149   6.821   0.678  12.115 -0.0090 -0.5033  0.6545
18220TIP3   OH276150   3.530   5.356   4.828  0.5491  0.2216 -0.2070
18220TIP3    H176151   3.560   5.340   4.917  2.6449  0.8243 -0.7347
18220TIP3    H276152   3.589   5.305   4.773 -2.0457 -1.8892 -1.2362
18221TIP3   OH276153   0.814   0.781  12.291  0.1447  0.4624  0.2605
18221TIP3    H176154   0.754   0.831  12.236 -2.2182 -0.8741  1.4383
18221TIP3    H276155   0.865   0.727  12.230 -1.7923 -0.3610 -0.7171
18222TIP3   OH276156   0.600   1.056  16.991 -0.1780 -0.0578  0.3658
18222TIP3    H176157   0.544   1.117  17.039 -1.9745 -1.5394  0.2677
18222TIP3    H276158   0.640   1.109  16.922 -1.0624  1.1628  0.7596
18223TIP3   OH276159   2.976   6.768  10.985  0.5054  0.3452 -0.3920
18223TIP3    H176160   2.886   6.797  11.002  0.5927 -0.3738  1.5959
18223TIP3    H276161   3.014   6.759  11.073  1.3079 -3.0980 -0.9474
18224TIP3   OH276162   0.199   0.528  16.136  0.0789 -0.6493  0.0237
18224TIP3    H176163   0.125   0.480  16.173  0.8069  0.0547  2.6533
18224TIP3    H276164   0.276   0.481  16.169  0.7805  0.6427  0.2813
18225TIP3   OH276165   2.093   0.034   5.412  0.3151 -0.1785  0.2675
18225TIP3    H176166   2.026  -0.023   5.375 -0.1603  0.3447  0.3099
18225TIP3    H276167   2.094   0.110   5.354  1.7763 -0.7228 -0.4829
18226TIP3   OH276168   5.898   4.998  16.266  0.0952  0.4810 -0.2555
18226TIP3    H176169   5.952   4.929  16.228  0.2451  0.3445  0.1944
18226TIP3    H276170   5.961   5.061  16.301  0.0071 -0.2119  1.2577
18227TIP3   OH276171   5.750   4.376   2.399  0.4111 -0.3989  0.0397
18227TIP3    H176172   5.696   4.417   2.466  1.7966 -0.1852  1.0718
18227TIP3    H276173   5.760   4.285   2.428  2.9021  0.2204  1.4679
18228TIP3   OH276174   5.663   0.560   0.463 -0.3012  0.7118 -0.2793
18228TIP3    H176175   5.598   0.560   0.393 -0.3285 -1.7354 -0.3243
18228TIP3    H276176   5.740   0.601   0.424 -0.3471 -0.5254 -1.7616
18229TIP3   OH276177   5.926   1.214  16.786  0.0067  0.0304  0.2020
18229TIP3    H176178   5.931   1.205  16.691 -0.0750 -0.5218  0.2485
18229TIP3    H276179   5.832   1.222  16.805 -0.0408 -0.7424  0.3117
18230TIP3   OH276180   5.022   1.242  14.381  0.3713 -0.2994 -0.8763
18230TIP3    H176181   5.022   1.227  14.475 -0.2946 -0.4499 -0.8986
18230TIP3    H276182   5.095   1.188  14.348  1.1836  0.4601 -0.3459
18231TIP3   OH276183   0.542   5.226  14.438 -0.0271 -0.3326 -0.1271
18231TIP3    H176184   0.599   5.229  14.361  1.7636  1.6506  1.1415
18231TIP3    H276185   0.489   5.305  14.432  0.4182  0.0636  0.8259
18232TIP3   OH276186   3.730   5.644  10.445 -0.6328  0.4700  0.1783
18232TIP3    H176187   3.773   5.559  10.437 -0.5896  0.6514 -2.1307
18232TIP3    H276188   3.675   5.635  10.523 -0.3456 -1.5517  0.2121
18233TIP3   OH276189   4.223   5.614   0.083  0.2753 -0.4521  0.4688
18233TIP3    H176190   4.162   5.589   0.153  0.3719  1.2035  1.1753
18233TIP3    H276191   4.290   5.666   0.127 -1.0927  2.9972 -1.1653
18234TIP3   OH276192   4.188   4.431   6.399  0.4460  0.1215  0.7136
18234TIP3    H176193   4.252   4.382   6.450 -0.3344  0.8877  2.4980
18234TIP3    H276194   4.225   4.519   6.391  0.7140 -0.0778 -0.3526
18235TIP3   OH276195   0.567   6.772   0.660 -0.6792  0.3922  0.1704
18235TIP3    H176196   0.479   6.803   0.681 -0.7828  1.0064 -1.0101
18235TIP3    H276197   0.569   6.682   0.689 -1.1846  0.8178  1.5960
18236TIP3   OH276198   3.492   1.140  16.719 -0.5418  0.4882 -0.4533
18236TIP3    H176199   3.499   1.075  16.649 -0.2049  0.5184 -0.4457
18236TIP3    H276200   3.446   1.214  16.677 -2.0898 -0.2383 -0.1208
18237TIP3   OH276201   1.415   4.970  12.644  0.1867  0.2251 -0.2562
18237TIP3    H176202   1.421   4.876  12.630  0.5115  0.1376  0.4801
18237TIP3    H276203   1.364   5.002  12.569  0.7936 -0.4163 -0.9515
18238TIP3   OH276204   3.529   1.247   3.546  0.7155  0.2434  0.3071
18238TIP3    H176205   3.522   1.328   3.596  2.5867  1.3976 -1.1240
18238TIP3    H276206   3.623   1.228   3.544  0.7387  0.1658 -2.4944
18239TIP3   OH276207   4.520   6.302   0.748  0.4782  0.2907  0.0165
18239TIP3    H176208   4.427   6.281   0.741  0.8797 -1.4775 -0.5085
18239TIP3    H276209   4.543   6.279   0.838  0.5896 -0.1062 -0.1117
18240TIP3   OH276210   4.094   1.643   6.286  0.2459  0.5080  0.1636
18240TIP3    H176211   4.154   1.574   6.258  0.6871  0.5850  0.8929
18240TIP3    H276212   4.131   1.724   6.251 -0.4700  0.3620 -1.0114
18241TIP3   OH276213   1.148   1.855  16.944 -0.1522 -0.2345  0.2887
18241TIP3    H176214   1.215   1.903  16.896 -1.6815  1.0961 -0.6181
18241TIP3    H276215   1.112   1.794  16.880  0.5566 -1.3698  0.9375
18242TIP3   OH276216   5.298   2.922  14.037 -0.1003 -0.2715 -0.1292
18242TIP3    H176217   5.307   2.829  14.014  2.0323  0.0369 -0.7486
18242TIP3    H276218   5.232   2.955  13.976  1.8212 -0.6105 -2.5289
18243TIP3   OH276219   1.692   1.883   0.214  0.1291  0.6280 -0.2157
18243TIP3    H176220   1.692   1.941   0.291  2.3227  0.1335  0.2157
18243TIP3    H276221   1.715   1.797   0.248  0.0589  0.1648 -1.2932
18244TIP3   OH276222   4.937   6.139  11.720 -0.0450  0.1323  0.1631
18244TIP3    H176223   4.944   6.045  11.706 -0.5146  0.2717 -1.1832
18244TIP3    H276224   4.946   6.151  11.814 -1.9279 -1.4265  0.5844
18245TIP3   OH276225   2.489   3.720   5.291 -0.0964 -0.5018 -0.0089
18245TIP3    H176226   2.428   3.738   5.220 -0.8042  0.3693  0.7999
18245TIP3    H276227   2.458   3.773   5.364  1.9303  0.3887  0.2790
18246TIP3   OH276228   0.264   0.781  16.651  0.3792 -0.0364  0.1715
18246TIP3    H176229   0.328   0.760  16.719 -0.4068 -0.2853  0.8484
18246TIP3    H276230   0.223   0.862  16.681 -0.4719 -0.5266  0.3683
18247TIP3   OH276231   1.774   1.516   3.502 -0.0223  0.5681  0.2840
18247TIP3    H176232   1.740   1.595   3.542 -0.5922  0.6806 -0.3900
18247TIP3    H276233   1.775   1.451   3.572 -1.6149  0.5761  0.3530
18248TIP3   OH276234   4.405   5.166  15.451  0.6402 -0.5342  0.0306
18248TIP3    H176235   4.384   5.201  15.365  0.8404 -0.8276 -0.1401
18248TIP3    H276236   4.402   5.242  15.510  3.1994  0.1998 -0.6712
18249TIP3   OH276237   1.798   4.046   1.713 -0.1659 -0.0931  0.4722
18249TIP3    H176238   1.788   4.025   1.620 -0.6831  0.0831  0.4881
18249TIP3    H276239   1.893   4.039   1.728 -0.2080 -1.5178  0.2664
18250TIP3   OH276240   4.639   4.663   1.495 -0.5276  0.5541  0.2000
18250TIP3    H176241   4.721   4.653   1.544  0.3247  1.6369 -0.9387
18250TIP3    H276242   4.631   4.757   1.481 -1.1364  0.3300 -1.0683
18251TIP3   OH276243   0.942   2.967   5.501  0.7448 -0.6666  0.0760
18251TIP3    H176244   0.950   2.874   5.482  1.1451  0.1176 -4.9696
18251TIP3    H276245   0.964   3.011   5.419 -2.0623  3.8286  1.3231
18252TIP3   OH276246   1.804   5.896  17.166  0.1328  0.1509 -0.2182
18252TIP3    H176247   1.748   5.821  17.184 -1.4720  1.1829 -0.6917
18252TIP3    H276248   1.749   5.956  17.117  0.9203  2.2380  1.2996
18253TIP3   OH276249   4.836   4.843  11.981  0.1243  0.4736 -0.2806
18253TIP3    H176250   4.847   4.765  11.926 -0.1979  0.7195 -0.6939
18253TIP3    H276251   4.879   4.819  12.064 -0.5227 -0.3917 -0.1733
18254TIP3   OH276252   5.752   4.023  15.210 -0.3182 -0.0444 -0.7024
18254TIP3    H176253   5.671   4.027  15.262  0.4753  0.7856  0.5191
18254TIP3    H276254   5.805   4.096  15.242  0.2420  0.4695 -2.6665
18255TIP3   OH276255   1.355   2.433   0.730  0.2413  0.2365 -0.1951
18255TIP3    H176256   1.324   2.478   0.652 -0.9574 -1.4222 -0.7260
18255TIP3    H276257   1.317   2.345   0.724  2.5728 -0.9136  0.7417
18256TIP3   OH276258   1.643   5.984  15.173  0.0352 -0.6402 -0.2229
18256TIP3    H176259   1.595   5.992  15.091  0.6759  0.9561 -0.4758
18256TIP3    H276260   1.577   5.960  15.238 -1.2452  1.7830 -0.5026
18257TIP3   OH276261   1.393   4.708   6.069 -0.1286 -0.0895 -0.3008
18257TIP3    H176262   1.407   4.739   5.980  1.7300  0.9077  0.2918
18257TIP3    H276263   1.403   4.786   6.124 -0.9761 -0.7323  0.8151
18258TIP3   OH276264   1.351   2.781   2.869 -0.0034  0.2451  0.3929
18258TIP3    H176265   1.325   2.871   2.850 -2.7829 -0.1423  1.8163
18258TIP3    H276266   1.415   2.789   2.940  1.3002  1.1132 -0.8155
18259TIP3   OH276267   0.542   2.425  17.079 -0.2131 -0.0070  0.2403
18259TIP3    H176268   0.450   2.447  17.065 -0.1588 -0.4364 -0.9328
18259TIP3    H276269   0.585   2.509  17.092 -0.9790  0.1110  2.3402
18260TIP3   OH276270   3.171   3.229   3.440 -0.5319  0.2440  0.1599
18260TIP3    H176271   3.233   3.247   3.511 -1.4846  0.5716  0.9431
18260TIP3    H276272   3.091   3.201   3.485 -0.1185 -3.0457 -0.9061
18261TIP3   OH276273   0.362   6.674   3.447 -0.1769 -0.1140  0.4169
18261TIP3    H176274   0.454   6.681   3.469 -0.4663  1.0976  1.3545
18261TIP3    H276275   0.360   6.623   3.366  1.4385  1.3622 -0.6030
18262TIP3   OH276276   1.039   0.920  17.231 -0.0399  0.0043  0.2281
18262TIP3    H176277   1.007   1.003  17.195 -1.9357 -0.8252 -0.0855
18262TIP3    H276278   1.121   0.905  17.184 -0.5829  0.8180 -1.0542
18263TIP3   OH276279   3.713   1.130  12.961 -0.0759  0.4473  0.2113
18263TIP3    H176280   3.649   1.141  13.032 -2.1231  0.3989 -1.5121
18263TIP3    H276281   3.736   1.038  12.963  1.8894  0.8957  2.3487
18264TIP3   OH276282   5.952   3.253  11.922 -0.1480  0.4187  0.2336
18264TIP3    H176283   5.880   3.217  11.870  0.7242  0.7674 -1.2720
18264TIP3    H276284   6.021   3.186  11.917  0.6775  1.2987 -0.7727
18265TIP3   OH276285   6.585   2.572  17.260  0.2426  0.6244  0.1597
18265TIP3    H176286   6.517   2.631  17.293  0.6153  0.0810  2.0117
18265TIP3    H276287   6.620   2.529  17.339  1.3231 -0.6167 -0.9475
18266TIP3   OH276288   0.835   0.333   4.144  0.4248  0.2143  0.8499
18266TIP3    H176289   0.802   0.269   4.081  0.5712  0.2593  0.7272
18266TIP3    H276290   0.907   0.288   4.188  0.7845  0.4297  0.4889
18267TIP3   OH276291   1.542   0.207  16.802  0.0693  0.2918 -0.1457
18267TIP3    H176292   1.462   0.192  16.751  0.2255  2.0533 -0.9732
18267TIP3    H276293   1.516   0.187  16.892 -0.8190 -0.7668 -0.6005
18268TIP3   OH276294   2.016   3.052  13.438  0.3930 -0.1174  0.4571
18268TIP3    H176295   1.980   3.043  13.526 -0.0751  1.9570  0.5296
18268TIP3    H276296   2.109   3.068  13.451 -0.0423  2.5740  0.7897
18269TIP3   OH276297   0.547   3.455   1.011  0.0534 -0.1990 -0.5928
18269TIP3    H176298   0.572   3.529   1.066  1.3571 -0.9328 -0.1700
18269TIP3    H276299   0.498   3.495   0.939  0.1801  1.0001 -0.0388
18270TIP3   OH276300   2.849   2.670   6.706 -0.0550  0.0201  0.1872
18270TIP3    H176301   2.767   2.622   6.704  0.0880 -0.2767 -2.2028
18270TIP3    H276302   2.845   2.727   6.629  1.4958  0.8158  0.6499
18271TIP3   OH276303   0.392   4.989   3.531  0.6884  0.4144  0.0745
18271TIP3    H176304   0.452   5.034   3.591 -0.1901  1.7036  0.0245
18271TIP3    H276305   0.344   4.928   3.587  0.9449  0.5040  0.3984
18272TIP3   OH276306   2.795   5.271  10.613 -0.1882  0.4088  0.0942
18272TIP3    H176307   2.891   5.280  10.620 -0.3628  1.9482  1.1474
18272TIP3    H276308   2.775   5.295  10.523  0.5017 -1.0851 -0.4865
18273TIP3   OH276309   4.676   1.288  16.902  0.0549  0.4242 -0.1087
18273TIP3    H176310   4.601   1.274  16.960  0.8838  0.7695  1.0913
18273TIP3    H276311   4.733   1.348  16.951  1.3053 -0.1623 -0.8114
18274TIP3   OH276312   1.605   2.669  12.932  0.0349  0.2638 -0.2399
18274TIP3    H176313   1.564   2.584  12.947  1.7403 -0.6420 -0.5611
18274TIP3    H276314   1.697   2.657  12.955  0.5327  1.7307 -1.2920
18275TIP3   OH276315   6.339   5.686   4.379 -0.4196 -0.1623 -0.0953
18275TIP3    H176316   6.246   5.694   4.356 -0.2952  0.6949 -0.3331
18275TIP3    H276317   6.339   5.636   4.461 -1.1842  0.8533  0.5535
18276TIP3   OH276318   0.964   2.213   5.288 -0.5024  0.2714  0.0156
18276TIP3    H176319   0.957   2.299   5.246  0.9388 -0.1592 -1.1799
18276TIP3    H276320   1.057   2.202   5.305 -0.9132 -0.0949  2.2989
18277TIP3   OH276321   2.491   4.427   3.670  0.3876 -0.1393  0.6257
18277TIP3    H176322   2.490   4.469   3.756  0.9675  1.1699  0.0116
18277TIP3    H276323   2.501   4.499   3.608  1.2500 -1.1706 -0.4737
18278TIP3   OH276324   1.307   5.552  12.603  0.0989  0.3872  0.1436
18278TIP3    H176325   1.360   5.478  12.573  0.4043  0.9780 -0.8357
18278TIP3    H276326   1.308   5.613  12.529  0.4107  1.6670  1.1747
18279TIP3   OH276327   2.223   6.766   1.123 -0.0390  0.2046 -0.9201
18279TIP3    H176328   2.254   6.838   1.179 -2.1147 -2.3012  4.1674
18279TIP3    H276329   2.292   6.700   1.129 -1.4254 -1.2032  1.4820
18280TIP3   OH276330   6.231   1.604   4.216  0.1363  0.0047  0.5336
18280TIP3    H176331   6.146   1.611   4.259 -1.1413 -0.1395 -1.8075
18280TIP3    H276332   6.216   1.542   4.144  1.5229  1.8734 -1.4770
18281TIP3   OH276333   4.973   4.459   2.489  0.2140  0.3826  0.1054
18281TIP3    H176334   4.919   4.497   2.559 -0.2379  0.3380 -0.2129
18281TIP3    H276335   4.994   4.533   2.432 -0.9588  0.1138 -0.7046
18282TIP3   OH276336   5.361   6.425  16.797 -0.3424  0.1364  0.0935
18282TIP3    H176337   5.381   6.375  16.877 -0.9277 -0.1853  0.0451
18282TIP3    H276338   5.381   6.364  16.726 -0.4841  0.1809  0.0168
18283TIP3   OH276339   5.741   2.547  14.912  0.2369  0.1757 -0.2151
18283TIP3    H176340   5.646   2.559  14.913  0.3329  0.9416  0.6907
18283TIP3    H276341   5.766   2.546  15.004  1.3040  1.6945 -0.4583
18284TIP3   OH276342   5.117   3.657   4.030  0.0003 -0.2433 -0.5130
18284TIP3    H176343   5.195   3.639   3.978 -1.2404  0.0053 -2.5508
18284TIP3    H276344   5.044   3.621   3.978 -1.3437  0.3738  0.8682
18285TIP3   OH276345   0.258   1.419  16.472  0.0288  0.4917 -0.1196
18285TIP3    H176346   0.274   1.512  16.486 -1.0035  0.6715 -0.0647
18285TIP3    H276347   0.192   1.396  16.537  0.1978 -0.2545 -0.2048
18286TIP3   OH276348   2.376   4.594  14.669  0.2580 -0.1170 -0.1706
18286TIP3    H176349   2.335   4.508  14.654 -1.1832  0.5952 -0.5012
18286TIP3    H276350   2.345   4.648  14.596  1.8899  0.4555 -0.4872
18287TIP3   OH276351   0.821   2.959  14.295  0.8824  0.2349 -0.2115
18287TIP3    H176352   0.901   3.004  14.322  0.2594  0.5612  1.2122
18287TIP3    H276353   0.752   3.025  14.303  0.1721 -0.5768  0.5722
18288TIP3   OH276354   3.585   3.266  13.731  0.3074  0.0313 -0.4644
18288TIP3    H176355   3.596   3.187  13.677 -0.4883  1.0771 -2.2155
18288TIP3    H276356   3.580   3.232  13.821  0.8062 -1.8396 -1.0924
18289TIP3   OH276357   4.300   1.075  14.852 -0.7402  0.0849 -0.1543
18289TIP3    H176358   4.305   1.167  14.826 -0.2305  0.3122  0.7076
18289TIP3    H276359   4.307   1.077  14.948  0.1727 -0.9064 -0.1855
18290TIP3   OH276360   5.621   5.880  14.409 -0.2957 -0.0219  0.1305
18290TIP3    H176361   5.547   5.940  14.404  0.4854  1.0085  0.5181
18290TIP3    H276362   5.622   5.850  14.500  0.6779  1.2165  0.5641
18291TIP3   OH276363   6.435   3.261   0.847 -0.1939 -0.2824 -0.1978
18291TIP3    H176364   6.458   3.227   0.760 -0.8621 -1.2317 -0.0090
18291TIP3    H276365   6.412   3.352   0.831  2.2576  0.3429 -0.6167
18292TIP3   OH276366   4.498   2.306  14.449 -0.3633  0.2682  0.0548
18292TIP3    H176367   4.476   2.229  14.501  0.8036 -0.5020 -0.5495
18292TIP3    H276368   4.425   2.315  14.388  0.0340 -1.1314 -0.6890
18293TIP3   OH276369   0.600   4.144  13.357  0.2509  0.0160  0.3055
18293TIP3    H176370   0.527   4.202  13.337  1.3474  1.6424  0.8694
18293TIP3    H276371   0.636   4.120  13.271  2.2596  3.4901 -0.0005
18294TIP3   OH276372   3.064   3.910   4.136 -0.0641  0.3380 -0.1691
18294TIP3    H176373   3.069   3.999   4.100  1.8839  0.6248  0.6759
18294TIP3    H276374   3.034   3.922   4.226  0.3518  0.1410 -0.0055
18295TIP3   OH276375   2.704   6.670   6.193  0.5773 -0.6819  0.2266
18295TIP3    H176376   2.689   6.594   6.137  1.2945 -1.2727  0.8055
18295TIP3    H276377   2.629   6.727   6.178 -0.1919 -1.7115  0.1166
18296TIP3   OH276378   5.193   0.850   1.438 -0.3505 -0.4106 -0.5219
18296TIP3    H176379   5.230   0.912   1.501 -0.6379 -0.7394 -0.0162
18296TIP3    H276380   5.248   0.772   1.447 -1.6389 -1.2129  0.8585
18297TIP3   OH276381   5.824   2.207   2.886 -0.4354 -0.1040 -0.2682
18297TIP3    H176382   5.736   2.185   2.856 -1.0813  1.3659  0.4333
18297TIP3    H276383   5.863   2.256   2.813 -0.0338 -1.0793 -0.7278
18298TIP3   OH276384   4.923   2.712   5.906  0.0193 -0.2323  0.0177
18298TIP3    H176385   4.851   2.666   5.863 -0.4103 -0.1899  0.6681
18298TIP3    H276386   4.898   2.714   5.999  0.1296  1.1127  0.0399
18299TIP3   OH276387   2.840   5.939   5.578  0.4202  0.3952  0.5608
18299TIP3    H176388   2.765   5.946   5.636 -1.6449  0.2133 -1.9329
18299TIP3    H276389   2.915   5.965   5.632 -1.5890  1.9708  2.7598
18300TIP3   OH276390   6.694   6.476   2.230  0.4322 -0.3307 -0.1063
18300TIP3    H176391   6.775   6.485   2.281  0.2797 -0.9177  0.2549
18300TIP3    H276392   6.688   6.557   2.180 -0.0219  0.7836  1.6789
18301TIP3   OH276393   1.552   4.047  15.238  0.3346 -0.1999 -0.1499
18301TIP3    H176394   1.550   4.049  15.333  0.9132 -0.8412 -0.1244
18301TIP3    H276395   1.573   4.137  15.213  0.5690 -0.1150  0.3372
18302TIP3   OH276396   5.045   2.817  14.206  0.4726  0.2157  0.2312
18302TIP3    H176397   5.048   2.907  14.240 -0.9154  0.5404 -0.4156
18302TIP3    H276398   5.115   2.771  14.252  0.4046  1.3216  1.5008
18303TIP3   OH276399   1.034   2.356   1.203  0.2373  0.1631 -0.0105
18303TIP3    H176400   1.083   2.343   1.284 -0.8348  0.4874  0.7164
18303TIP3    H276401   1.082   2.425   1.157  1.3596 -0.6438 -0.0836
18304TIP3   OH276402   2.344   4.211   0.044  0.5946  0.0671 -0.7313
18304TIP3    H176403   2.326   4.284  -0.016 -0.0098 -0.8117 -1.6564
18304TIP3    H276404   2.439   4.197   0.037  0.9564  1.6175  0.4949
18305TIP3   OH276405   2.480   5.510  11.803 -0.7644 -0.0511  0.2788
18305TIP3    H176406   2.563   5.502  11.850 -0.5361  0.4283 -0.0404
18305TIP3    H276407   2.422   5.447  11.846 -1.3240  2.0451  2.7777
18306TIP3   OH276408   3.210   0.017  13.173  0.4841 -0.9168 -0.7073
18306TIP3    H176409   3.129  -0.033  13.174 -1.4122  1.8871 -0.8186
18306TIP3    H276410   3.206   0.072  13.251  1.3966  0.5006 -1.5959
18307TIP3   OH276411   0.796   0.593  12.039  0.2771  0.4696  0.0147
18307TIP3    H176412   0.861   0.545  12.090 -0.6108 -0.0617  0.6826
18307TIP3    H276413   0.847   0.641  11.974  1.2536 -0.7631 -0.1594
18308TIP3   OH276414   3.736   3.639   2.849  0.2620 -0.9686 -0.6539
18308TIP3    H176415   3.764   3.633   2.757 -0.3133 -1.7693 -0.7877
18308TIP3    H276416   3.641   3.645   2.845  0.3317  0.9470 -0.1679
18309TIP3   OH276417   5.920   5.605   4.519 -0.1662  0.1740 -0.3155
18309TIP3    H176418   5.845   5.553   4.490 -0.8285  0.3501  1.0031
18309TIP3    H276419   5.890   5.648   4.599  0.2211  2.9071 -1.5085
18310TIP3   OH276420   3.063   3.017  14.530 -0.9453  0.2118 -0.5514
18310TIP3    H176421   3.101   3.096  14.568  0.6869 -0.8327  0.0592
18310TIP3    H276422   3.012   3.049  14.455  0.9764  1.7193 -1.2891
18311TIP3   OH276423   0.967   5.067  13.181 -0.2466  0.5826 -0.1093
18311TIP3    H176424   0.909   5.086  13.255 -0.8727 -1.5283  0.0040
18311TIP3    H276425   1.037   5.132  13.189 -0.6452  0.8506  1.9315
18312TIP3   OH276426   1.499   1.067  11.462  0.2416  0.3544  0.4859
18312TIP3    H176427   1.464   1.021  11.386 -0.5642  0.5730  0.7233
18312TIP3    H276428   1.542   0.999  11.513  1.6898  0.3591 -0.6538
18313TIP3   OH276429   0.490   0.205  14.729  0.4241  0.1227  0.5043
18313TIP3    H176430   0.515   0.278  14.673  0.1218  0.5183  0.8707
18313TIP3    H276431   0.572   0.162  14.751  0.4624 -0.6257 -1.0066
18314TIP3   OH276432   4.752   6.732   5.223  0.5253  0.1416  0.3246
18314TIP3    H176433   4.809   6.659   5.248 -1.3445 -1.4484  0.1724
18314TIP3    H276434   4.721   6.767   5.307  0.8390  0.2884  0.3814
18315TIP3   OH276435   6.448   6.667  15.601 -0.2938  0.3553  0.1772
18315TIP3    H176436   6.429   6.602  15.668 -1.7994  1.2175  0.6382
18315TIP3    H276437   6.515   6.626  15.546  1.1705 -0.2859  2.3089
18316TIP3   OH276438   3.585   3.884   0.864 -0.4871  0.6672 -0.0682
18316TIP3    H176439   3.599   3.965   0.914  0.4527 -0.1042  0.9904
18316TIP3    H276440   3.637   3.819   0.911 -1.4609 -0.6207 -0.7246
18317TIP3   OH276441   4.662   5.484   5.932  0.0932 -0.0847 -0.7112
18317TIP3    H176442   4.595   5.462   5.867  1.8501  1.2233 -3.1467
18317TIP3    H276443   4.742   5.443   5.898  1.0861  0.6229  0.6748
18318TIP3   OH276444   2.616   2.524   6.676 -0.5081  0.5618 -0.3422
18318TIP3    H176445   2.620   2.435   6.641  0.2910  0.7366 -0.7226
18318TIP3    H276446   2.579   2.576   6.605  1.2691  0.9465 -1.0409
18319TIP3   OH276447   0.910   0.237   4.574  0.4464 -0.0353 -0.0058
18319TIP3    H176448   0.953   0.243   4.659  1.5506  3.1807 -0.6427
18319TIP3    H276449   0.975   0.199   4.516 -0.1797 -1.8821  0.4362
18320TIP3   OH276450   4.185   0.402   4.728 -0.1974  0.0769  0.7357
18320TIP3    H176451   4.204   0.461   4.801 -1.2759  1.6612 -0.1876
18320TIP3    H276452   4.090   0.410   4.715  0.2583  2.1148 -2.5817
18321TIP3   OH276453   4.039   4.803  10.471  0.0653 -0.0837 -0.0866
18321TIP3    H176454   4.077   4.723  10.436  2.1344  0.6477  0.3199
18321TIP3    H276455   4.105   4.871  10.453 -1.1933  1.3408  0.4186
18322TIP3   OH276456   6.252   4.687   3.444  0.3558 -0.1821  0.2274
18322TIP3    H176457   6.329   4.629   3.441  0.5117  0.0304  0.1064
18322TIP3    H276458   6.181   4.631   3.474  0.1369 -0.8347 -1.4464
18323TIP3   OH276459   2.839   4.594  14.013  1.0119 -0.3590 -0.3259
18323TIP3    H176460   2.876   4.651  13.946  0.3480 -0.9663 -1.2388
18323TIP3    H276461   2.787   4.652  14.069 -0.4626 -0.1513 -1.8207
18324TIP3   OH276462   3.844   5.695   4.187  0.0449  0.4382  0.0112
18324TIP3    H176463   3.934   5.679   4.218  0.6481  0.8016 -1.4546
18324TIP3    H276464   3.813   5.769   4.239  1.4050  1.7180 -0.9301
18325TIP3   OH276465   2.171   6.314  14.039  0.0925 -0.0434  0.3756
18325TIP3    H176466   2.247   6.264  14.010 -0.9683 -1.1580 -0.6370
18325TIP3    H276467   2.106   6.248  14.063 -0.4192  0.8762  1.6566
18326TIP3   OH276468   1.237   5.390  12.809  0.4417  0.1131  0.0114
18326TIP3    H176469   1.176   5.421  12.742  1.4333 -1.1100 -1.5156
18326TIP3    H276470   1.321   5.426  12.785  0.6834  0.2935  1.0659
18327TIP3   OH276471   1.104   3.653   1.472  0.3962  0.3067 -0.2741
18327TIP3    H176472   1.053   3.608   1.404 -2.8271 -0.4082  2.3382
18327TIP3    H276473   1.053   3.731   1.493  1.6458  0.8556  0.8691
18328TIP3   OH276474   3.684   0.045  15.769 -0.1570 -0.3978 -0.3492
18328TIP3    H176475   3.666   0.017  15.859  1.2609 -3.0299 -0.8031
18328TIP3    H276476   3.720   0.134  15.779 -1.2386 -0.1018  1.5243
18329TIP3   OH276477   3.443   3.604  12.658  0.4389 -0.3067 -0.1758
18329TIP3    H176478   3.415   3.553  12.581  0.8804 -0.4229 -0.2614
18329TIP3    H276479   3.457   3.538  12.726  0.5794 -0.2590 -0.1580
18330TIP3   OH276480   0.938   5.730  14.251 -0.1661  0.1684 -0.2829
18330TIP3    H176481   0.939   5.740  14.156  0.1459  1.1735 -0.1833
18330TIP3    H276482   0.937   5.635  14.265  1.1292 -0.0212 -1.2902
18331TIP3   OH276483   4.704   3.140  16.287 -0.1601 -0.4624 -0.2252
18331TIP3    H176484   4.633   3.204  16.280 -0.3034 -0.6856 -0.8507
18331TIP3    H276485   4.689   3.096  16.371  0.3730  0.8249  0.5870
18332TIP3   OH276486   0.890   2.534  16.935 -0.1244  0.5505 -0.4628
18332TIP3    H176487   0.838   2.465  16.894 -0.5696 -0.8827  2.2777
18332TIP3    H276488   0.869   2.527  17.028  1.1570  3.2963  0.1138
18333TIP3   OH276489   0.269   4.377   2.193  0.6150  0.1505  0.4071
18333TIP3    H176490   0.255   4.464   2.156  0.2934 -0.8155 -1.9191
18333TIP3    H276491   0.353   4.384   2.239  0.1149  1.9132  1.1395
18334TIP3   OH276492   4.300   0.060   5.419  0.4470  0.4866  0.0356
18334TIP3    H176493   4.264   0.143   5.387 -0.3191 -0.2083 -0.9456
18334TIP3    H276494   4.232  -0.004   5.403  1.0596 -0.3595  0.7256
18335TIP3   OH276495   5.730   6.487   4.685  0.1364  0.1558  0.1037
18335TIP3    H176496   5.653   6.522   4.731  0.4430 -1.9169  2.4747
18335TIP3    H276497   5.702   6.479   4.594 -1.6691  1.5308  0.4772
18336TIP3   OH276498   0.264   1.216   2.168 -0.1242  0.1162  0.1188
18336TIP3    H176499   0.182   1.252   2.134 -1.2693 -3.0997 -0.8188
18336TIP3    H276500   0.319   1.205   2.090 -0.9826 -2.9086 -0.1530
18337TIP3   OH276501   2.878   2.884   6.471 -0.5230 -0.2046 -0.0195
18337TIP3    H176502   2.817   2.823   6.430  0.9063 -1.1620 -0.8360
18337TIP3    H276503   2.833   2.968   6.471 -1.5326 -0.7251 -1.2773
18338TIP3   OH276504   2.012   6.289   0.827 -0.1576 -0.5914 -0.0039
18338TIP3    H176505   1.962   6.369   0.813  1.0813  0.4849  1.4996
18338TIP3    H276506   1.951   6.219   0.802 -1.5798  0.7552 -0.4860
18339TIP3   OH276507   3.754   2.809   2.894  0.2486  0.5448 -0.0225
18339TIP3    H176508   3.840   2.810   2.851  0.5004  0.5253  0.4705
18339TIP3    H276509   3.696   2.853   2.832  0.4666 -0.0444 -0.6550
18340TIP3   OH276510   0.993   1.878  13.470  0.1318  0.1665  0.3068
18340TIP3    H176511   1.085   1.862  13.491  0.6529  1.9282 -0.4254
18340TIP3    H276512   0.945   1.858  13.550  1.3643  0.8639  1.2467
18341TIP3   OH276513   1.790   3.257  11.180 -0.0865  0.7147 -0.4366
18341TIP3    H176514   1.842   3.190  11.135 -0.3519 -0.7761  1.3376
18341TIP3    H276515   1.699   3.231  11.165 -0.1966  0.7756  0.0811
18342TIP3   OH276516   4.744   0.194   4.211  0.2801  0.4346  0.3304
18342TIP3    H176517   4.742   0.121   4.273  0.3192 -0.3205 -0.5284
18342TIP3    H276518   4.654   0.225   4.207  0.4354  1.0905  1.4318
18343TIP3   OH276519   1.345   3.799   2.444  0.7802  0.6757 -0.3236
18343TIP3    H176520   1.272   3.764   2.393 -0.4126  2.4458  0.0875
18343TIP3    H276521   1.422   3.756   2.407 -0.4235 -1.1970 -0.8200
18344TIP3   OH276522   1.014   0.415  14.033 -0.0043  0.1007  0.1459
18344TIP3    H176523   0.955   0.429  13.960 -1.2342  1.6509  1.3475
18344TIP3    H276524   0.979   0.471  14.103  2.0556 -0.0470  1.3800
18345TIP3   OH276525   1.548   6.130  11.105  0.0709 -0.5394  0.1038
18345TIP3    H176526   1.485   6.169  11.165 -1.2011 -0.8223 -1.0061
18345TIP3    H276527   1.600   6.204  11.074 -0.7572 -0.0578 -0.1686
18346TIP3   OH276528   4.234   0.210   5.823 -0.2752 -0.2764 -0.1816
18346TIP3    H176529   4.266   0.230   5.735 -0.4712 -0.4282 -0.2885
18346TIP3    H276530   4.146   0.176   5.809  0.3298 -1.9818 -0.0876
18347TIP3   OH276531   6.179   1.962  15.274  0.5935  0.0058 -0.2930
18347TIP3    H176532   6.174   1.949  15.180 -2.2351  1.0494 -0.3712
18347TIP3    H276533   6.136   2.046  15.289 -1.0409 -1.1547  2.1038
18348TIP3   OH276534   4.645   1.661  11.467 -0.1986  0.0442 -0.2537
18348TIP3    H176535   4.666   1.703  11.551  1.2726 -0.4801 -0.3273
18348TIP3    H276536   4.727   1.666  11.418 -1.0701  0.4317 -1.7141
18349TIP3   OH276537   3.687   0.764  11.493 -0.3054  0.1908 -0.5003
18349TIP3    H176538   3.781   0.776  11.507  0.1935 -2.4349 -1.1038
18349TIP3    H276539   3.675   0.780  11.399 -0.7919  2.0894 -0.1474
18350TIP3   OH276540   5.969   2.284   1.807  0.1272  0.6737  0.3457
18350TIP3    H176541   5.936   2.356   1.753  1.1989  1.0537  0.1664
18350TIP3    H276542   5.903   2.273   1.876 -0.7161  0.9150 -0.4035
18351TIP3   OH276543   4.959   2.771   1.324 -0.6091  0.1597  0.2445
18351TIP3    H176544   4.953   2.720   1.243  0.9149 -0.0064  0.2182
18351TIP3    H276545   4.947   2.862   1.295 -0.7097  0.0512 -0.0692
18352TIP3   OH276546   6.111   1.240   4.075 -0.2793  0.7078 -0.0669
18352TIP3    H176547   6.023   1.243   4.110 -0.7063  1.0575 -1.1132
18352TIP3    H276548   6.143   1.152   4.095 -0.4062  0.9751  1.3656
18353TIP3   OH276549   2.807   5.163   2.745  1.0894 -0.1371 -0.1268
18353TIP3    H176550   2.725   5.208   2.722  0.2313 -1.8785 -0.7095
18353TIP3    H276551   2.840   5.129   2.662  0.5405 -2.3616  0.4693
18354TIP3   OH276552   0.276   1.461  14.145  0.1931  0.5115 -0.5710
18354TIP3    H176553   0.283   1.407  14.067 -1.8917 -1.6081  0.5777
18354TIP3    H276554   0.182   1.475  14.157  0.3854  0.1586  1.9019
18355TIP3   OH276555   5.507   4.607   0.142  0.0769 -0.0542  0.0000
18355TIP3    H176556   5.596   4.594   0.111 -0.6146 -1.9519 -1.3513
18355TIP3    H276557   5.472   4.519   0.154 -2.5800  0.4699 -2.5845
18356TIP3   OH276558   1.195   3.836   1.817  0.2088  0.4184  0.1937
18356TIP3    H176559   1.162   3.754   1.855 -0.6135  0.3026 -0.7176
18356TIP3    H276560   1.285   3.816   1.791  0.2530  0.0314  0.6223
18357TIP3   OH276561   2.269   0.489  15.612 -0.2961 -0.7531 -0.1458
18357TIP3    H176562   2.177   0.466  15.595  0.0355 -0.5490 -2.5845
18357TIP3    H276563   2.277   0.578  15.579  0.8301 -0.8222 -0.0846
18358TIP3   OH276564   1.274   3.035   2.769 -0.3953 -0.1785  0.0144
18358TIP3    H176565   1.224   3.093   2.826 -1.4180  0.3520 -1.3847
18358TIP3    H276566   1.298   3.089   2.694 -1.8850 -1.6696 -1.6212
18359TIP3   OH276567   3.803   3.560  12.101 -0.3832 -0.4142 -0.3473
18359TIP3    H176568   3.803   3.648  12.063 -3.3253  0.3335  1.1407
18359TIP3    H276569   3.765   3.505  12.033  0.7936 -0.4442 -1.0091
18360TIP3   OH276570   0.638   1.396  17.034 -0.4058 -0.2855  0.3674
18360TIP3    H176571   0.609   1.447  16.959 -1.0965  0.1303  0.9000
18360TIP3    H276572   0.705   1.449  17.076  0.1721 -0.6366 -0.0946
18361TIP3   OH276573   5.490   1.337  13.765  0.3352 -0.1144  0.9391
18361TIP3    H176574   5.525   1.263  13.814 -0.0995 -0.0262  1.3974
18361TIP3    H276575   5.469   1.302  13.679  2.5323  0.0682  0.2655
18362TIP3   OH276576   2.233   5.055  12.909 -0.5318 -0.8365 -0.1025
18362TIP3    H176577   2.159   5.005  12.875  0.1192 -1.5434 -0.5211
18362TIP3    H276578   2.212   5.072  13.000 -0.6999 -2.0166  0.0921
18363TIP3   OH276579   0.601   4.634  11.753  0.4945 -0.3338  0.5640
18363TIP3    H176580   0.600   4.698  11.682 -0.2831 -0.1346  0.7469
18363TIP3    H276581   0.693   4.629  11.779  0.9991 -1.3014 -1.2394
18364TIP3   OH276582   6.462   1.854  13.647  0.1382 -0.0176 -0.1749
18364TIP3    H176583   6.382   1.823  13.691  0.1434  0.7877  0.4403
18364TIP3    H276584   6.430   1.915  13.580  0.2391  0.5635  0.2948
18365TIP3   OH276585   1.554   5.413  10.609 -0.2698  0.3740  0.0924
18365TIP3    H176586   1.521   5.323  10.613  1.7293 -0.4621 -0.9361
18365TIP3    H276587   1.483   5.462  10.568 -2.3245 -0.1810  2.6903
18366TIP3   OH276588   1.621   1.704  11.633 -0.2997  0.2640  0.1222
18366TIP3    H176589   1.626   1.611  11.655 -1.0700  0.3048  0.5382
18366TIP3    H276590   1.696   1.720  11.577  0.0219 -0.5392  0.3079
18367TIP3   OH276591   3.691   3.983  13.673 -0.1694 -0.1417 -0.6989
18367TIP3    H176592   3.637   3.905  13.686 -0.2134 -0.0097 -0.0105
18367TIP3    H276593   3.672   4.038  13.750  1.0644 -0.1656 -0.3538
18368TIP3   OH276594   0.366   5.017   5.937  0.8592 -0.4049  0.6705
18368TIP3    H176595   0.447   5.065   5.955  0.4815 -0.2528  2.0915
18368TIP3    H276596   0.394   4.942   5.885  1.6717  0.5230 -0.2791
18369TIP3   OH276597   4.283   3.951   4.156  0.3171  0.3947  0.8324
18369TIP3    H176598   4.258   3.894   4.229  0.0567  0.4649  0.7960
18369TIP3    H276599   4.376   3.932   4.143  0.1929 -0.1462  0.7144
18370TIP3   OH276600   1.805   1.987   5.133  0.5112  0.4865  0.1778
18370TIP3    H176601   1.881   1.972   5.078  0.1197 -1.1550  0.0328
18370TIP3    H276602   1.765   1.901   5.143 -0.7953  1.1542  1.0328
18371TIP3   OH276603   2.952   3.340   2.552  0.3402  0.1593  0.6304
18371TIP3    H176604   2.923   3.270   2.493  1.7086 -1.1109  1.4027
18371TIP3    H276605   2.876   3.398   2.559 -0.3867 -0.5093 -1.0941
18372TIP3   OH276606   1.966   6.581   2.937 -0.3957  0.1731 -0.2481
18372TIP3    H176607   1.888   6.525   2.937 -1.8456  1.9295  2.6590
18372TIP3    H276608   2.017   6.552   3.012  0.8292  0.2831 -1.0019
18373TIP3   OH276609   1.810   2.394   2.765  0.7859  0.3984  0.1536
18373TIP3    H176610   1.859   2.368   2.843 -1.0825  1.3275  1.7126
18373TIP3    H276611   1.743   2.327   2.755  0.5082  0.7233 -0.1736
18374TIP3   OH276612   3.093   1.800   0.690 -0.4109 -0.5912 -0.3828
18374TIP3    H176613   3.037   1.724   0.702 -0.4629 -0.3842  0.7064
18374TIP3    H276614   3.132   1.816   0.776  2.0823 -1.3196 -1.2803
18375TIP3   OH276615   2.822   1.479  13.797  0.0231 -0.1021  0.1443
18375TIP3    H176616   2.853   1.394  13.765  1.1252  0.8785 -1.5543
18375TIP3    H276617   2.728   1.479  13.780  0.1971 -0.5686 -0.8486
18376TIP3   OH276618   5.917   1.688  11.059 -0.1719  0.0949  0.2655
18376TIP3    H176619   5.870   1.771  11.056 -1.4059 -0.6120 -1.9347
18376TIP3    H276620   5.856   1.627  11.100 -0.1492 -0.2381 -0.1913
18377TIP3   OH276621   0.132   5.052   2.384 -0.2958 -0.1642  0.2551
18377TIP3    H176622   0.080   5.131   2.400  1.7061  0.9551  1.6831
18377TIP3    H276623   0.150   5.018   2.471  0.9464 -0.7724 -0.2187
18378TIP3   OH276624   6.019   6.349  16.715  0.0505 -0.2537  0.2643
18378TIP3    H176625   5.955   6.298  16.666  1.8194 -3.1755  0.7256
18378TIP3    H276626   5.978   6.366  16.799 -0.4455 -1.4147  0.2783
18379TIP3   OH276627   3.607   2.044  11.198 -0.2956  0.0103  0.3710
18379TIP3    H176628   3.533   2.041  11.137 -0.9499 -0.6002  1.1576
18379TIP3    H276629   3.565   2.048  11.284  0.6069  0.6137  0.7891
18380TIP3   OH276630   3.597   0.460   1.588 -0.2368  0.0550 -0.6087
18380TIP3    H176631   3.616   0.428   1.677  1.6776 -0.3678 -1.1237
18380TIP3    H276632   3.511   0.501   1.596  0.2214  0.7813  1.6636
18381TIP3   OH276633   6.175   1.807  14.130 -0.3983  0.1439  0.1801
18381TIP3    H176634   6.205   1.747  14.062  1.2664 -0.5808  1.4709
18381TIP3    H276635   6.216   1.891  14.108 -0.3677  0.0705 -0.0389
18382TIP3   OH276636   3.852   4.255  13.849  0.7217 -0.1097 -0.0825
18382TIP3    H176637   3.873   4.250  13.756  0.4522 -0.0405 -0.1473
18382TIP3    H276638   3.765   4.216  13.856  0.6578  0.0692  0.1119
18383TIP3   OH276639   0.893   1.560   5.340 -0.1128 -0.2361 -0.0111
18383TIP3    H176640   0.847   1.643   5.326 -1.0132 -0.9259 -1.3424
18383TIP3    H276641   0.948   1.550   5.262 -1.5927 -1.8604 -0.9322
18384TIP3   OH276642   0.924   4.110   1.022 -0.2998  0.2850 -0.0267
18384TIP3    H176643   0.951   4.161   1.098  1.0505 -0.6158  0.1338
18384TIP3    H276644   1.006   4.084   0.980 -0.7440 -3.3352  0.9778
18385TIP3   OH276645   3.440   2.264   5.721 -0.2638 -0.0693  0.0121
18385TIP3    H176646   3.484   2.184   5.751 -0.6926 -0.5317 -0.5693
18385TIP3    H276647   3.347   2.245   5.729 -0.3973  1.0226  1.5448
18386TIP3   OH276648   3.028   3.741  12.705 -0.1104  0.2016  0.1912
18386TIP3    H176649   2.976   3.667  12.737 -0.7137  0.1672 -0.8242
18386TIP3    H276650   3.115   3.705  12.691 -0.7493 -0.7250 -1.7055
18387TIP3   OH276651   2.744   6.009  14.527  0.0181  0.3860  0.0950
18387TIP3    H176652   2.700   6.088  14.494 -0.6704  0.1021  0.3240
18387TIP3    H276653   2.680   5.969  14.586  0.7755  0.2343  0.8299
18388TIP3   OH276654   5.089   5.161   6.441 -0.4970  0.0269 -0.3184
18388TIP3    H176655   5.019   5.225   6.448 -1.7309 -1.3456  0.5963
18388TIP3    H276656   5.157   5.192   6.501 -1.2152  0.3109  0.3614
18389TIP3   OH276657   4.699   3.737  15.468 -0.2816  0.1923 -0.0171
18389TIP3    H176658   4.767   3.714  15.404 -1.2412  0.6481 -1.2414
18389TIP3    H276659   4.652   3.655  15.483 -1.0368  0.3953 -1.1317
18390TIP3   OH276660   6.450   2.714   2.008 -0.3913  0.0830 -0.4461
18390TIP3    H176661   6.426   2.788   2.064 -1.5888 -0.5529 -0.0887
18390TIP3    H276662   6.492   2.652   2.067 -0.7468 -0.1610 -0.4492
18391TIP3   OH276663   3.052   5.070   1.163  0.3202  0.3642 -0.0910
18391TIP3    H176664   3.120   5.126   1.127  0.0364  0.3179 -0.7160
18391TIP3    H276665   3.008   5.124   1.229  1.5020  0.1063  0.9363
18392TIP3   OH276666   6.031   3.312   4.099 -0.1347 -0.5650 -0.6739
18392TIP3    H176667   6.001   3.291   4.011  0.7463 -2.7981 -0.5128
18392TIP3    H276668   6.126   3.324   4.089 -0.0914 -0.4046 -0.0880
18393TIP3   OH276669   6.603   5.186   5.187 -0.4661 -0.1493  1.1575
18393TIP3    H176670   6.613   5.211   5.279  0.8139  1.3006  0.6614
18393TIP3    H276671   6.516   5.147   5.182 -0.4799 -0.4253  3.0138
18394TIP3   OH276672   4.228   0.715   3.512  0.0567 -0.0175  0.0397
18394TIP3    H176673   4.322   0.709   3.524 -0.0341 -2.5346  0.0023
18394TIP3    H276674   4.191   0.659   3.580 -1.1477 -2.2859 -2.2935
18395TIP3   OH276675   5.637   0.055  13.179  0.1089  0.0106 -0.5625
18395TIP3    H176676   5.564   0.002  13.210  0.8767 -1.4642 -1.1440
18395TIP3    H276677   5.604   0.099  13.102 -0.5856  0.4809 -0.0043
18396TIP3   OH276678   6.739   0.881   0.761 -0.1587 -0.6164 -0.5148
18396TIP3    H176679   6.782   0.825   0.826 -0.1758 -1.2353 -1.0167
18396TIP3    H276680   6.802   0.951   0.744 -0.7899  0.4753  1.3178
18397TIP3   OH276681   5.487   2.339  10.612  0.0550  0.0833 -0.3280
18397TIP3    H176682   5.429   2.358  10.685 -1.4997 -1.0482 -1.1955
18397TIP3    H276683   5.428   2.326  10.537  1.4276 -0.9597 -1.2890
18398TIP3   OH276684   6.309   2.741   6.276 -1.2327 -0.7906  0.2165
18398TIP3    H176685   6.344   2.673   6.333  1.5937  1.5157  1.5305
18398TIP3    H276686   6.342   2.720   6.189  0.0907 -0.8607  0.7151
18399TIP3   OH276687   4.880   5.599   1.328 -0.2736 -0.5332 -0.4131
18399TIP3    H176688   4.848   5.520   1.371  0.2388 -1.4258 -1.6205
18399TIP3    H276689   4.810   5.663   1.340 -1.1659 -1.5008 -0.3481
18400TIP3   OH276690   2.141   0.481  10.679  0.2116 -0.4229 -0.0267
18400TIP3    H176691   2.224   0.522  10.706 -0.0066 -0.7625  1.2136
18400TIP3    H276692   2.102   0.544  10.618  0.8792  0.2287  0.2082
18401TIP3   OH276693   1.731   3.518   5.390  0.4385  0.0840 -0.6871
18401TIP3    H176694   1.672   3.524   5.316  0.4402  1.2459 -0.6138
18401TIP3    H276695   1.747   3.424   5.401 -1.7944 -0.3185 -0.3733
18402TIP3   OH276696   6.728   4.347   3.837 -0.1712 -0.2817 -0.1595
18402TIP3    H176697   6.702   4.387   3.755  1.7984  0.9473 -0.2440
18402TIP3    H276698   6.800   4.288   3.814  1.7458  1.5383  0.8531
18403TIP3   OH276699   4.512   5.343   0.015 -0.8106  0.8365  0.0369
18403TIP3    H176700   4.428   5.374  -0.017 -1.7819  0.1830  1.7972
18403TIP3    H276701   4.554   5.422   0.050 -0.3900  1.2727 -1.3852
18404TIP3   OH276702   1.268   2.795  15.708  0.4557  0.2383 -0.8325
18404TIP3    H176703   1.225   2.713  15.731  0.0771  0.5741 -0.3312
18404TIP3    H276704   1.234   2.816  15.620  0.2713  0.0472 -0.8061
18405TIP3   OH276705   1.053   1.281  14.351  0.0607 -0.1085  0.1171
18405TIP3    H176706   1.045   1.346  14.281 -0.3774 -1.1105 -0.7817
18405TIP3    H276707   1.147   1.265  14.357  0.2346  0.9926  0.7365
18406TIP3   OH276708   0.250   6.735  15.693  0.8148  0.2040 -0.1168
18406TIP3    H176709   0.316   6.670  15.673  0.6199 -0.1728  0.4505
18406TIP3    H276710   0.234   6.780  15.610  1.0431 -0.3824 -0.4793
18407TIP3   OH276711   3.733   5.678   1.786  0.0314 -0.6418 -0.2513
18407TIP3    H176712   3.737   5.761   1.833 -1.9388 -1.4116  1.4147
18407TIP3    H276713   3.663   5.690   1.722  1.6387 -0.1407 -2.0115
18408TIP3   OH276714   5.422   1.283   6.415  0.2201 -0.4932  0.0239
18408TIP3    H176715   5.383   1.325   6.492 -1.5549 -0.2871 -0.9231
18408TIP3    H276716   5.441   1.355   6.355  2.5850 -0.5408  0.6113
18409TIP3   OH276717   4.793   4.865  16.049  0.1024  0.0527  0.4870
18409TIP3    H176718   4.731   4.918  16.099  0.1816 -0.6574  1.3661
18409TIP3    H276719   4.851   4.929  16.008 -1.8800  0.8164 -1.3445
18410TIP3   OH276720   3.530   3.796   2.604 -0.1018 -0.2943  0.0430
18410TIP3    H176721   3.622   3.820   2.594 -0.1232 -0.0916  0.3286
18410TIP3    H276722   3.488   3.874   2.642 -0.8735  0.5218 -2.3052
18411TIP3   OH276723   1.081   3.895   3.179  0.2365 -0.9497  0.7007
18411TIP3    H176724   1.072   3.883   3.085 -1.0681  0.4512  0.6021
18411TIP3    H276725   1.065   3.988   3.193 -1.5310 -1.4463  2.4999
18412TIP3   OH276726   1.690   4.766  11.085  0.0213  0.9158 -0.0422
18412TIP3    H176727   1.764   4.769  11.024  1.0115 -2.9664  0.6850
18412TIP3    H276728   1.662   4.675  11.084 -1.9574  1.3518  2.9623
18413TIP3   OH276729   1.878   0.454  13.187  0.4008 -0.0443  0.3399
18413TIP3    H176730   1.875   0.362  13.211  0.0070 -0.7323 -2.1006
18413TIP3    H276731   1.791   0.472  13.149  0.4704  1.3386  0.7669
18414TIP3   OH276732   4.005   2.106   5.407 -0.5349 -0.1453  0.4230
18414TIP3    H176733   4.094   2.070   5.406 -0.4089  0.1670  0.0597
18414TIP3    H276734   4.014   2.189   5.454 -0.3921  0.4629 -0.6276
18415TIP3   OH276735   2.055   0.775   1.564 -0.1512 -0.6973 -0.0148
18415TIP3    H176736   1.986   0.731   1.515 -1.8607  0.2820  1.3976
18415TIP3    H276737   2.013   0.803   1.645  1.8043  0.3219  0.7180
18416TIP3   OH276738   2.956   2.357  14.781 -0.2222 -0.2455 -0.0608
18416TIP3    H176739   2.985   2.422  14.717  1.0535 -1.0408 -0.3293
18416TIP3    H276740   2.910   2.291  14.730 -1.2298  0.2566  0.1693
18417TIP3   OH276741   5.768   6.392  14.312  0.2405  0.0146  0.1660
18417TIP3    H176742   5.821   6.313  14.323  0.2574 -0.0510 -0.3322
18417TIP3    H276743   5.767   6.407  14.217  0.9124  1.0901  0.3190
18418TIP3   OH276744   3.941   0.334  14.684  0.0148 -0.1221  0.3990
18418TIP3    H176745   3.875   0.264  14.680 -0.3273  0.2440 -0.7195
18418TIP3    H276746   3.918   0.384  14.762 -2.0230  0.9452 -0.8189
18419TIP3   OH276747   1.560   4.227  12.839  0.1582  0.3682 -0.0980
18419TIP3    H176748   1.576   4.276  12.919 -2.7189 -0.1544  0.8932
18419TIP3    H276749   1.588   4.138  12.859 -0.1643  0.3284  0.1712
18420TIP3   OH276750   4.747   2.314   6.803  0.3585  0.3043  0.3488
18420TIP3    H176751   4.834   2.323   6.763  1.2506 -2.0215  1.5374
18420TIP3    H276752   4.688   2.297   6.729  0.9694  1.4603 -0.4285
18421TIP3   OH276753   0.812   4.917   2.955  0.8105  0.0583 -0.4257
18421TIP3    H176754   0.855   4.841   2.916  1.4760 -0.7346  1.7072
18421TIP3    H276755   0.731   4.881   2.993  1.0762  0.4150  0.5035
18422TIP3   OH276756   3.426   0.436   0.203 -0.1131  0.2185 -0.1728
18422TIP3    H176757   3.495   0.379   0.168 -1.8273 -2.1438  0.0410
18422TIP3    H276758   3.433   0.517   0.152  3.1977  0.3687  0.3101
18423TIP3   OH276759   2.474   5.009  14.872  0.1097 -0.1884 -0.1760
18423TIP3    H176760   2.404   5.055  14.826 -0.0513 -0.5264 -0.2644
18423TIP3    H276761   2.440   4.921  14.888  0.0841 -0.0216  0.7608
18424TIP3   OH276762   2.432   3.751  16.877 -0.5832  0.3023  0.4120
18424TIP3    H176763   2.512   3.712  16.913  0.0028  0.0116 -1.1609
18424TIP3    H276764   2.461   3.832  16.834 -0.7952 -0.7196 -1.7728
18425TIP3   OH276765   2.913   1.458   1.193 -0.0892  0.1805 -0.5024
18425TIP3    H176766   2.855   1.455   1.269 -0.6861  3.0309 -0.7195
18425TIP3    H276767   3.002   1.457   1.230 -0.2207 -2.5115 -0.0792
18426TIP3   OH276768   0.833   4.111  15.966  0.3341  0.4026 -0.0616
18426TIP3    H176769   0.863   4.154  15.886 -0.7181  1.9031  0.3228
18426TIP3    H276770   0.740   4.135  15.973 -0.2161 -1.6443  0.3756
18427TIP3   OH276771   4.675   0.229  12.149 -0.5853  0.2933  0.4307
18427TIP3    H176772   4.596   0.254  12.197  0.5860  1.3509  1.9093
18427TIP3    H276773   4.747   0.272  12.196  0.9396 -1.0050 -0.5772
18428TIP3   OH276774   1.657   3.200  14.976 -0.2651 -0.3044 -0.3030
18428TIP3    H176775   1.700   3.241  15.051  0.3044 -0.6806 -0.4189
18428TIP3    H276776   1.723   3.140  14.940 -0.6926 -0.4706 -0.8227
18429TIP3   OH276777   5.497   1.326   2.329 -0.0709 -0.1747 -0.2131
18429TIP3    H176778   5.503   1.421   2.328  0.4374 -0.2005 -1.2444
18429TIP3    H276779   5.573   1.298   2.380  0.8455 -0.0705 -1.4847
18430TIP3   OH276780   6.786   5.018   2.843  0.1467 -0.0290 -0.0708
18430TIP3    H176781   6.830   4.996   2.761  0.5815 -1.1329  0.4367
18430TIP3    H276782   6.838   4.974   2.910 -0.7376  0.1034  0.7161
18431TIP3   OH276783   1.206   0.499  12.031 -0.1272  0.2085 -0.2021
18431TIP3    H176784   1.258   0.450  12.094 -0.6307  0.6679  0.5800
18431TIP3    H276785   1.115   0.477  12.051 -0.3102  0.6259 -0.5463
18432TIP3   OH276786   5.217   3.916  13.901 -0.0854  0.0191 -0.4400
18432TIP3    H176787   5.227   3.962  13.985  0.3232  1.4556 -1.2396
18432TIP3    H276788   5.124   3.894  13.897 -0.8089  2.7933 -0.9780
18433TIP3   OH276789   6.016   6.099  16.896 -0.3760 -0.4164 -0.8098
18433TIP3    H176790   6.037   6.147  16.976  0.8950 -0.8596 -0.8544
18433TIP3    H276791   6.089   6.037  16.886  0.4228  0.8000 -3.2416
18434TIP3   OH276792   5.270   2.364   5.094  0.4133 -0.0974 -0.2414
18434TIP3    H176793   5.201   2.429   5.110  0.5339  0.1730 -0.7969
18434TIP3    H276794   5.292   2.374   5.001  1.1684 -0.2106 -0.0829
18435TIP3   OH276795   2.575   3.942  12.337  0.0105 -0.1560 -0.0052
18435TIP3    H176796   2.521   3.935  12.257  0.3630  1.9177 -0.4739
18435TIP3    H276797   2.661   3.912  12.310  0.2815  1.1022 -0.6017
18436TIP3   OH276798   0.267   2.573   3.763  0.3571  0.8752 -0.1421
18436TIP3    H176799   0.245   2.664   3.742 -1.9986  0.6774  1.1120
18436TIP3    H276800   0.348   2.578   3.813  0.6409  2.2143 -0.6994
18437TIP3   OH276801   3.973   0.494  15.420  0.4364 -0.0851  0.0282
18437TIP3    H176802   3.996   0.405  15.445 -0.7571  0.0152  1.6566
18437TIP3    H276803   4.051   0.528  15.376  1.1504 -1.6858 -0.0120
18438TIP3   OH276804   6.156   1.554   3.663 -0.2423 -0.3195  0.4249
18438TIP3    H176805   6.190   1.562   3.574  1.0956  0.9061  1.0033
18438TIP3    H276806   6.141   1.644   3.691 -0.2009 -0.6636  1.6060
18439TIP3   OH276807   2.174   2.495   3.848  0.3507 -0.6362  0.4739
18439TIP3    H176808   2.105   2.522   3.909 -0.6483 -1.6028 -0.1988
18439TIP3    H276809   2.255   2.521   3.891 -0.4402  1.6664  0.7459
18440TIP3   OH276810   6.344   3.565   5.661  0.2770 -0.1357  0.5084
18440TIP3    H176811   6.357   3.535   5.571  0.5152  0.7652  0.2292
18440TIP3    H276812   6.250   3.580   5.668  0.1240 -1.1480  0.7239
18441TIP3   OH276813   3.901   2.540   4.328  0.3427 -0.1204  0.2312
18441TIP3    H176814   3.922   2.510   4.240  0.0593 -0.9330  0.4354
18441TIP3    H276815   3.891   2.635   4.320 -1.6069 -0.3957 -0.9863
18442TIP3   OH276816   1.153   2.324  16.632 -0.0033  0.9711 -0.8288
18442TIP3    H176817   1.185   2.402  16.678  1.0669  0.5415 -0.8214
18442TIP3    H276818   1.121   2.267  16.702  1.3703  0.4351 -0.5988
18443TIP3   OH276819   3.384   2.802  13.596 -0.1938  0.3241  0.7959
18443TIP3    H176820   3.437   2.723  13.587 -1.8316 -0.9220  1.6286
18443TIP3    H276821   3.311   2.776  13.651 -1.6306  2.0025 -0.2047
18444TIP3   OH276822   1.671   2.258   0.928  0.3641  0.0839 -0.2343
18444TIP3    H176823   1.666   2.352   0.909  1.0546  0.2959  0.5462
18444TIP3    H276824   1.580   2.229   0.930  0.1065  0.8903  0.2160
18445TIP3   OH276825   5.462   1.934   4.620  0.4840  0.0075 -0.3199
18445TIP3    H176826   5.532   1.884   4.662  0.1115 -0.1005  0.1819
18445TIP3    H276827   5.469   1.911   4.527  1.3412  0.2856 -0.3318
18446TIP3   OH276828   1.128   1.100  16.000 -0.5197 -0.0891  0.1946
18446TIP3    H176829   1.182   1.027  15.968 -0.5730  0.6520 -1.6862
18446TIP3    H276830   1.049   1.058  16.034  0.6919 -1.1014  1.9376
18447TIP3   OH276831   5.717   1.935  12.113  0.2439  0.1774 -0.8089
18447TIP3    H176832   5.719   2.001  12.044  1.4274  1.5845  0.5085
18447TIP3    H276833   5.806   1.932  12.147  0.2429 -2.1709 -0.8456
18448TIP3   OH276834   3.065   4.192  12.657 -0.7843 -0.6063 -0.2173
18448TIP3    H176835   3.055   4.279  12.695 -1.5689 -0.1276 -1.4471
18448TIP3    H276836   3.010   4.136  12.712  0.6551 -0.6032  1.3099
18449TIP3   OH276837   2.378   2.945   4.195  0.0452  0.2838  1.0959
18449TIP3    H176838   2.347   2.855   4.202 -2.0520  0.6007 -2.2001
18449TIP3    H276839   2.328   2.992   4.263 -0.3931 -0.6687  1.4545
18450TIP3   OH276840   5.475   1.758  11.676  0.0923  0.1348 -0.1138
18450TIP3    H176841   5.500   1.748  11.768 -0.6711  1.6229  0.2795
18450TIP3    H276842   5.381   1.777  11.678 -0.2514 -1.2931 -1.3135
18451TIP3   OH276843   1.352   3.969  14.805 -0.2303 -0.3763 -0.3505
18451TIP3    H176844   1.405   4.042  14.837  0.7858 -1.2049 -0.0769
18451TIP3    H276845   1.332   3.991  14.714  1.9521 -0.7507 -0.9815
18452TIP3   OH276846   5.628   0.765   2.155  0.9710  0.3596  0.1575
18452TIP3    H176847   5.657   0.757   2.065 -1.7397 -0.6109 -0.7337
18452TIP3    H276848   5.609   0.858   2.166  1.7564  0.5549 -0.0995
18453TIP3   OH276849   3.844   4.583  15.514  0.6139  0.5420  0.1030
18453TIP3    H176850   3.804   4.664  15.546 -0.8043 -0.0954  0.0525
18453TIP3    H276851   3.881   4.542  15.592  0.6069  0.8518  0.2698
18454TIP3   OH276852   2.381   5.087  12.022  0.5814 -0.1772 -0.0985
18454TIP3    H176853   2.356   5.159  11.963 -1.8389  1.4129  2.5806
18454TIP3    H276854   2.315   5.019  12.006 -0.2519  0.3717  0.8533
18455TIP3   OH276855   2.230   4.701  15.109  0.3263  0.1172 -0.1153
18455TIP3    H176856   2.206   4.616  15.144  0.4770 -0.3907 -1.1848
18455TIP3    H276857   2.148   4.737  15.075  0.3515  0.1712 -0.1189
18456TIP3   OH276858   4.858   6.120  12.984 -0.1274 -0.4797  0.0909
18456TIP3    H176859   4.803   6.044  12.999  0.0216 -0.5387  0.3465
18456TIP3    H276860   4.802   6.195  13.003 -0.4509 -0.5035 -0.7279
18457TIP3   OH276861   4.033   3.392   3.854  0.1945  0.0849  0.4626
18457TIP3    H176862   4.014   3.389   3.948  2.1383  0.5766  0.9178
18457TIP3    H276863   4.078   3.476   3.841 -0.1428  0.0758 -0.9351
18458TIP3   OH276864   2.884   2.488   1.523 -0.4885 -0.3298 -0.0526
18458TIP3    H176865   2.796   2.493   1.486 -0.5007  2.2400  0.1146
18458TIP3    H276866   2.903   2.578   1.552  2.3017 -0.7206 -0.3627
18459TIP3   OH276867   5.090   4.754   0.607 -0.3307 -0.3424  0.0855
18459TIP3    H176868   5.079   4.724   0.517 -1.9035 -0.6397  0.3464
18459TIP3    H276869   5.103   4.674   0.658 -2.6542 -0.5184  0.5214
18460TIP3   OH276870   5.815   2.554  10.936  0.1875  0.1704  0.4410
18460TIP3    H176871   5.798   2.509  10.853 -0.8359  1.3838 -0.0482
18460TIP3    H276872   5.864   2.633  10.911  0.4753  0.1896  1.0643
18461TIP3   OH276873   6.122   1.912  11.410 -0.1912 -0.3519 -0.2134
18461TIP3    H176874   6.189   1.934  11.346  0.3342  1.2003  0.8268
18461TIP3    H276875   6.078   1.994  11.428 -0.7283 -0.8784  0.9586
18462TIP3   OH276876   2.476   2.165   6.081 -0.2876  0.0973 -0.1208
18462TIP3    H176877   2.400   2.108   6.094 -0.6821  0.3737 -1.1477
18462TIP3    H276878   2.547   2.121   6.128 -0.9360 -0.4645  0.3610
18463TIP3   OH276879   0.940   2.188   3.649 -0.3420  0.2328  0.4501
18463TIP3    H176880   0.901   2.266   3.610  1.1369  1.0990  0.6027
18463TIP3    H276881   0.888   2.115   3.616  0.2891  0.9787 -2.5044
18464TIP3   OH276882   3.660   4.400   3.145 -0.4180  0.0254 -0.1844
18464TIP3    H176883   3.609   4.337   3.095 -0.0070 -0.7329  0.3351
18464TIP3    H276884   3.710   4.347   3.207  0.8534  0.7539 -0.5430
18465TIP3   OH276885   3.194   3.859  13.353 -0.2330  1.1639  0.6085
18465TIP3    H176886   3.245   3.780  13.334 -1.9854  0.7957 -3.4934
18465TIP3    H276887   3.117   3.827  13.401 -1.8897 -0.1266 -2.6396
18466TIP3   OH276888   2.876   2.447  13.216  0.1983  0.1814  0.5334
18466TIP3    H176889   2.902   2.474  13.304  0.6793 -0.7162  0.6797
18466TIP3    H276890   2.887   2.352  13.216 -0.1439  0.1326 -0.3874
18467TIP3   OH276891   1.643   5.106   3.668 -0.4268 -0.2202  0.0628
18467TIP3    H176892   1.558   5.115   3.710 -0.6614  0.3324 -0.4994
18467TIP3    H276893   1.655   5.012   3.655 -0.8404 -0.3139  0.3591
18468TIP3   OH276894   1.444   0.390  15.823 -0.8315  0.1332 -0.8121
18468TIP3    H176895   1.418   0.353  15.907  0.6504 -3.7194 -1.8333
18468TIP3    H276896   1.513   0.452  15.845 -0.4928 -0.7626  0.8360
18469TIP3   OH276897   1.191   1.952  16.569  0.2221 -0.2669  0.1819
18469TIP3    H176898   1.252   1.889  16.608 -1.4969 -1.4932  0.9990
18469TIP3    H276899   1.126   1.898  16.525  0.7137  1.0537 -2.3521
18470TIP3   OH276900   1.947   4.324   5.221 -0.0061  0.0450 -0.5367
18470TIP3    H176901   2.003   4.402   5.220  0.7782 -0.2872  3.3363
18470TIP3    H276902   1.858   4.359   5.216  0.3226  0.7726 -3.4865
18471TIP3   OH276903   5.388   5.873   0.034 -0.8200 -0.3161  0.7253
18471TIP3    H176904   5.443   5.874  -0.044 -0.3431  0.5890  1.0647
18471TIP3    H276905   5.425   5.803   0.089 -0.5846 -0.3330  0.5450
18472TIP3   OH276906   2.790   3.213  11.581 -0.1675 -0.2763  0.3957
18472TIP3    H176907   2.845   3.215  11.503 -0.7034  0.8485  0.0191
18472TIP3    H276908   2.847   3.242  11.652 -0.2852  1.0611 -0.0231
18473TIP3   OH276909   5.474   6.153   0.077 -0.1713 -0.1559  0.3226
18473TIP3    H176910   5.408   6.090   0.049  0.1200 -0.6492  0.7343
18473TIP3    H276911   5.552   6.129   0.028 -0.1813  0.1746  0.1397
18474TIP3   OH276912   1.404   3.826  17.267 -0.6715 -0.2885 -0.4384
18474TIP3    H176913   1.487   3.871  17.250  0.0206 -1.4921 -0.3335
18474TIP3    H276914   1.342   3.867  17.206 -0.1281  0.9361 -0.2108
18475TIP3   OH276915   1.541   0.852   1.246  0.7099 -0.1427 -0.3226
18475TIP3    H176916   1.530   0.768   1.200  0.9408  0.4166 -1.4250
18475TIP3    H276917   1.636   0.866   1.247  0.6231  0.5820 -1.0510
18476TIP3   OH276918   5.899   6.625  11.680 -0.2465  0.1025 -0.1390
18476TIP3    H176919   5.842   6.692  11.643 -1.5304 -0.2339  1.1253
18476TIP3    H276920   5.854   6.543  11.662  0.4898 -0.2824 -0.2443
18477TIP3   OH276921   6.052   2.365   3.279  0.0031  0.2982  0.0202
18477TIP3    H176922   6.098   2.381   3.361  0.6484  1.4130 -0.5375
18477TIP3    H276923   5.959   2.366   3.303  0.2055 -1.5117  1.0720
18478TIP3   OH276924   6.314   0.132  16.315 -0.0349  0.4844  0.6171
18478TIP3    H176925   6.327   0.152  16.408  1.0055  1.0880  0.3613
18478TIP3    H276926   6.252   0.060  16.314  0.2732  0.1845  1.8046
18479TIP3   OH276927   1.348   2.853  15.142 -0.3734 -0.0975  0.0451
18479TIP3    H176928   1.294   2.916  15.095 -0.2435  0.6767  0.9000
18479TIP3    H276929   1.292   2.822  15.213  0.2301  0.6056  0.8532
18480TIP3   OH276930   0.667   2.509  14.201 -0.0598 -0.1811 -0.1228
18480TIP3    H176931   0.688   2.436  14.260  1.0761  0.4733  0.3163
18480TIP3    H276932   0.710   2.486  14.119  1.5145  0.6066  0.4289
18481TIP3   OH276933   1.442   3.291  14.792 -0.1877 -0.0796 -0.1808
18481TIP3    H176934   1.499   3.303  14.716  0.6887 -1.3634  0.2469
18481TIP3    H276935   1.502   3.294  14.867 -0.6694 -1.3920  0.2813
18482TIP3   OH276936   0.074   0.535   0.345 -0.6463  0.2056 -0.0153
18482TIP3    H176937   0.119   0.450   0.346 -2.3901 -0.7657  1.2224
18482TIP3    H276938  -0.017   0.514   0.365 -1.1683  2.3615  0.0900
18483TIP3   OH276939   5.103   5.130  17.135 -0.3976  0.1455  0.4805
18483TIP3    H176940   5.017   5.117  17.174 -0.9626  3.1063  0.4792
18483TIP3    H276941   5.160   5.153  17.209 -0.0091 -0.1698  0.2832
18484TIP3   OH276942   4.643   4.241  12.474 -0.2159  0.3868 -0.5413
18484TIP3    H176943   4.577   4.310  12.478  1.4907  2.1580 -1.6192
18484TIP3    H276944   4.596   4.166  12.436 -1.6838  1.4775 -0.9680
18485TIP3   OH276945   5.485   5.949  17.018 -0.1527  0.3399 -0.1388
18485TIP3    H176946   5.574   5.972  17.044 -0.3602  1.2192 -0.1922
18485TIP3    H276947   5.496   5.874  16.960  0.3157 -1.7904  2.5014
18486TIP3   OH276948   0.970   4.451  13.235  0.5190  0.4278  0.7296
18486TIP3    H176949   0.917   4.395  13.291  1.0967 -0.7521  0.1313
18486TIP3    H276950   0.920   4.533  13.228 -1.7014 -0.9460 -0.5538
18487TIP3   OH276951   1.411   1.982   2.441 -0.3073 -0.1300  0.0498
18487TIP3    H176952   1.487   2.017   2.395 -0.5630  0.3321 -0.0331
18487TIP3    H276953   1.447   1.922   2.506  0.0143 -1.5437 -1.3925
18488TIP3   OH276954   0.577   5.144   1.715 -0.1326  0.1517 -0.1801
18488TIP3    H176955   0.579   5.156   1.620 -2.0431  3.6161  0.0610
18488TIP3    H276956   0.580   5.049   1.727  1.7212 -0.3852 -3.5595
18489TIP3   OH276957   0.107   6.594   4.082  0.5115 -0.1937 -0.2995
18489TIP3    H176958   0.065   6.623   4.163  0.7286  1.7908 -0.8502
18489TIP3    H276959   0.040   6.539   4.040 -0.5577  0.7389  0.1030
18490TIP3   OH276960   3.396   1.239   1.469 -0.4236 -0.5176 -0.1938
18490TIP3    H176961   3.461   1.170   1.457 -0.5953 -0.9328  1.0873
18490TIP3    H276962   3.345   1.239   1.389  2.2330  1.0206 -2.0397
18491TIP3   OH276963   5.034   2.331   2.054 -0.1209  0.1195 -0.3624
18491TIP3    H176964   5.041   2.250   2.106 -1.2264  0.1841 -0.0968
18491TIP3    H276965   5.038   2.301   1.963  1.9775  0.0188 -0.2817
18492TIP3   OH276966   4.883   0.092   1.601  0.5761  0.0548 -0.6307
18492TIP3    H176967   4.838   0.014   1.634  1.4740 -0.3935 -0.4299
18492TIP3    H276968   4.887   0.080   1.506  0.4233  0.0216 -0.6330
18493TIP3   OH276969   6.234   5.909  12.667  0.0394  0.5443 -0.5201
18493TIP3    H176970   6.268   5.882  12.582  0.7934 -3.6937  0.8932
18493TIP3    H276971   6.311   5.916  12.723 -0.6556 -2.3460  1.0284
18494TIP3   OH276972   3.818   1.821   5.530 -0.0198 -0.5277 -0.5849
18494TIP3    H176973   3.770   1.889   5.482 -0.2238 -0.3751 -0.1713
18494TIP3    H276974   3.811   1.848   5.622 -1.4668 -1.9418 -0.2347
18495TIP3   OH276975   5.086   3.710  15.517  0.2906 -0.3163 -0.0402
18495TIP3    H176976   5.014   3.708  15.580 -0.3167  0.8280 -0.6619
18495TIP3    H276977   5.081   3.626  15.472  1.0691 -1.3825  1.7516
18496TIP3   OH276978   1.194   0.603   1.152 -0.3885 -0.5430 -0.2161
18496TIP3    H176979   1.116   0.643   1.189 -2.0742 -2.0158 -1.9567
18496TIP3    H276980   1.249   0.677   1.125 -1.0564  0.5117  1.2078
18497TIP3   OH276981   2.257   4.442   1.550 -0.4855  0.7471 -0.1291
18497TIP3    H176982   2.178   4.436   1.603 -1.2791 -1.3122 -1.4310
18497TIP3    H276983   2.323   4.395   1.601 -1.0950 -0.7208 -0.6275
18498TIP3   OH276984   2.192   5.281  13.894  0.5362 -0.0318 -0.0859
18498TIP3    H176985   2.276   5.251  13.928  1.6869  1.0007 -1.8290
18498TIP3    H276986   2.159   5.209  13.841  0.0939 -0.5955  0.9359
18499TIP3   OH276987   6.452   5.132  12.660 -0.1207 -0.2081 -0.1955
18499TIP3    H176988   6.507   5.173  12.594  1.1028 -0.5224  0.5962
18499TIP3    H276989   6.457   5.038  12.640 -0.8439 -0.2001 -0.4565
18500TIP3   OH276990   1.106   4.064   1.632 -0.0911  0.6941 -0.3150
18500TIP3    H176991   1.161   4.016   1.693 -1.9861 -0.8181  0.3306
18500TIP3    H276992   1.058   3.995   1.585 -0.8513  1.9079 -1.3698
18501TIP3   OH276993   6.747   2.479  11.179  0.2439  0.4381 -0.4676
18501TIP3    H176994   6.708   2.549  11.231 -2.0767 -0.9482 -0.2312
18501TIP3    H276995   6.728   2.503  11.089  0.3743  0.6167 -0.4487
18502TIP3   OH276996   3.348   6.411   1.726 -0.1173 -0.5761 -0.3235
18502TIP3    H176997   3.362   6.505   1.715 -1.1794 -0.2809  0.6998
18502TIP3    H276998   3.417   6.384   1.786  0.5319 -0.5830 -1.0466
18503TIP3   OH276999   2.231   4.508  15.910 -0.0633 -0.3545  0.3232
18503TIP3    H177000   2.239   4.597  15.944  0.7367 -0.0743 -0.5607
18503TIP3    H277001   2.173   4.464  15.973  0.5770  0.4129  1.4931
18504TIP3   OH277002   2.715   3.313   1.417 -0.1675  0.0308 -0.0858
18504TIP3    H177003   2.648   3.261   1.461  0.8014 -0.8333  0.4103
18504TIP3    H277004   2.785   3.251   1.396  0.2267  0.7935 -1.1386
18505TIP3   OH277005   3.749   0.841   4.724  0.3457  0.3879  0.2981
18505TIP3    H177006   3.841   0.830   4.748  0.1365 -0.1021  0.8987
18505TIP3    H277007   3.706   0.867   4.805  0.1058  1.5519 -0.1857
18506TIP3   OH277008   1.868   0.106   1.498  0.1853  0.3488  0.3103
18506TIP3    H177009   1.822   0.047   1.557  0.5958  0.9337  1.2272
18506TIP3    H277010   1.917   0.048   1.439 -0.2559 -0.2344  0.5092
18507TIP3   OH277011   0.293   6.578  11.859 -0.4259 -0.1168  0.2389
18507TIP3    H177012   0.294   6.648  11.924 -1.5717  1.6979 -1.5937
18507TIP3    H277013   0.364   6.519  11.886  1.4138  2.3865  1.1782
18508TIP3   OH277014   2.768   1.917   2.416  0.0621  0.2764 -0.2554
18508TIP3    H177015   2.754   1.920   2.322 -0.9953  1.5160 -0.0871
18508TIP3    H277016   2.862   1.929   2.427  0.3129 -0.7098 -1.1704
18509TIP3   OH277017   1.792   0.001   1.035 -0.5130 -0.0617 -0.5489
18509TIP3    H177018   1.741  -0.031   1.109 -1.9302 -0.1814 -1.5558
18509TIP3    H277019   1.871   0.038   1.075 -0.2678 -1.9973  0.8543
18510TIP3   OH277020   1.203   0.436   5.300  0.2766  0.5610 -0.7221
18510TIP3    H177021   1.231   0.523   5.272  0.5350  1.0018  0.7843
18510TIP3    H277022   1.108   0.441   5.305  0.0434 -0.0979 -3.1949
18511TIP3   OH277023   1.469   2.703  14.507 -0.2516  0.1992  0.1093
18511TIP3    H177024   1.521   2.632  14.470 -0.8472 -0.2906  0.2060
18511TIP3    H277025   1.534   2.765  14.542  0.2638 -0.5921  0.5765
18512TIP3   OH277026   6.430   2.243   6.675  0.6844  0.1999  0.2064
18512TIP3    H177027   6.430   2.151   6.700  1.1959 -0.7138 -2.8120
18512TIP3    H277028   6.349   2.255   6.626  1.7179  0.6520 -1.4989
18513TIP3   OH277029   6.743   0.916  13.888 -0.5181 -0.1690  0.0434
18513TIP3    H177030   6.784   0.831  13.904 -0.4045  0.0627  1.0507
18513TIP3    H277031   6.738   0.923  13.792  1.6316 -0.2756 -0.1224
18514TIP3   OH277032   3.619   0.320   4.432  0.0139  0.3037 -0.8386
18514TIP3    H177033   3.709   0.287   4.427 -1.2811 -3.5664 -3.2887
18514TIP3    H277034   3.577   0.266   4.500 -1.5820 -1.6563 -3.2210
18515TIP3   OH277035   5.712   0.395   1.835  0.3198  0.0996 -0.5265
18515TIP3    H177036   5.758   0.468   1.793 -0.1863  0.8082  0.1287
18515TIP3    H277037   5.630   0.388   1.786  0.6869 -0.5302 -1.0694
18516TIP3   OH277038   2.549   4.955   2.818  0.0835  0.2160  1.1603
18516TIP3    H177039   2.563   4.927   2.908  1.1464  0.4453  1.0737
18516TIP3    H277040   2.555   4.874   2.767  1.6623  0.3570  1.0745
18517TIP3   OH277041   0.410   6.449   1.821  0.3823  0.0918  0.1646
18517TIP3    H177042   0.380   6.454   1.730  1.2200 -1.8745 -0.2748
18517TIP3    H277043   0.476   6.518   1.828  0.3381  0.2386 -0.7199
18518TIP3   OH277044   0.205   4.699  11.146 -0.1653  0.3849 -0.0095
18518TIP3    H177045   0.286   4.686  11.195  0.2984  0.4007 -0.7574
18518TIP3    H277046   0.213   4.787  11.109 -0.3982  0.2800 -0.3164
18519TIP3   OH277047   4.065   6.574  11.707  0.3483  0.3189 -0.2956
18519TIP3    H177048   4.054   6.556  11.614 -0.2257 -0.3419 -0.1040
18519TIP3    H277049   3.981   6.610  11.736  0.3331 -0.0274  0.0961
18520TIP3   OH277050   6.656   6.335   2.797 -0.1849 -0.7415 -0.0241
18520TIP3    H177051   6.727   6.396   2.819 -0.3737 -0.2693 -0.6923
18520TIP3    H277052   6.631   6.359   2.708 -1.3768 -0.7165  0.3036
18521TIP3   OH277053   4.091   6.797  13.235 -0.0599  0.7103 -0.5511
18521TIP3    H177054   4.043   6.835  13.309  1.9340  1.7573  0.2852
18521TIP3    H277055   4.125   6.714  13.270  0.0144  0.7067 -0.6336
18522TIP3   OH277056   6.684   0.497   5.361  0.1394  0.0191 -0.2661
18522TIP3    H177057   6.690   0.407   5.329  0.9435 -0.1073  0.2067
18522TIP3    H277058   6.640   0.545   5.291  1.7949 -0.2548 -1.5446
18523TIP3   OH277059   1.686   1.736   5.215  0.4954  0.3949 -0.5613
18523TIP3    H177060   1.643   1.819   5.232  2.2877  1.1622  0.5001
18523TIP3    H277061   1.624   1.670   5.245  0.7728  1.5074  2.8680
18524TIP3   OH277062   5.916   1.649  12.907 -0.4173 -0.5086 -0.2888
18524TIP3    H177063   5.931   1.740  12.882 -1.5728  1.0566  3.9005
18524TIP3    H277064   6.001   1.606  12.894  1.7200  2.4886  2.1901
18525TIP3   OH277065   5.364   0.620   4.171  0.1556 -0.4119  1.1499
18525TIP3    H177066   5.418   0.550   4.134  1.3861  1.9461 -1.9158
18525TIP3    H277067   5.282   0.616   4.122  0.2509  0.2666  0.9228
18526TIP3   OH277068   4.730   4.937  14.601 -0.1868 -0.0797  0.6014
18526TIP3    H177069   4.634   4.945  14.607 -0.3844 -2.2379  1.0788
18526TIP3    H277070   4.762   5.026  14.615 -2.1680  0.9541 -0.9480
18527TIP3   OH277071   1.326   1.765  16.712 -0.1120 -0.6980  0.6924
18527TIP3    H177072   1.306   1.696  16.649  0.4387 -1.0293  0.8821
18527TIP3    H277073   1.390   1.821  16.668 -1.6194  0.5502 -0.0404
18528TIP3   OH277074   5.501   6.717   2.589  0.1442 -0.1584 -0.5916
18528TIP3    H177075   5.408   6.692   2.588  0.3665 -1.0287 -0.3068
18528TIP3    H277076   5.539   6.669   2.515  0.3217  0.4168 -0.8802
18529TIP3   OH277077   0.738   3.582  16.129  0.2363  0.8920  0.1107
18529TIP3    H177078   0.732   3.662  16.078  2.5118  0.7058 -0.5207
18529TIP3    H277079   0.811   3.596  16.189 -1.4296  0.5297  2.3955
18530TIP3   OH277080   5.189   4.510  11.127 -0.1002 -0.2389  0.1812
18530TIP3    H177081   5.189   4.537  11.219  1.9469  0.9441 -0.1040
18530TIP3    H277082   5.147   4.583  11.081  3.9676  2.0444 -0.3910
18531TIP3   OH277083   4.703   0.696   1.613  0.5837  0.9225  0.3681
18531TIP3    H177084   4.613   0.719   1.635  0.3477 -0.4049  0.8476
18531TIP3    H277085   4.719   0.740   1.529  0.2947  3.0834  1.3608
18532TIP3   OH277086   6.151   0.799  16.109 -0.0236  0.0551 -0.3669
18532TIP3    H177087   6.236   0.756  16.121  0.3655  0.9957  0.4678
18532TIP3    H277088   6.172   0.893  16.109 -1.0519  0.2943 -0.2830
18533TIP3   OH277089   2.023   0.897   1.861 -0.2013  0.2593 -0.3081
18533TIP3    H177090   2.088   0.843   1.907 -1.2490 -1.8838 -1.2118
18533TIP3    H277091   1.948   0.898   1.920 -0.0798  1.0102 -0.1625
18534TIP3   OH277092   6.570   1.702  12.435  0.0164  0.5996 -0.3450
18534TIP3    H177093   6.594   1.774  12.493 -1.0986  1.2885 -0.7170
18534TIP3    H277094   6.502   1.654  12.484 -1.6311  1.7414 -1.4268
18535TIP3   OH277095   5.873   2.865  11.638  0.3879  0.3435 -0.7420
18535TIP3    H177096   5.934   2.793  11.622 -1.1104 -1.2434  0.3170
18535TIP3    H277097   5.930   2.942  11.649  2.0071 -0.5397 -2.3631
18536TIP3   OH277098   0.103   6.373  15.947  0.5032  0.7732  0.6332
18536TIP3    H177099   0.088   6.435  16.019 -2.7549  2.4668 -1.2488
18536TIP3    H277100   0.142   6.426  15.877 -1.5697  0.6356 -0.7244
18537TIP3   OH277101   2.013   6.533   3.635 -0.1980  0.5505 -0.3052
18537TIP3    H177102   1.927   6.571   3.655 -0.3280 -0.6932  1.9030
18537TIP3    H277103   1.993   6.443   3.610  0.4325 -1.8599  5.9252
18538TIP3   OH277104   3.082   3.815   0.840 -0.0832  0.0771 -0.4690
18538TIP3    H177105   3.177   3.810   0.836  0.0087  0.3900  0.9772
18538TIP3    H277106   3.059   3.886   0.779  0.5252 -0.4942 -1.3927
18539TIP3   OH277107   0.633   5.371   0.431  0.3396 -0.5777 -0.6773
18539TIP3    H177108   0.567   5.304   0.415  0.3066 -1.0592  1.2415
18539TIP3    H277109   0.663   5.354   0.520  1.1023  1.3113 -0.5288
18540TIP3   OH277110   1.120   4.817   3.287 -0.4680 -0.7252 -0.4621
18540TIP3    H177111   1.088   4.906   3.301 -1.1580 -1.1310  0.7586
18540TIP3    H277112   1.130   4.781   3.376  0.3543 -1.6762 -0.9118
18541TIP3   OH277113   1.484   0.403   4.801  0.0401  0.4185 -0.0835
18541TIP3    H177114   1.551   0.457   4.843 -0.4012  0.7607  0.1952
18541TIP3    H277115   1.401   0.433   4.840 -0.4118  0.8688 -1.3309
18542TIP3   OH277116   0.651   2.514  12.209 -0.3711 -0.7137 -0.5422
18542TIP3    H177117   0.663   2.440  12.150  0.3143 -1.9010  1.0013
18542TIP3    H277118   0.556   2.524  12.216 -0.4666 -1.2759 -0.9650
18543TIP3   OH277119   0.934   4.619   1.964 -0.2044 -0.3937  0.2230
18543TIP3    H177120   0.987   4.563   1.907 -2.0755 -1.5315 -0.5013
18543TIP3    H277121   0.881   4.558   2.014 -0.7104  0.7045  1.0625
18544TIP3   OH277122   1.053   6.059  14.612 -0.5752 -0.4114  0.3333
18544TIP3    H177123   1.018   6.113  14.683 -4.3990  1.4348 -2.6094
18544TIP3    H277124   1.000   5.979  14.613 -0.2527 -0.6363 -0.0549
18545TIP3   OH277125   4.179   4.072   3.061  0.2407 -0.2582 -0.0673
18545TIP3    H177126   4.179   4.133   3.134 -2.1018 -0.3357  0.0904
18545TIP3    H277127   4.199   4.126   2.985  0.5613  0.2459  0.3681
18546TIP3   OH277128   3.930   5.230  15.726  0.4830 -0.6182  0.1569
18546TIP3    H177129   3.847   5.210  15.682  0.0349  0.0706  0.6693
18546TIP3    H277130   3.969   5.299  15.673 -1.1049  1.8216  1.9752
18547TIP3   OH277131   6.462   0.126   5.860  0.5867  0.0997 -0.0971
18547TIP3    H177132   6.429   0.041   5.830  0.9686 -0.1082  0.0774
18547TIP3    H277133   6.523   0.106   5.930 -0.6094  0.6108  1.1439
18548TIP3   OH277134   5.770   0.944   2.935 -0.4233 -0.3201  0.1817
18548TIP3    H177135   5.688   0.960   2.888 -0.7320  1.1785  1.1620
18548TIP3    H277136   5.836   0.992   2.884 -0.3611 -0.5538  0.0420
18549TIP3   OH277137   6.451   4.835  11.639 -0.4230  0.0507 -0.0996
18549TIP3    H177138   6.470   4.742  11.649 -0.5509  0.0745  0.3960
18549TIP3    H277139   6.425   4.844  11.548  0.6619 -0.2077 -0.4595
18550TIP3   OH277140   3.137   3.182   0.852  0.2942  0.0708 -0.5921
18550TIP3    H177141   3.075   3.243   0.891  1.7427  0.2478  1.6281
18550TIP3    H277142   3.157   3.218   0.766  0.7669  2.5084  0.4780
18551TIP3   OH277143   2.233   5.789   3.173 -0.2227 -0.5646 -0.2188
18551TIP3    H177144   2.218   5.737   3.094  0.7625 -0.4260 -0.5068
18551TIP3    H277145   2.276   5.727   3.234 -0.7680 -0.6078  0.1260
18552TIP3   OH277146   2.745   6.554  12.436 -0.1179 -0.2749 -0.2872
18552TIP3    H177147   2.771   6.463  12.423  0.1319 -0.2205 -0.1662
18552TIP3    H277148   2.821   6.605  12.409  0.9137 -0.1837  2.5445
18553TIP3   OH277149   5.972   6.000   3.609 -0.1473 -0.5495  0.6157
18553TIP3    H177150   5.926   5.975   3.689 -0.2240  0.4895  0.9145
18553TIP3    H277151   6.034   6.068   3.636  0.4255 -0.7813 -0.0623
18554TIP3   OH277152   2.673   0.437   2.088  0.2752  0.1196  0.1633
18554TIP3    H177153   2.693   0.359   2.139 -0.4115 -0.9237 -1.0800
18554TIP3    H277154   2.597   0.476   2.130 -0.4108 -0.8442 -0.1609
18555TIP3   OH277155   1.512   5.591  12.121  0.1081 -1.0178  0.5889
18555TIP3    H177156   1.556   5.640  12.191  1.5998 -0.4866 -0.6723
18555TIP3    H277157   1.575   5.523  12.096  0.5494  0.1277 -1.6676
18556TIP3   OH277158   1.242   0.175   5.722 -0.0902  0.2804  0.2454
18556TIP3    H177159   1.316   0.116   5.708  1.6241  2.2537  0.4671
18556TIP3    H277160   1.195   0.138   5.797  1.3131 -0.4173  0.8128
18557TIP3   OH277161   1.839   2.016  12.011  0.5156 -0.0805  0.3259
18557TIP3    H177162   1.781   1.961  11.959  1.1352 -0.0332 -0.4381
18557TIP3    H277163   1.882   1.955  12.071 -0.4236 -0.0912  1.0064
18558TIP3   OH277164   5.427   6.398  12.358 -0.0210  0.4714  0.0193
18558TIP3    H177165   5.435   6.381  12.264 -0.1468 -0.5874  0.1844
18558TIP3    H277166   5.356   6.339  12.386  0.6343  0.1033  0.9396
18559TIP3   OH277167   5.919   1.405   3.814 -1.1802  0.0451  0.0914
18559TIP3    H177168   5.976   1.397   3.737  0.4742 -3.1124  1.4627
18559TIP3    H277169   5.830   1.398   3.778 -0.6970  2.5401 -1.8459
18560TIP3   OH277170   2.773   2.385   4.084 -0.1293 -0.1240  0.0853
18560TIP3    H177171   2.820   2.329   4.145  0.4267  0.8448  0.5827
18560TIP3    H277172   2.693   2.410   4.130  0.7628  1.4344  0.8921
18561TIP3   OH277173   3.745   0.659  13.474  0.2443  0.0481 -0.0761
18561TIP3    H177174   3.766   0.723  13.406  0.4952 -1.6597 -1.6811
18561TIP3    H277175   3.819   0.598  13.473 -0.9625 -1.4695 -0.1206
18562TIP3   OH277176   2.133   6.713  14.709 -0.0347 -0.6948  0.1530
18562TIP3    H177177   2.175   6.724  14.794  1.4318  0.7059 -0.7213
18562TIP3    H277178   2.170   6.631  14.674 -0.2419 -0.9914  0.6208
18563TIP3   OH277179   6.775   3.202  16.282  0.5154  0.3384  0.1038
18563TIP3    H177180   6.853   3.147  16.279  0.1592 -0.2274  0.9178
18563TIP3    H277181   6.714   3.162  16.220  0.0218 -0.5926  1.1412
18564TIP3   OH277182   1.497   0.440   3.792  0.8315  0.4250 -0.7046
18564TIP3    H177183   1.501   0.447   3.888  0.3916 -1.5298 -0.4927
18564TIP3    H277184   1.415   0.482   3.768 -1.4805 -3.0117  0.3689
18565TIP3   OH277185   3.215   1.093  16.976  0.3316  0.0021  0.1574
18565TIP3    H177186   3.161   1.053  16.907  1.0483 -0.6287 -0.0465
18565TIP3    H277187   3.213   1.187  16.956 -1.0405  0.0491  0.4064
18566TIP3   OH277188   4.527   5.765  11.166  0.2042 -0.9687  0.3241
18566TIP3    H177189   4.450   5.811  11.198  1.5349  0.1914  2.0487
18566TIP3    H277190   4.558   5.714  11.241  2.5188  0.5948  0.5425
18567TIP3   OH277191   0.732   4.321  12.150 -0.1472 -0.1200 -0.1582
18567TIP3    H177192   0.708   4.246  12.095  0.3314  0.2653 -0.9062
18567TIP3    H277193   0.707   4.398  12.099  0.8761  0.2548 -0.1302
18568TIP3   OH277194   1.835   0.189   0.820  0.0396  0.2489  0.4560
18568TIP3    H177195   1.863   0.101   0.794 -1.7394 -0.6977  1.4534
18568TIP3    H277196   1.839   0.187   0.916  0.8920  1.6097  0.4672
18569TIP3   OH277197   5.425   5.778  11.860  0.3021 -0.0581 -0.5069
18569TIP3    H177198   5.370   5.774  11.939  0.9380 -3.7430 -0.1024
18569TIP3    H277199   5.509   5.744  11.888  0.9577 -0.2100 -2.5246
18570TIP3   OH277200   2.203   0.992  14.284  0.0055  0.4374  0.4602
18570TIP3    H177201   2.298   0.985  14.289  0.0926  1.1217 -0.1458
18570TIP3    H277202   2.179   1.051  14.356  0.0254  0.2294  0.6414
18571TIP3   OH277203   2.980   0.797   3.350  0.3835 -0.2301  0.0065
18571TIP3    H177204   3.049   0.848   3.391 -0.5654  0.4754  0.7647
18571TIP3    H277205   3.015   0.774   3.263  1.3925  0.4463  0.2232
18572TIP3   OH277206   3.161   6.077   4.325  0.5731  0.1909  0.2400
18572TIP3    H177207   3.149   6.069   4.231  2.0586  0.2856  0.0241
18572TIP3    H277208   3.168   5.987   4.357 -0.8323  0.1191  0.4138
18573TIP3   OH277209   3.526   5.500  10.662  0.3150 -0.7289  0.0291
18573TIP3    H177210   3.435   5.473  10.651  0.6798 -1.7486 -0.5816
18573TIP3    H277211   3.576   5.419  10.659  1.2831 -0.1479 -0.0087
18574TIP3   OH277212   1.347   6.737  11.747 -0.5016  0.0876 -0.0630
18574TIP3    H177213   1.401   6.663  11.773  0.0444  0.5577  0.1684
18574TIP3    H277214   1.305   6.766  11.828 -2.2092 -1.1189 -0.4552
18575TIP3   OH277215   5.669   1.545   2.085  0.0579  0.0270  0.1004
18575TIP3    H177216   5.637   1.566   2.172  0.9680 -0.4967  0.5778
18575TIP3    H277217   5.689   1.451   2.089 -0.1543 -0.0623 -0.7542
18576TIP3   OH277218   5.231   1.542  16.770 -0.0117 -0.5934 -0.1656
18576TIP3    H177219   5.210   1.635  16.764  0.7713 -0.3499  0.6780
18576TIP3    H277220   5.326   1.538  16.776  0.0597 -1.5347 -1.4237
18577TIP3   OH277221   4.203   1.807   6.495  0.2532 -0.6843  0.0318
18577TIP3    H177222   4.137   1.746   6.463  0.2935 -0.8882  0.3342
18577TIP3    H277223   4.245   1.841   6.416 -0.2986 -0.4570 -0.1696
18578TIP3   OH277224   3.103   2.229  16.643 -0.0431  0.3030 -0.2728
18578TIP3    H177225   3.160   2.290  16.690 -0.8103  0.8720 -0.0629
18578TIP3    H277226   3.161   2.158  16.617  0.3021 -0.3639  2.0938
18579TIP3   OH277227   2.705   5.327  13.855 -0.3259 -0.1196 -0.4811
18579TIP3    H177228   2.736   5.324  13.764  1.3576 -0.2997  0.0602
18579TIP3    H277229   2.714   5.419  13.880 -0.3790 -0.1454 -0.3659
18580TIP3   OH277230   0.919   4.715  11.322  0.5375  0.4021  0.1565
18580TIP3    H177231   0.966   4.791  11.356  2.0678 -1.0326  1.4512
18580TIP3    H277232   0.861   4.751  11.255  1.7081  2.6058  0.2131
18581TIP3   OH277233   4.549   2.216   1.814 -0.0303 -0.9384 -0.6695
18581TIP3    H177234   4.469   2.218   1.761  0.2259 -0.2046 -1.0481
18581TIP3    H277235   4.611   2.270   1.765 -0.1246  0.6790  0.9323
18582TIP3   OH277236   5.864   0.695   4.228 -0.1232  0.7184  0.0307
18582TIP3    H177237   5.769   0.706   4.224  0.0253  1.6270 -1.6409
18582TIP3    H277238   5.898   0.785   4.226  0.7756  0.4135  0.8963
18583TIP3   OH277239   1.825   5.614  16.311 -0.2382  0.7270  0.4584
18583TIP3    H177240   1.782   5.687  16.266  0.9216  1.2963  0.2152
18583TIP3    H277241   1.915   5.615  16.276  0.0593 -0.2141  1.1721
18584TIP3   OH277242   2.338   2.117   2.362 -0.0230  0.8770 -0.1676
18584TIP3    H177243   2.279   2.051   2.324  2.7414 -2.0505  0.1859
18584TIP3    H277244   2.411   2.122   2.301  0.7044  2.2881  0.7617
18585TIP3   OH277245   2.606   3.281  16.446 -0.0797  0.0282 -0.4298
18585TIP3    H177246   2.513   3.264  16.458 -0.2754  0.3474 -1.4065
18585TIP3    H277247   2.650   3.201  16.475 -0.5578  0.3472  1.2770
18586TIP3   OH277248   2.299   5.742  12.015 -0.0045  0.0586  0.0696
18586TIP3    H177249   2.267   5.832  12.019  0.6185  0.2766  0.3207
18586TIP3    H277250   2.328   5.732  11.924 -1.5461 -0.4196 -0.3871
18587TIP3   OH277251   5.656   5.322  11.980 -0.3203 -0.3855  0.0706
18587TIP3    H177252   5.573   5.328  11.932  0.1940 -3.1178 -1.3850
18587TIP3    H277253   5.696   5.408  11.969 -2.1345  0.4130 -0.7813
18588TIP3   OH277254   4.560   1.223  17.214 -0.1083 -0.2688  0.2331
18588TIP3    H177255   4.634   1.282  17.225 -0.6790  0.3838  0.7306
18588TIP3    H277256   4.573   1.156  17.280  1.2967 -1.5479 -1.2591
18589TIP3   OH277257   4.342   1.949   3.152  0.3563 -1.0561 -0.4329
18589TIP3    H177258   4.402   1.885   3.114  2.3239 -0.1883  1.0300
18589TIP3    H277259   4.399   2.013   3.194 -1.5979  0.5246 -0.0426
18590TIP3   OH277260   1.645   2.329   3.521  0.0761 -0.5049 -0.0357
18590TIP3    H177261   1.735   2.336   3.488  1.0691 -0.3928  2.5035
18590TIP3    H277262   1.606   2.260   3.468  1.6945 -0.6636 -1.1138
18591TIP3   OH277263   1.278   4.737   5.123  0.0717 -0.2223  0.4394
18591TIP3    H177264   1.372   4.722   5.116  0.1787  1.1137 -3.1083
18591TIP3    H277265   1.242   4.652   5.149  2.0736 -1.4891 -0.6576
18592TIP3   OH277266   5.752   5.722  16.845  0.1727  0.0719  0.0854
18592TIP3    H177267   5.793   5.705  16.930  0.1280 -1.4083 -0.1630
18592TIP3    H277268   5.822   5.707  16.781 -0.6481 -2.5206 -0.3477
18593TIP3   OH277269   2.769   1.464  12.054  0.8192 -0.2348 -0.3487
18593TIP3    H177270   2.676   1.455  12.033  0.6353 -1.9505  0.9758
18593TIP3    H277271   2.777   1.425  12.141  2.9860 -1.1898 -0.9239
18594TIP3   OH277272   1.184   4.318   2.007 -1.3302  0.0440  0.3330
18594TIP3    H177273   1.268   4.275   2.017 -0.3106  1.8884  0.0410
18594TIP3    H277274   1.176   4.375   2.083 -1.1604  1.6783 -0.8162
18595TIP3   OH277275   1.828   4.827  15.582  0.4324 -0.3611  0.3881
18595TIP3    H177276   1.878   4.782  15.513 -0.4225  2.6749 -2.4886
18595TIP3    H277277   1.737   4.821  15.553  0.1381  1.7169  0.7248
18596TIP3   OH277278   4.759   6.163  17.198  0.1449  0.1521 -0.3884
18596TIP3    H177279   4.727   6.102  17.265 -0.1242 -0.3129 -0.9287
18596TIP3    H277280   4.853   6.167  17.212  0.1229 -0.1448 -0.1418
18597TIP3   OH277281   2.877   3.249   2.325 -0.4232  0.9701  0.0255
18597TIP3    H177282   2.829   3.304   2.263  0.6554  1.0943 -0.7348
18597TIP3    H277283   2.842   3.161   2.311 -0.2058  0.9976 -0.7869
18598TIP3   OH277284   4.789   3.285   2.843  0.2369  0.3365 -0.0075
18598TIP3    H177285   4.713   3.247   2.798 -0.1217  0.7799  0.2021
18598TIP3    H277286   4.780   3.256   2.933  0.8631 -0.4154 -0.1825
18599TIP3   OH277287   6.795   2.982   3.649  0.0886 -0.4142  0.6923
18599TIP3    H177288   6.790   3.051   3.584 -0.5797 -0.5705  0.5657
18599TIP3    H277289   6.713   2.990   3.699  0.2805 -0.7279  1.0637
18600TIP3   OH277290   5.075   6.307   0.933  0.0632 -0.2270 -0.3612
18600TIP3    H177291   5.074   6.310   1.029  0.3167 -1.7442 -0.2936
18600TIP3    H277292   5.084   6.399   0.907 -0.1089  0.2247  1.0568
18601TIP3   OH277293   5.369   5.861   5.394 -0.3179  0.0861 -0.3526
18601TIP3    H177294   5.417   5.781   5.415 -1.4274 -0.6778 -0.6186
18601TIP3    H277295   5.405   5.927   5.452  0.4968 -0.6438 -0.0008
18602TIP3   OH277296   5.248   4.322   5.202 -0.0333  0.8445  0.0213
18602TIP3    H177297   5.317   4.271   5.160 -1.7621  0.7459 -2.9459
18602TIP3    H277298   5.244   4.403   5.152 -2.8585  0.3102 -0.7827
18603TIP3   OH277299   3.288   4.310  12.479  0.2300 -0.4320 -0.1964
18603TIP3    H177300   3.356   4.336  12.542 -2.1018  3.6105  1.0785
18603TIP3    H277301   3.227   4.257  12.530 -0.2767  0.5693  0.2772
18604TIP3   OH277302   0.284   1.789  14.907 -0.5317  0.1587 -0.3422
18604TIP3    H177303   0.376   1.809  14.894 -0.6341  2.4086  1.5972
18604TIP3    H277304   0.240   1.827  14.831  0.0081  0.5833 -0.4479
18605TIP3   OH277305   0.612   5.363  16.864 -0.2399 -0.2286 -0.5694
18605TIP3    H177306   0.542   5.423  16.837  1.1600  0.7767 -2.2319
18605TIP3    H277307   0.692   5.402  16.826  1.0862 -1.8195  0.4616
18606TIP3   OH277308   1.086   1.672   2.162  0.3032  0.3725  0.2212
18606TIP3    H177309   1.027   1.607   2.200 -0.8926 -0.0621 -2.2402
18606TIP3    H277310   1.173   1.645   2.192 -0.4264 -0.8018  1.3851
18607TIP3   OH277311   1.285   4.665   0.360 -0.0922 -0.0793  0.0584
18607TIP3    H177312   1.322   4.700   0.279 -0.4819 -1.0241 -0.5598
18607TIP3    H277313   1.262   4.741   0.412  0.3428  0.5434 -0.6462
18608TIP3   OH277314   6.491   6.103  10.466  0.6503 -0.2595 -0.3738
18608TIP3    H177315   6.499   6.134  10.557 -2.1227 -0.6389  0.0869
18608TIP3    H277316   6.564   6.145  10.420  1.5759  0.6998  1.8207
18609TIP3   OH277317   1.016   3.489   2.564 -0.2059 -0.2897  0.0185
18609TIP3    H177318   0.962   3.521   2.636  0.1280 -1.4942  0.8461
18609TIP3    H277319   0.959   3.429   2.516  0.2075 -1.1923  0.6111
18610TIP3   OH277320   2.367   5.505  12.160  0.4617  0.2958 -0.4198
18610TIP3    H177321   2.435   5.473  12.101  0.1767  0.5275 -0.8795
18610TIP3    H277322   2.330   5.581  12.116  0.8171  0.9965  0.4505
18611TIP3   OH277323   2.834   3.508   2.230 -0.2675 -0.3629 -0.2281
18611TIP3    H177324   2.870   3.587   2.189 -2.5294  0.2020 -1.2815
18611TIP3    H277325   2.739   3.522   2.231 -0.5936 -2.1341  1.5927
18612TIP3   OH277326   2.382   6.177   0.017 -0.2185  0.5996  0.2834
18612TIP3    H177327   2.325   6.152  -0.056 -0.5455 -0.1368  0.7875
18612TIP3    H277328   2.338   6.144   0.095  0.7988  0.1779  0.7017
18613TIP3   OH277329   1.039   5.546  15.664  0.3989 -0.6195  0.1906
18613TIP3    H177330   0.986   5.598  15.603 -0.7070 -0.8185  0.9579
18613TIP3    H277331   0.976   5.512  15.728  1.4258 -1.0261  1.0165
18614TIP3   OH277332   3.962   5.860   1.635 -0.2444  0.2957  0.4611
18614TIP3    H177333   3.964   5.921   1.709  0.8195  0.8884 -0.0359
18614TIP3    H277334   4.003   5.781   1.668 -0.2361  0.3798  0.6574
18615TIP3   OH277335   2.596   5.922  11.744 -0.1100  0.0592 -0.2052
18615TIP3    H177336   2.682   5.907  11.705 -0.5514 -0.1018 -1.1350
18615TIP3    H277337   2.584   6.017  11.739  0.5081  0.2263  1.0257
18616TIP3   OH277338   4.062   6.018  11.456  0.2275  0.0308  0.2742
18616TIP3    H177339   4.131   6.082  11.440  0.3570  0.2666  1.6356
18616TIP3    H277340   4.096   5.964  11.528  0.5461 -2.2100 -1.4558
18617TIP3   OH277341   3.030   6.473  14.964  0.2333  0.0812  0.4305
18617TIP3    H177342   3.020   6.405  14.897 -0.4510  1.7224 -1.1951
18617TIP3    H277343   3.125   6.483  14.973  0.3819 -1.5840  1.2920
18618TIP3   OH277344   0.525   4.440   4.013 -0.3729  0.5963 -0.2993
18618TIP3    H177345   0.500   4.501   3.943  0.4931  2.3157  0.8192
18618TIP3    H277346   0.620   4.452   4.023 -0.4090  0.0705  0.8721
18619TIP3   OH277347   0.868   2.179  15.634 -0.4964  0.0927 -0.3063
18619TIP3    H177348   0.908   2.266  15.634  0.2369 -0.2401  0.2898
18619TIP3    H277349   0.850   2.160  15.726  0.6905 -0.9895 -0.2677
18620TIP3   OH277350   5.035   5.994   0.755 -0.0081  0.1692 -0.2339
18620TIP3    H177351   4.964   5.935   0.729  0.3420 -0.2422 -0.2663
18620TIP3    H277352   5.051   5.973   0.847 -0.2705  0.6175 -0.0838
18621TIP3   OH277353   3.537   0.547  11.825 -0.8563 -1.0421 -0.3666
18621TIP3    H177354   3.567   0.522  11.913 -1.0035 -3.4579 -0.9398
18621TIP3    H277355   3.567   0.638  11.815 -0.4586 -0.8352  1.9922
18622TIP3   OH277356   3.548   0.354  14.336  0.2766 -0.0495  0.2110
18622TIP3    H177357   3.611   0.412  14.378  0.2223 -0.6457  1.1296
18622TIP3    H277358   3.520   0.294  14.405  0.5576 -1.3659 -0.7796
18623TIP3   OH277359   4.442   0.942  14.675 -0.1792  0.1878  0.5176
18623TIP3    H177360   4.417   0.985  14.757 -1.0066 -0.5136  0.6515
18623TIP3    H277361   4.376   0.874  14.662  0.9013 -0.8471  0.1617
18624TIP3   OH277362   0.036   2.672  15.729 -0.4083 -0.1502  0.0777
18624TIP3    H177363   0.012   2.624  15.649 -0.9535 -2.9837  1.7899
18624TIP3    H277364   0.126   2.645  15.747 -0.4179  0.1607  0.6077
18625TIP3   OH277365   0.499   6.108  13.930 -0.4751 -0.0244  0.3742
18625TIP3    H177366   0.525   6.082  13.842  0.1804 -2.2840  1.1748
18625TIP3    H277367   0.489   6.026  13.978  1.5785  1.1227  3.0746
18626TIP3   OH277368   5.719   0.304  11.438 -0.0574 -0.3511  0.0938
18626TIP3    H177369   5.643   0.305  11.496  1.5358  2.6059  2.4656
18626TIP3    H277370   5.768   0.226  11.464 -1.3372 -1.2799 -0.1974
18627TIP3   OH277371   1.399   5.723  14.687 -0.5044 -0.0842 -0.0027
18627TIP3    H177372   1.316   5.708  14.642 -0.0929  0.4386 -0.9556
18627TIP3    H277373   1.385   5.687  14.775 -1.3232 -1.1145 -0.5302
18628TIP3   OH277374   0.513   2.329  13.650  0.3094  0.2108 -0.0452
18628TIP3    H177375   0.447   2.308  13.583  0.8899  0.0101 -0.5589
18628TIP3    H277376   0.562   2.247  13.661 -1.1338 -0.4330  2.2044
18629TIP3   OH277377   2.578   6.584  15.243  0.6487  0.3134  0.4753
18629TIP3    H177378   2.521   6.595  15.319  0.9122  1.1954  0.5624
18629TIP3    H277379   2.563   6.494  15.213  1.7127 -0.6029  2.5132
18630TIP3   OH277380   0.215   2.885  16.563 -0.3550 -0.7924  0.0155
18630TIP3    H177381   0.143   2.850  16.616 -0.4399  2.8665  2.6967
18630TIP3    H277382   0.171   2.925  16.487 -0.8952 -0.8135  0.3092
18631TIP3   OH277383   5.582   3.138   2.036 -0.2025  0.4825 -0.0337
18631TIP3    H177384   5.625   3.197   2.097  0.4195 -1.2431  1.2803
18631TIP3    H277385   5.626   3.153   1.952 -0.1901  1.9620  0.2118
18632TIP3   OH277386   1.958   3.096  11.074  0.3890  0.4189 -0.0022
18632TIP3    H177387   2.042   3.056  11.095 -0.6727 -0.9012  2.0253
18632TIP3    H277388   1.953   3.091  10.978  2.2815 -0.1016 -0.1240
18633TIP3   OH277389   2.019   0.716  15.672 -0.0926  0.6114  0.4461
18633TIP3    H177390   1.975   0.740  15.591 -0.5638  2.2443  1.1456
18633TIP3    H277391   2.061   0.632  15.653  1.3557  1.7976 -2.0703
18634TIP3   OH277392   6.727   5.920   3.180 -0.2612  0.3354  0.4097
18634TIP3    H177393   6.643   5.896   3.218 -0.1611  1.0147  1.0893
18634TIP3    H277394   6.714   5.914   3.085  0.0323 -3.2461  0.4915
18635TIP3   OH277395   5.852   4.424  11.493  0.0817 -0.0561 -0.4658
18635TIP3    H177396   5.947   4.409  11.490  0.3068  0.6082  1.4676
18635TIP3    H277397   5.814   4.348  11.449  1.4445 -2.0890  1.6286
18636TIP3   OH277398   3.644   3.622  16.728  0.3549  0.1043  0.7990
18636TIP3    H177399   3.679   3.568  16.799  0.9777  1.2393  1.3871
18636TIP3    H277400   3.707   3.695  16.720 -0.4998  0.7850  0.0949
18637TIP3   OH277401   5.502   1.909   2.400 -0.4791  0.5050  0.0138
18637TIP3    H177402   5.426   1.850   2.400 -0.3168  0.2570  1.2375
18637TIP3    H277403   5.546   1.892   2.317 -1.6978  0.5767 -0.6784
18638TIP3   OH277404   6.472   5.533   4.686 -0.2870 -0.3813 -0.2732
18638TIP3    H177405   6.379   5.526   4.708 -0.4116 -0.7357 -0.8871
18638TIP3    H277406   6.481   5.487   4.602  0.4940 -0.5953 -0.0834
18639TIP3   OH277407   4.860   5.427  16.468  0.2251  0.5189 -0.0780
18639TIP3    H177408   4.857   5.336  16.500 -0.0144  0.8541  0.8930
18639TIP3    H277409   4.935   5.429  16.408 -0.0603 -0.4361 -0.4897
18640TIP3   OH277410   6.026   1.007  10.573 -0.4572  0.5797  0.0854
18640TIP3    H177411   6.082   0.935  10.601  0.1562  1.0481  0.0912
18640TIP3    H277412   6.046   1.078  10.635 -1.8527  0.4186  0.7756
18641TIP3   OH277413   4.822   1.873   4.686 -0.0680  0.6787 -0.4752
18641TIP3    H177414   4.906   1.829   4.702 -0.5766 -0.0405  0.3223
18641TIP3    H277415   4.810   1.867   4.591  0.2574 -0.2403 -0.4749
18642TIP3   OH277416   3.704   4.305  15.806  0.7958 -0.1727  0.4321
18642TIP3    H177417   3.650   4.272  15.734  0.9512  1.5658 -0.5474
18642TIP3    H277418   3.642   4.335  15.872  0.6190 -0.2475  0.3012
18643TIP3   OH277419   4.866   0.448  13.689 -0.3570 -0.0744 -0.2927
18643TIP3    H177420   4.915   0.527  13.712 -0.3673  0.0983 -0.8319
18643TIP3    H277421   4.910   0.377  13.737  0.4680  0.0735 -0.8082
18644TIP3   OH277422   6.181   6.596  15.387  0.3008  0.7563  0.0565
18644TIP3    H177423   6.135   6.653  15.449  0.5919  1.4110 -0.3210
18644TIP3    H277424   6.256   6.647  15.359  0.2294  0.4226 -0.7680
18645TIP3   OH277425   0.675   2.957   5.160 -0.1763  0.2523  0.1629
18645TIP3    H177426   0.583   2.931   5.157 -0.2358  0.5445 -0.9779
18645TIP3    H277427   0.674   3.048   5.189 -0.1696 -0.0567  1.1605
18646TIP3   OH277428   1.797   6.626  13.810 -0.1201  0.0041 -0.2015
18646TIP3    H177429   1.706   6.654  13.809  0.0526  0.7071  1.2702
18646TIP3    H277430   1.827   6.636  13.720 -0.8072  2.1088 -0.2417
18647TIP3   OH277431   5.278   3.361  12.518 -0.4320  0.6033  0.3327
18647TIP3    H177432   5.345   3.321  12.573 -1.6085 -0.5421  0.9676
18647TIP3    H277433   5.325   3.428  12.468  1.3143 -0.6742  0.2107
18648TIP3   OH277434   4.282   3.946  12.718  0.1307  0.5834 -0.2928
18648TIP3    H177435   4.192   3.925  12.694 -0.1371 -1.1297  1.8735
18648TIP3    H277436   4.286   4.042  12.715 -2.2913  0.8048  1.1728
18649TIP3   OH277437   2.865   0.937   1.475 -0.4721 -0.5561  0.4174
18649TIP3    H177438   2.797   0.891   1.426  1.1270 -1.0443 -1.5063
18649TIP3    H277439   2.946   0.915   1.429  0.8566  0.9055  1.9226
18650TIP3   OH277440   4.690   5.175  15.343  0.1590 -0.3135  0.5417
18650TIP3    H177441   4.616   5.158  15.401 -1.1284  1.3785 -0.5412
18650TIP3    H277442   4.761   5.123  15.380 -1.6724 -2.4167  1.3219
18651TIP3   OH277443   5.197   4.240  13.725  0.4221  0.0449  0.4616
18651TIP3    H177444   5.287   4.208  13.736  1.0127  0.9946 -1.1691
18651TIP3    H277445   5.188   4.307  13.793  1.7205  1.3946 -0.6184
18652TIP3   OH277446   4.788   0.325   0.918 -0.2317  0.1170 -0.5908
18652TIP3    H177447   4.697   0.327   0.947  0.3832 -1.5901  1.8073
18652TIP3    H277448   4.825   0.407   0.952 -0.4854  0.0086 -0.0338
18653TIP3   OH277449   3.111   5.013   6.168  0.1533  0.1926  0.1301
18653TIP3    H177450   3.064   5.074   6.224  1.6004  1.3500  0.1322
18653TIP3    H277451   3.190   5.060   6.142  0.1575 -0.7939 -1.8322
18654TIP3   OH277452   4.509   1.987   4.008 -0.3978 -0.0189  0.0156
18654TIP3    H177453   4.455   1.913   3.979  0.5411 -0.1713 -1.4747
18654TIP3    H277454   4.479   2.061   3.956 -0.5791  0.4090  0.7111
18655TIP3   OH277455   5.332   2.282  15.055  0.0527  0.5205  0.2165
18655TIP3    H177456   5.363   2.201  15.015  1.2461  1.2908 -0.4552
18655TIP3    H277457   5.265   2.314  14.994 -1.0251 -0.3445  0.8937
18656TIP3   OH277458   1.962   1.396  13.372  1.2270 -0.5638  0.2465
18656TIP3    H177459   2.028   1.459  13.343  0.8375 -0.1730  0.2029
18656TIP3    H277460   1.992   1.312  13.336  0.5116 -0.0187 -1.7527
18657TIP3   OH277461   0.060   5.026   0.757 -0.3197 -0.1114  0.3894
18657TIP3    H177462   0.081   4.992   0.670  0.1748  0.6826  0.1890
18657TIP3    H277463   0.016   4.954   0.801  0.7003 -1.0139 -0.0242
18658TIP3   OH277464   6.297   6.154  11.044 -0.6909 -0.1351  0.1859
18658TIP3    H177465   6.292   6.060  11.061  0.1808 -0.0819  0.8041
18658TIP3    H277466   6.211   6.177  11.009 -0.3521 -1.4896 -1.6583
18659TIP3   OH277467   3.302   3.286   2.324  0.4865 -0.1190 -0.4660
18659TIP3    H177468   3.383   3.253   2.362 -0.0569 -0.8240  0.1194
18659TIP3    H277469   3.256   3.207   2.294 -0.7098  0.1006  0.6933
18660TIP3   OH277470   1.757   4.012   3.199  0.7672 -0.3591 -0.0323
18660TIP3    H177471   1.821   3.942   3.187 -0.4742 -1.2739 -1.8098
18660TIP3    H277472   1.801   4.076   3.255  2.8282 -1.4109 -0.3621
18661TIP3   OH277473   6.445   6.566   3.335  0.4382  0.3006 -0.6012
18661TIP3    H177474   6.447   6.639   3.273  2.3038  0.8425  0.0262
18661TIP3    H277475   6.352   6.551   3.351 -0.0543  3.5685  0.4124
18662TIP3   OH277476   2.093   4.217   6.116 -0.1031  0.4570 -0.4099
18662TIP3    H177477   2.150   4.161   6.064 -1.5324 -0.0727 -1.4797
18662TIP3    H277478   2.151   4.283   6.153  1.2911 -0.4611 -0.8772
18663TIP3   OH277479   4.022   0.965   5.489  0.3611 -0.3234 -0.2910
18663TIP3    H177480   4.058   0.944   5.403 -1.0249 -2.3856 -0.4433
18663TIP3    H277481   3.972   1.046   5.475  1.8191  0.5107 -0.8970
18664TIP3   OH277482   1.818   1.971   2.783  0.1899  0.8582 -0.5706
18664TIP3    H177483   1.885   2.002   2.723  1.0883 -0.6478 -0.4100
18664TIP3    H277484   1.856   1.893   2.823 -1.3941  0.3494  0.0338
18665TIP3   OH277485   3.788   0.797  12.932  0.3573  0.2287  0.0833
18665TIP3    H177486   3.808   0.711  12.895 -1.1453  0.0826 -0.4257
18665TIP3    H277487   3.824   0.793  13.021  0.6865 -0.7715 -0.0810
18666TIP3   OH277488   1.618   0.172  10.328 -0.1042 -0.1764  0.1109
18666TIP3    H177489   1.584   0.236  10.391 -0.4400 -1.4626  1.2814
18666TIP3    H277490   1.540   0.143  10.280 -0.2857 -1.1219  0.9350
18667TIP3   OH277491   3.572   5.521  15.285  0.5802  0.1440 -0.0102
18667TIP3    H177492   3.504   5.458  15.309 -0.8493  1.5787 -0.0547
18667TIP3    H277493   3.632   5.473  15.229 -0.8693 -0.9883 -0.6581
18668TIP3   OH277494   2.898   2.690   2.662  0.3028 -0.1385 -0.2192
18668TIP3    H177495   2.859   2.778   2.666 -1.6209 -0.9433 -0.0636
18668TIP3    H277496   2.869   2.655   2.578  1.3281 -0.5314 -0.4266
18669TIP3   OH277497   5.752   2.169   4.483 -0.0224  0.8934 -0.0628
18669TIP3    H177498   5.688   2.225   4.439 -2.6018  0.0291  2.3060
18669TIP3    H277499   5.786   2.222   4.555  0.5786  0.7132 -0.1999
18670TIP3   OH277500   0.351   2.978   2.271  0.1699 -0.0575 -0.0815
18670TIP3    H177501   0.429   3.012   2.316 -0.0267 -0.6836  0.7680
18670TIP3    H277502   0.340   2.890   2.307  0.8669 -1.1766 -2.4597
18671TIP3   OH277503   2.337   0.274  15.458 -0.5486 -0.1266  0.2336
18671TIP3    H177504   2.312   0.325  15.535 -1.7621 -1.6481  0.8939
18671TIP3    H277505   2.431   0.291  15.447 -0.7580  1.6696  0.8265
18672TIP3   OH277506   1.453   0.829   6.265 -0.5597  0.0551  0.2994
18672TIP3    H177507   1.361   0.851   6.256 -0.7760  0.9252  3.3157
18672TIP3    H277508   1.454   0.736   6.288 -0.8291  0.2599  1.2160
18673TIP3   OH277509   6.568   3.278  14.234 -1.1004  0.1262  0.2175
18673TIP3    H177510   6.615   3.357  14.263 -1.1203 -0.0152  0.6418
18673TIP3    H277511   6.637   3.220  14.202 -1.0376  0.1370  0.3301
18674TIP3   OH277512   0.209   2.847   3.662  0.0913  0.0250  0.2852
18674TIP3    H177513   0.218   2.843   3.567 -1.7599  0.0477  0.0711
18674TIP3    H277514   0.118   2.873   3.676 -0.2056 -1.7936  2.0816
18675TIP3   OH277515   1.056   4.726  12.448 -0.1023 -0.7809 -0.0170
18675TIP3    H177516   1.040   4.711  12.541 -1.0693 -2.3627 -0.4002
18675TIP3    H277517   0.985   4.680  12.404  0.6731 -0.5666 -1.5603
18676TIP3   OH277518   2.911   0.504  16.497  0.5800  0.0765 -0.3898
18676TIP3    H177519   2.823   0.515  16.532  0.8330  0.5390  0.1137
18676TIP3    H277520   2.962   0.469  16.570  1.4784  2.5241  0.2537
18677TIP3   OH277521   2.714   6.067  16.194 -0.0265 -0.2457  0.2189
18677TIP3    H177522   2.643   6.087  16.255 -0.8366  0.4617 -0.9187
18677TIP3    H277523   2.682   6.096  16.109  1.0949 -1.1727 -0.5507
18678TIP3   OH277524   1.262   0.093   2.830  0.3455 -0.3002  0.3492
18678TIP3    H177525   1.294   0.003   2.823  2.4636  0.3652  0.7827
18678TIP3    H277526   1.281   0.132   2.744  0.3657  0.0155  0.4952
18679TIP3   OH277527   1.740   0.453   4.571  0.3675  0.3273  0.3906
18679TIP3    H177528   1.756   0.380   4.631  2.4517  0.1710 -0.2971
18679TIP3    H277529   1.790   0.526   4.609  0.1273  0.7693 -0.1348
18680TIP3   OH277530   2.272   6.375   1.989  1.1036 -0.3611  0.5214
18680TIP3    H177531   2.243   6.351   2.077 -0.9798  0.7966  0.2107
18680TIP3    H277532   2.365   6.351   1.987  1.4334  0.3396  3.3096
18681TIP3   OH277533   6.590   3.166   4.811  0.1704  0.0474 -0.1385
18681TIP3    H177534   6.654   3.238   4.812  2.1677 -1.5810 -1.6359
18681TIP3    H277535   6.557   3.162   4.901  3.6597 -0.2287  1.2896
18682TIP3   OH277536   6.685   1.382   0.565 -0.8082 -0.6628 -0.0286
18682TIP3    H177537   6.612   1.370   0.505 -2.0244 -0.1053  1.2724
18682TIP3    H277538   6.646   1.370   0.652  0.5222  0.2439  0.7281
18683TIP3   OH277539   0.652   1.293   0.668  0.0898 -0.0164  0.3266
18683TIP3    H177540   0.697   1.262   0.747 -0.9021  0.4072  1.0701
18683TIP3    H277541   0.723   1.313   0.606  0.8424 -1.5848  0.6219
18684TIP3   OH277542   3.146   3.740  12.288 -0.0415 -0.3827 -0.2014
18684TIP3    H177543   3.222   3.797  12.293  0.5805 -1.2477  0.8700
18684TIP3    H277544   3.182   3.653  12.270 -0.5988 -1.0821  1.7865
18685TIP3   OH277545   1.382   6.667  11.179 -0.2831 -0.0234 -0.7334
18685TIP3    H177546   1.419   6.738  11.232 -1.3274  1.2431 -1.6198
18685TIP3    H277547   1.428   6.673  11.095 -0.5890 -0.1901 -0.9151
18686TIP3   OH277548   4.988   5.627   2.463  0.1707  0.1113 -0.1128
18686TIP3    H177549   4.970   5.712   2.504 -0.6834 -0.5852  1.0434
18686TIP3    H277550   4.963   5.563   2.530  0.8179 -1.0530 -0.9526
18687TIP3   OH277551   4.929   4.830   5.136  0.2374 -0.3359 -0.2001
18687TIP3    H177552   4.845   4.810   5.094  1.1160 -0.6522 -1.9453
18687TIP3    H277553   4.992   4.829   5.063  1.3953  2.3026  0.6532
18688TIP3   OH277554   2.692   6.230  13.584 -0.4446 -0.5953 -0.0563
18688TIP3    H177555   2.725   6.247  13.495  0.0701  2.6180  0.6201
18688TIP3    H277556   2.599   6.252  13.580 -0.3815 -0.2674  0.2160
18689TIP3   OH277557   3.421   3.360  12.080  0.3858 -0.4877 -0.8610
18689TIP3    H177558   3.488   3.313  12.129  1.1269  0.4828 -0.9086
18689TIP3    H277559   3.404   3.439  12.132 -0.1485 -0.3420 -1.2480
18690TIP3   OH277560   3.132   2.862  12.196  0.2597 -0.3955  0.0719
18690TIP3    H177561   3.049   2.886  12.236  0.1647 -0.2584 -0.2051
18690TIP3    H277562   3.109   2.799  12.129  0.5853 -1.8709  1.2944
18691TIP3   OH277563   2.784   0.836  11.493  0.1342  0.5610 -0.4485
18691TIP3    H177564   2.807   0.784  11.416  0.0947  0.0448 -0.1159
18691TIP3    H277565   2.768   0.924  11.458 -0.1447  0.2735 -1.0683
18692TIP3   OH277566   2.659   6.006  15.137  0.4666  0.0988  0.2517
18692TIP3    H177567   2.684   5.914  15.127 -0.1347 -0.0589  0.1496
18692TIP3    H277568   2.593   6.005  15.206  0.2006  0.4122  0.0025
18693TIP3   OH277569   2.704   6.690  12.950 -0.8744  0.1008 -0.5705
18693TIP3    H177570   2.699   6.762  13.013 -0.4494  1.3881 -1.9554
18693TIP3    H277571   2.798   6.675  12.939 -0.9562 -0.3180 -0.6920
18694TIP3   OH277572   2.187   3.446   3.012 -0.4906  0.8692  0.1576
18694TIP3    H177573   2.270   3.400   3.025  0.4311  2.3188 -0.3408
18694TIP3    H277574   2.120   3.384   3.042  0.7394 -0.4494  0.2826
18695TIP3   OH277575   4.979   5.421  12.522  0.4065  0.5537 -0.1405
18695TIP3    H177576   4.891   5.387  12.503 -0.7925  1.7747  2.5922
18695TIP3    H277577   5.023   5.348  12.566  0.2873  0.3628 -0.3339
18696TIP3   OH277578   5.134   3.916   4.500 -0.1078 -0.1862 -0.0685
18696TIP3    H177579   5.185   3.935   4.421  0.8983 -2.4261 -0.0208
18696TIP3    H277580   5.046   3.949   4.479  0.9050  2.4034 -0.7197
18697TIP3   OH277581   1.553   5.791  13.520  0.3087 -0.0187 -0.3292
18697TIP3    H177582   1.560   5.812  13.427 -0.9067  1.1787 -0.1766
18697TIP3    H277583   1.602   5.860  13.564 -1.4165  1.0365  0.0353
18698TIP3   OH277584   3.676   0.818  12.504 -0.3538  0.1681  0.1593
18698TIP3    H177585   3.742   0.759  12.542 -1.0497 -3.5897 -3.7229
18698TIP3    H277586   3.603   0.814  12.565  1.2372  0.6741  2.2141
18699TIP3   OH277587   1.582   6.017   0.564 -0.1610 -0.5894  0.2073
18699TIP3    H177588   1.521   6.063   0.507 -0.7389 -0.5513  0.8410
18699TIP3    H277589   1.526   5.960   0.617  0.4165 -1.0015  0.3816
18700TIP3   OH277590   1.310   0.283   3.010  0.3999  0.0870 -0.3753
18700TIP3    H177591   1.280   0.221   2.943  0.5916  1.3501 -1.6729
18700TIP3    H277592   1.235   0.292   3.069  0.2950 -1.1922 -0.2839
18701TIP3   OH277593   3.260   2.739   1.815  0.7181  0.1107  0.7034
18701TIP3    H177594   3.338   2.754   1.762  0.6626  0.0324  0.5977
18701TIP3    H277595   3.240   2.646   1.801  0.4209  0.2068  0.4753
18702TIP3   OH277596   2.443   5.246  15.138 -0.1341 -0.2136  0.3930
18702TIP3    H177597   2.383   5.282  15.074  0.0289 -1.7720 -0.7010
18702TIP3    H277598   2.396   5.251  15.221 -0.3569  1.8061  0.1801
18703TIP3   OH277599   6.432   0.975  14.932  0.6409  0.6839 -0.4656
18703TIP3    H177600   6.336   0.969  14.923  0.7124 -0.3782 -0.6990
18703TIP3    H277601   6.445   1.025  15.013 -0.1685 -0.7650  0.6358
18704TIP3   OH277602   6.142   5.346   2.195  0.0624 -0.0487 -0.0981
18704TIP3    H177603   6.076   5.415   2.186 -0.0517 -0.1191  0.1799
18704TIP3    H277604   6.208   5.367   2.130  1.0038  1.4331  1.2630
18705TIP3   OH277605   3.561   2.394   0.699 -0.1217 -0.3046  0.8750
18705TIP3    H177606   3.491   2.349   0.651 -0.7477  1.2302  0.2921
18705TIP3    H277607   3.637   2.387   0.641  0.8201 -3.5212  2.2610
18706TIP3   OH277608   2.253   2.384   1.345  0.0756  0.4324 -0.0446
18706TIP3    H177609   2.210   2.448   1.288  0.1484  0.1313 -0.4385
18706TIP3    H277610   2.288   2.318   1.285 -0.7756 -0.4519  0.4015
18707TIP3   OH277611   4.960   4.770  11.439 -0.1092 -0.4008  0.2291
18707TIP3    H177612   4.910   4.849  11.418  1.8036  1.4842  2.2909
18707TIP3    H277613   4.942   4.710  11.366 -0.8447  2.3153 -1.9811
18708TIP3   OH277614   5.546   3.574   2.704 -0.0890 -0.5483 -0.4468
18708TIP3    H177615   5.536   3.629   2.781  0.8211 -0.0757 -0.6457
18708TIP3    H277616   5.467   3.521   2.701 -1.4241  1.3797 -0.7681
18709TIP3   OH277617   5.310   0.162  15.682  0.2417  0.1766  0.0876
18709TIP3    H177618   5.226   0.134  15.720  0.2163 -0.1678 -0.2077
18709TIP3    H277619   5.374   0.101  15.719  0.0886 -0.7266 -1.0756
18710TIP3   OH277620   3.695   3.835  16.429 -0.0067 -0.7725 -0.3445
18710TIP3    H177621   3.656   3.919  16.403  0.5253 -0.3227  0.2790
18710TIP3    H277622   3.630   3.770  16.403 -0.6343 -0.1339 -0.4223
18711TIP3   OH277623   2.583   4.687   4.071  0.1133 -0.0063 -0.5084
18711TIP3    H177624   2.529   4.636   4.010 -0.1569 -1.2003  0.6785
18711TIP3    H277625   2.520   4.726   4.131  0.5129 -1.3029  0.8114
18712TIP3   OH277626   2.623   3.267   5.330 -0.3652  0.2135  0.1079
18712TIP3    H177627   2.702   3.288   5.280 -0.2765 -0.6242 -0.1197
18712TIP3    H277628   2.623   3.172   5.335 -0.6225  0.2644  1.3216
18713TIP3   OH277629   6.103   6.616  10.578  0.0155  0.4452  0.5173
18713TIP3    H177630   6.075   6.573  10.659 -0.3285  0.6920  0.5340
18713TIP3    H277631   6.024   6.620  10.524  1.0990 -3.8348 -1.8123
18714TIP3   OH277632   4.048   0.515   5.222 -0.1134 -0.1161  0.5535
18714TIP3    H177633   4.031   0.607   5.201 -0.5834  0.4037  2.8842
18714TIP3    H277634   3.970   0.469   5.191 -0.0717  0.3278 -0.2408
18715TIP3   OH277635   3.241   1.952  11.469  0.3548 -0.8441  0.0389
18715TIP3    H177636   3.176   2.012  11.505 -0.4548 -1.7025  0.0378
18715TIP3    H277637   3.304   2.009  11.425  0.5428  0.1224  1.4823
18716TIP3   OH277638   1.498   3.653   2.286 -0.2924 -0.6026  0.4503
18716TIP3    H177639   1.500   3.716   2.214 -3.6804  0.3658  1.0180
18716TIP3    H277640   1.497   3.567   2.242  2.1015 -0.2564 -0.4085
18717TIP3   OH277641   4.631   5.666   4.768 -0.6643  0.3763 -0.5587
18717TIP3    H177642   4.606   5.755   4.791 -1.1404  0.3827 -1.0820
18717TIP3    H277643   4.573   5.610   4.821  2.6421  0.2287  3.3484
18718TIP3   OH277644   3.488   2.487   4.660 -0.7295  0.2212  0.6288
18718TIP3    H177645   3.530   2.432   4.595 -0.8279  1.9076 -0.9364
18718TIP3    H277646   3.538   2.569   4.658 -2.3563  1.2662  0.7205
18719TIP3   OH277647   5.223   5.153  11.842 -0.5231  0.3558 -0.1321
18719TIP3    H177648   5.165   5.079  11.820 -0.6065  0.6949 -1.0974
18719TIP3    H277649   5.271   5.123  11.920 -1.8996  0.0145  0.6290
18720TIP3   OH277650   5.804   5.395   3.489 -0.2075  0.4891 -0.1998
18720TIP3    H177651   5.729   5.339   3.467 -0.7929  1.1574  0.0457
18720TIP3    H277652   5.838   5.360   3.571  0.5062 -0.5564 -0.9242
18721TIP3   OH277653   1.830   4.851  15.269  0.2623  0.9980  0.1902
18721TIP3    H177654   1.744   4.887  15.247 -0.5271  1.2541  3.2479
18721TIP3    H277655   1.817   4.756  15.265  0.1206  1.0370 -0.3139
18722TIP3   OH277656   3.837   3.463   0.756 -0.2896  0.6760 -0.2811
18722TIP3    H177657   3.798   3.404   0.692  0.2747  0.2032 -0.1954
18722TIP3    H277658   3.873   3.535   0.704 -0.6096  0.7377 -0.4187
18723TIP3   OH277659   1.013   2.737  16.397  0.2631  0.8346  0.5009
18723TIP3    H177660   0.925   2.721  16.431 -0.0217 -1.0859 -0.9880
18723TIP3    H277661   1.071   2.698  16.463 -0.2768 -2.6740 -0.8900
18724TIP3   OH277662   1.445   0.302  13.739 -0.5152  0.2969  0.7770
18724TIP3    H177663   1.478   0.385  13.705  0.6410  0.1965  1.6051
18724TIP3    H277664   1.469   0.302  13.832 -2.5118  0.0223  1.3499
18725TIP3   OH277665   2.139   1.465   3.298  0.0379  0.0874  0.7568
18725TIP3    H177666   2.203   1.518   3.250 -1.2146  1.0645  0.0876
18725TIP3    H277667   2.109   1.400   3.235 -0.9230  0.7795  0.4739
18726TIP3   OH277668   0.513   1.878   2.386  0.4986 -0.2299 -0.2455
18726TIP3    H177669   0.600   1.866   2.426  0.0897 -0.8291  0.4996
18726TIP3    H277670   0.531   1.890   2.293  1.4416  0.5223  0.0112
18727TIP3   OH277671   1.350   6.014  14.570 -0.1058 -0.2401  0.0014
18727TIP3    H177672   1.261   5.999  14.601 -1.6734 -0.0239 -3.9251
18727TIP3    H277673   1.377   5.930  14.532  0.6987  0.1747 -0.3664
18728TIP3   OH277674   6.098   4.447   1.141 -0.2409  0.0268  0.1421
18728TIP3    H177675   6.083   4.535   1.106  2.1286  0.2419 -0.5134
18728TIP3    H277676   6.057   4.389   1.077 -1.4999  0.6306  0.3850
18729TIP3   OH277677   6.094   6.307  15.708 -0.5398 -0.2204 -0.4008
18729TIP3    H177678   6.098   6.246  15.781  0.2782 -0.8404 -0.9412
18729TIP3    H277679   6.003   6.334  15.704 -0.7249 -0.7017  0.4287
18730TIP3   OH277680   6.654   4.931  15.815  0.0550  0.1711 -0.2306
18730TIP3    H177681   6.600   5.008  15.832  0.5026  0.8763 -1.8235
18730TIP3    H277682   6.594   4.857  15.825 -1.1509  0.9075 -1.6092
18731TIP3   OH277683   3.365   5.056  17.276 -0.2461 -0.3984 -0.3984
18731TIP3    H177684   3.345   4.989  17.342 -0.3215  0.1464  0.1452
18731TIP3    H277685   3.458   5.076  17.289 -0.8462  1.6937  1.4716
18732TIP3   OH277686   2.924   1.933   3.667 -0.0850 -0.0938 -0.0980
18732TIP3    H177687   2.844   1.986   3.672 -0.0247  0.0867 -1.0387
18732TIP3    H277688   2.896   1.846   3.694 -0.0706  0.4848  2.0527
18733TIP3   OH277689   6.090   4.184  13.739 -0.0272 -0.4010  0.2116
18733TIP3    H177690   6.130   4.230  13.812  1.4491 -1.2833 -0.0100
18733TIP3    H277691   6.157   4.182  13.671  0.6439 -4.1503  0.7510
18734TIP3   OH277692   2.464   2.840  11.909 -0.3249  0.3853  0.1734
18734TIP3    H177693   2.387   2.879  11.950 -0.5460 -0.5529  0.6545
18734TIP3    H277694   2.480   2.896  11.832 -0.5176  1.5420  0.9469
18735TIP3   OH277695   3.978   5.243  15.341 -0.0351 -0.4294  0.1849
18735TIP3    H177696   4.016   5.166  15.300 -0.3388 -1.3271  1.5387
18735TIP3    H277697   3.903   5.210  15.390 -0.4698  0.7986  0.3789
18736TIP3   OH277698   3.279   2.712  14.708  0.2869 -0.9974  0.2820
18736TIP3    H177699   3.317   2.699  14.621  2.6914  0.1499  1.0568
18736TIP3    H277700   3.352   2.743  14.761 -1.9199  2.2385  1.7658
18737TIP3   OH277701   6.020   1.513   0.774  0.1647 -0.2554  0.2537
18737TIP3    H177702   6.030   1.477   0.685  3.0080  1.1590 -0.0817
18737TIP3    H277703   6.097   1.483   0.821 -0.6215  0.1612  1.8838
18738TIP3   OH277704   3.791   2.601   1.532 -0.4193  0.5209 -0.2518
18738TIP3    H177705   3.882   2.577   1.516 -0.7620 -1.5483  0.5850
18738TIP3    H277706   3.796   2.691   1.565  1.4920 -0.0685  1.2639
18739TIP3   OH277707   4.331   0.763  13.309 -0.5168 -0.0423 -0.6590
18739TIP3    H177708   4.289   0.771  13.224  0.4179 -0.1482 -1.1527
18739TIP3    H277709   4.410   0.816  13.302 -0.8863  0.6985  0.4683
18740TIP3   OH277710   1.940   0.957  10.837 -0.1465 -0.2857  0.1604
18740TIP3    H177711   1.868   0.994  10.786  2.0960  1.9714 -1.5518
18740TIP3    H277712   1.937   0.863  10.818 -0.6838  0.1952 -2.5133
18741TIP3   OH277713   5.823   6.440   5.026  0.1100  0.0470 -0.0638
18741TIP3    H177714   5.846   6.527   5.057 -0.3446 -0.1290  0.8097
18741TIP3    H277715   5.821   6.447   4.930  1.8804  0.5286 -0.0846
18742TIP3   OH277716   4.106   6.101  11.140  0.3519  0.4203  0.2007
18742TIP3    H177717   4.015   6.069  11.142  0.5393 -0.1409 -0.0249
18742TIP3    H277718   4.099   6.194  11.160 -0.2922  0.4110  0.0500
18743TIP3   OH277719   2.143   2.207   5.870 -0.7138  0.2916  0.1743
18743TIP3    H177720   2.166   2.263   5.944  0.5583 -0.1947  0.1753
18743TIP3    H277721   2.221   2.208   5.815 -1.7498  0.9036 -1.3401
18744TIP3   OH277722   1.158   0.804   3.660  0.0414 -0.0154  0.1758
18744TIP3    H177723   1.098   0.744   3.703 -0.0490 -1.1632 -1.4608
18744TIP3    H277724   1.220   0.830   3.728 -2.2791  1.2770  1.9321
18745TIP3   OH277725   2.407   0.040  12.274 -0.1766  0.2578  0.7017
18745TIP3    H177726   2.494   0.013  12.305 -0.1636  1.5877  1.9537
18745TIP3    H277727   2.401   0.005  12.185  0.7410 -1.7228  1.3799
18746TIP3   OH277728   1.144   4.990  17.261 -0.0848  0.2851 -0.6070
18746TIP3    H177729   1.118   4.949  17.344 -1.5726 -2.2882 -2.1956
18746TIP3    H277730   1.083   5.063  17.250 -0.4088  0.1430  0.1843
18747TIP3   OH277731   4.903   4.136   0.972  0.7478  0.0193  0.2722
18747TIP3    H177732   4.890   4.154   0.879  0.1991 -1.2619  0.0739
18747TIP3    H277733   4.844   4.196   1.017 -0.0241 -0.3051 -0.2872
18748TIP3   OH277734   0.290   5.270   2.244  0.1070  0.5397  0.6843
18748TIP3    H177735   0.339   5.333   2.298  0.4592 -0.7024  1.8700
18748TIP3    H277736   0.275   5.195   2.302 -0.7998 -0.2505 -0.5147
18749TIP3   OH277737   4.462   5.689   1.562  0.3699 -0.1723 -0.3441
18749TIP3    H177738   4.512   5.759   1.521 -0.4955  1.0887  0.6582
18749TIP3    H277739   4.370   5.714   1.548  0.0432 -1.2154 -0.1457
18750TIP3   OH277740   4.746   5.420   1.473 -0.1968 -0.2383  0.2300
18750TIP3    H177741   4.792   5.418   1.557 -0.7005  0.2016  0.5281
18750TIP3    H277742   4.712   5.332   1.462 -2.2424  0.2807  1.7267
18751TIP3   OH277743   0.808   1.092  14.938 -0.4754 -0.0992 -0.3363
18751TIP3    H177744   0.800   1.094  14.842 -1.9095 -0.5282 -0.2530
18751TIP3    H277745   0.725   1.127  14.970  0.2729  0.7361  0.7747
18752TIP3   OH277746   1.845   2.361   5.923  0.5817 -0.4909 -0.2188
18752TIP3    H177747   1.833   2.305   6.000  3.1672 -1.4464 -0.4282
18752TIP3    H277748   1.853   2.449   5.958 -1.0871 -0.5158  0.3224
18753TIP3   OH277749   4.861   1.877  16.995  0.0169  0.4444 -0.1647
18753TIP3    H177750   4.897   1.936  16.928  0.7238  0.3087  0.0985
18753TIP3    H277751   4.902   1.793  16.978 -0.5224  0.1751 -0.1464
18754TIP3   OH277752   3.634   6.555  10.946  0.3387 -0.2543 -0.2541
18754TIP3    H177753   3.632   6.567  10.851  0.8209 -1.6343 -0.4680
18754TIP3    H277754   3.656   6.462  10.958  0.6413 -0.0224  1.2115
18755TIP3   OH277755   5.361   4.976  14.160 -1.1708  0.0120 -0.3027
18755TIP3    H177756   5.390   4.901  14.212 -1.5702  0.7492  1.0359
18755TIP3    H277757   5.431   4.990  14.097  0.0962  0.0450  1.0627
18756TIP3   OH277758   3.736   3.459   1.342 -0.1826 -0.5877 -0.7794
18756TIP3    H177759   3.820   3.491   1.307 -0.1647 -0.4604 -0.6208
18756TIP3    H277760   3.738   3.365   1.326  0.3175 -0.7007 -0.1060
18757TIP3   OH277761   6.548   0.753   3.094  0.0585  0.6866  0.3697
18757TIP3    H177762   6.525   0.714   3.009  1.9037  2.8068 -1.1948
18757TIP3    H277763   6.473   0.809   3.115  0.7820  2.4120 -1.3803
18758TIP3   OH277764   1.457   0.221  12.840 -0.5084 -0.1273 -0.1489
18758TIP3    H177765   1.466   0.197  12.748 -0.5256 -1.5782  0.2029
18758TIP3    H277766   1.505   0.154  12.887 -1.2459  0.0916  0.9507
18759TIP3   OH277767   4.645   1.210   0.678  0.4422  0.0596 -0.2021
18759TIP3    H177768   4.598   1.141   0.725 -0.4041  2.1271  2.2244
18759TIP3    H277769   4.729   1.218   0.725 -0.0010  1.4883  0.4096
18760TIP3   OH277770   3.537   3.035   5.054 -0.4934 -0.2444 -0.1376
18760TIP3    H177771   3.474   2.999   5.118 -1.7403 -0.1440 -1.2658
18760TIP3    H277772   3.545   3.127   5.079 -0.7870 -0.2575  0.0191
18761TIP3   OH277773   6.274   2.089  16.566  0.2466 -0.9673 -0.2833
18761TIP3    H177774   6.239   2.094  16.477  1.5559 -1.4857 -0.8694
18761TIP3    H277775   6.272   2.179  16.598  0.4927 -0.6458 -1.1482
18762TIP3   OH277776   4.794   2.392   6.468  0.2538 -0.7865  0.1719
18762TIP3    H177777   4.715   2.345   6.496 -1.2481  1.3848 -0.1434
18762TIP3    H277778   4.864   2.356   6.523 -1.2336 -1.7322  1.5451
18763TIP3   OH277779   4.589   4.342   0.803 -0.0370 -0.4659  0.4152
18763TIP3    H177780   4.635   4.346   0.719 -1.2859 -2.8258 -0.4565
18763TIP3    H277781   4.508   4.295   0.784 -0.0588 -1.6649  3.0617
18764TIP3   OH277782   1.926   1.996  13.957 -0.4724  0.1963  0.1064
18764TIP3    H177783   1.891   2.058  14.021 -1.5628 -0.3593  0.0652
18764TIP3    H277784   1.886   1.912  13.981  0.1429 -0.2730 -0.4991
18765TIP3   OH277785   3.362   0.481   4.195 -0.0232 -0.0660 -0.1992
18765TIP3    H177786   3.323   0.433   4.268  0.8985  1.6413  1.5292
18765TIP3    H277787   3.429   0.536   4.237 -0.9353  2.5998 -2.0434
18766TIP3   OH277788   6.586   3.757  13.657 -0.0171  0.8805 -0.2245
18766TIP3    H177789   6.647   3.830  13.671  1.0590 -0.0232 -0.0795
18766TIP3    H277790   6.642   3.680  13.649 -1.2070 -0.3298  2.0354
18767TIP3   OH277791   0.445   6.188  14.309 -0.2015 -0.6090 -0.0987
18767TIP3    H177792   0.428   6.246  14.383 -1.5316 -0.5236 -0.4569
18767TIP3    H277793   0.438   6.100  14.346 -3.7686 -0.6777 -0.6130
18768TIP3   OH277794   0.026   4.629  12.593 -0.5032  0.7567  0.0063
18768TIP3    H177795   0.051   4.669  12.677  2.7981  1.6778 -1.2254
18768TIP3    H277796   0.095   4.565  12.576 -1.9218 -0.4716 -1.3411
18769TIP3   OH277797   6.015   6.086   4.858 -0.3337 -0.2535 -0.4786
18769TIP3    H177798   6.098   6.085   4.809 -0.0260 -0.1868  0.0334
18769TIP3    H277799   6.022   6.011   4.917 -0.7196 -0.3543 -0.5610
18770TIP3   OH277800   3.318   4.596   3.975 -0.0393  0.2379  0.2980
18770TIP3    H177801   3.363   4.514   3.997 -2.0124 -1.4465 -1.5513
18770TIP3    H277802   3.389   4.660   3.968  1.6042 -1.3044  1.6535
18771TIP3   OH277803   1.218   2.299   1.850  0.8785  0.0899 -0.6232
18771TIP3    H177804   1.191   2.337   1.766  1.2781  0.2238 -0.6899
18771TIP3    H277805   1.146   2.322   1.909  0.7769  0.3315 -0.8340
18772TIP3   OH277806   1.113   2.530   0.883 -0.4883 -0.3384  0.4151
18772TIP3    H177807   1.032   2.505   0.838 -0.4919 -1.9799  1.2783
18772TIP3    H277808   1.182   2.484   0.835 -0.0424  0.9185 -0.2109
18773TIP3   OH277809   5.237   5.315  13.709  0.0104 -0.0841  0.9855
18773TIP3    H177810   5.151   5.323  13.750  0.0734  0.8135  0.9757
18773TIP3    H277811   5.219   5.283  13.621 -0.2447 -0.6467  1.2393
18774TIP3   OH277812   0.850   4.880  15.442 -0.1865 -0.3103  0.1726
18774TIP3    H177813   0.925   4.913  15.492 -0.9951  0.6674  0.7823
18774TIP3    H277814   0.799   4.958  15.422 -0.4654 -0.8299 -1.2234
18775TIP3   OH277815   5.650   0.595  11.956  0.0514 -0.1098 -0.3283
18775TIP3    H177816   5.595   0.532  11.910 -2.4386  0.2621  1.8865
18775TIP3    H277817   5.684   0.547  12.032  1.5971  0.0985 -0.8566
18776TIP3   OH277818   6.554   1.134   0.284 -0.4213  0.0762 -0.4975
18776TIP3    H177819   6.509   1.131   0.200 -1.3943  0.2834  0.0095
18776TIP3    H277820   6.641   1.168   0.263 -0.5876 -0.0589 -1.4462
18777TIP3   OH277821   2.523   6.041  16.915 -0.2547 -0.6260 -0.3002
18777TIP3    H177822   2.479   6.016  16.834 -0.2076 -0.4719 -0.3750
18777TIP3    H277823   2.609   5.998  16.910 -1.0944 -2.5530  0.7503
18778TIP3   OH277824   1.015   3.559   1.206 -0.6487 -0.5114  0.0707
18778TIP3    H177825   1.108   3.541   1.194 -0.7961 -0.7895 -0.7010
18778TIP3    H277826   0.987   3.597   1.123 -1.3361 -0.8836  0.1224
18779TIP3   OH277827   6.548   1.749  11.913 -0.7988  0.3132  0.3923
18779TIP3    H177828   6.488   1.675  11.923 -0.8941  0.0235 -1.8692
18779TIP3    H277829   6.588   1.759  11.999 -0.6630 -2.4886  0.7428
18780TIP3   OH277830   1.573   0.656  12.469 -0.1803 -0.8005  0.3731
18780TIP3    H177831   1.656   0.678  12.510 -0.7178  1.3106  0.4585
18780TIP3    H277832   1.570   0.560  12.469  2.5965 -0.9770 -0.3833
18781TIP3   OH277833   2.812   4.017   5.420 -0.6576  0.7008 -0.4954
18781TIP3    H177834   2.820   3.975   5.334  1.9065 -0.0116 -0.0085
18781TIP3    H277835   2.856   4.101   5.409 -1.9204  1.4133 -0.3088
18782TIP3   OH277836   6.334   6.756   5.681 -0.7165 -0.4510  0.0831
18782TIP3    H177837   6.374   6.670   5.669  1.9764  0.6521  0.3554
18782TIP3    H277838   6.405   6.818   5.664 -2.1992  1.7046  1.2435
18783TIP3   OH277839   5.788   3.810  12.804  0.8262  0.3217  0.2724
18783TIP3    H177840   5.813   3.724  12.772 -1.1757  0.6765 -2.6932
18783TIP3    H277841   5.714   3.794  12.862  3.0304 -0.1432  3.1800
18784TIP3   OH277842   6.048   0.650   1.193  0.1009  0.3864  0.0698
18784TIP3    H177843   6.106   0.586   1.151 -0.0274  0.8529 -0.8327
18784TIP3    H277844   5.961   0.611   1.189  0.3327 -0.3905  1.5750
18785TIP3   OH277845   0.222   6.553   2.008 -0.1871 -0.3569 -0.2875
18785TIP3    H177846   0.261   6.530   2.092 -0.5106  0.9487  0.2318
18785TIP3    H277847   0.279   6.512   1.943  0.2875 -1.0436  0.5453
18786TIP3   OH277848   5.571   0.768   2.666 -0.3960  0.0206 -0.1483
18786TIP3    H177849   5.587   0.861   2.684  0.1412 -0.0145 -0.4035
18786TIP3    H277850   5.653   0.725   2.692  0.0055 -0.1651 -1.6506
18787TIP3   OH277851   6.114   1.827  15.673 -0.2937  0.3612 -0.4548
18787TIP3    H177852   6.066   1.836  15.591 -1.4507 -1.0677  0.0294
18787TIP3    H277853   6.132   1.733  15.681 -0.9507  0.3488  1.3112
18788TIP3   OH277854   6.178   1.540   6.134 -0.0876 -0.5690  0.3782
18788TIP3    H177855   6.138   1.457   6.109 -4.0920  0.5037  2.4806
18788TIP3    H277856   6.184   1.589   6.052  0.2611 -2.0711 -0.5357
18789TIP3   OH277857   5.928   3.634  11.200  0.2467 -0.2027  0.2346
18789TIP3    H177858   5.966   3.599  11.119  0.9333  0.5617  0.2057
18789TIP3    H277859   5.996   3.691  11.235 -0.2399 -0.1355  1.0951
18790TIP3   OH277860   5.224   5.302  15.320 -0.4719 -0.4500 -0.1200
18790TIP3    H177861   5.193   5.340  15.238  1.4487 -0.6829 -0.9989
18790TIP3    H277862   5.286   5.234  15.294  0.3284 -0.4149  1.5192
18791TIP3   OH277863   4.002   4.319  14.879 -0.3397 -0.2213  0.3605
18791TIP3    H177864   3.977   4.365  14.799  1.2752  1.5653  0.8052
18791TIP3    H277865   4.092   4.291  14.864 -0.5042 -1.1728  1.0154
18792TIP3   OH277866   0.746   1.521   4.872  0.4658  0.1144  0.8010
18792TIP3    H177867   0.665   1.490   4.912  1.2428 -1.8264  0.9835
18792TIP3    H277868   0.735   1.506   4.779 -0.0390  1.5151  0.6084
18793TIP3   OH277869   5.217   0.354  16.701 -0.3087 -0.3073  0.3518
18793TIP3    H177870   5.307   0.347  16.669 -0.8934  0.0453 -1.4840
18793TIP3    H277871   5.215   0.437  16.749  0.0468  0.3512 -0.7279
18794TIP3   OH277872   0.566   6.332  11.091 -0.0478 -0.3992  0.1470
18794TIP3    H177873   0.545   6.300  11.003  1.6198  0.0076 -0.4203
18794TIP3    H277874   0.526   6.419  11.095 -1.2218 -0.9255  0.2739
18795TIP3   OH277875   1.688   6.802  12.339  0.2652  0.2776  0.1334
18795TIP3    H177876   1.713   6.891  12.311 -0.0861  0.5312  0.6093
18795TIP3    H277877   1.700   6.803  12.434  0.8471 -0.3806  0.0699
18796TIP3   OH277878   6.039   1.620  11.413  0.2946 -0.5084  0.3193
18796TIP3    H177879   6.108   1.580  11.466  0.9947  0.9324  0.5702
18796TIP3    H277880   6.061   1.713  11.413 -1.5665 -0.0305  0.2557
18797TIP3   OH277881   0.820   2.734  11.204 -0.0007  0.1278  0.5407
18797TIP3    H177882   0.726   2.719  11.192 -0.5429  2.0248  1.9150
18797TIP3    H277883   0.845   2.783  11.125  0.0095 -0.9061 -0.1236
18798TIP3   OH277884   3.259   5.432   2.180  0.3940  0.0831 -0.3355
18798TIP3    H177885   3.211   5.350   2.169  0.6895 -0.0255 -0.8606
18798TIP3    H277886   3.226   5.469   2.262 -0.5328 -0.0229 -0.6526
18799TIP3   OH277887   4.847   3.488  15.672  0.0441  0.2425  0.1572
18799TIP3    H177888   4.764   3.514  15.630 -1.0198 -0.9244  1.4565
18799TIP3    H277889   4.853   3.394  15.656  2.0555  0.5755 -1.4366
18800TIP3   OH277890   6.029   5.612  15.977  0.3270 -0.3971  0.7566
18800TIP3    H177891   5.999   5.702  15.991  0.0945 -0.8290  3.5834
18800TIP3    H277892   6.007   5.594  15.886  0.3892  2.3851  0.0862
18801TIP3   OH277893   0.860   0.773   5.279 -0.2571  0.1035 -0.0959
18801TIP3    H177894   0.955   0.760   5.272  0.2015  0.8422  3.2476
18801TIP3    H277895   0.831   0.710   5.344 -2.1739 -0.3095 -1.2648
18802TIP3   OH277896   5.417   2.666  13.957  0.4793  0.6164  0.2165
18802TIP3    H177897   5.370   2.632  13.881  0.3942  0.5969  0.2776
18802TIP3    H277898   5.391   2.608  14.029 -1.7770  2.3834  0.9161
18803TIP3   OH277899   4.518   3.404   4.072  0.4298  0.1030  0.5891
18803TIP3    H177900   4.431   3.441   4.057 -0.4073 -1.3166  1.6806
18803TIP3    H277901   4.553   3.455   4.145 -0.3228 -0.5592  1.4457
18804TIP3   OH277902   1.980   1.851   3.785 -0.1305  0.2768 -0.5306
18804TIP3    H177903   2.022   1.775   3.745  0.2760  0.9525 -1.4308
18804TIP3    H277904   2.040   1.923   3.768  0.2742  0.5348  1.7162
18805TIP3   OH277905   6.306   6.610   1.299  0.4635 -0.1447 -0.5931
18805TIP3    H177906   6.236   6.673   1.318  0.3296 -0.4169 -0.1646
18805TIP3    H277907   6.264   6.525   1.303  1.2201 -0.4891  1.9223
18806TIP3   OH277908   2.417   2.672  12.659 -0.3983 -0.6126 -0.5978
18806TIP3    H177909   2.346   2.620  12.695  1.9539 -2.6598  1.4489
18806TIP3    H277910   2.453   2.618  12.589 -1.9291  1.2720 -3.0186
18807TIP3   OH277911   4.597   1.665   2.249  0.1157 -0.0091  0.9981
18807TIP3    H177912   4.526   1.674   2.185  0.2178 -0.9258  0.7417
18807TIP3    H277913   4.555   1.627   2.326  0.2885 -0.3842  0.9093
18808TIP3   OH277914   5.560   3.993   4.003  0.4579  0.2292 -0.2315
18808TIP3    H177915   5.604   4.052   3.941 -0.7961  2.2345  0.6801
18808TIP3    H277916   5.481   4.040   4.029  1.3525 -0.0274  3.5969
18809TIP3   OH277917   6.539   6.509   0.075 -0.4989  0.4117 -0.3614
18809TIP3    H177918   6.626   6.509   0.116 -0.0950  0.5192 -1.1910
18809TIP3    H277919   6.492   6.580   0.119  0.4681  1.5962 -1.1527
18810TIP3   OH277920   1.932   2.082   0.201 -0.2054  0.0631  0.0084
18810TIP3    H177921   1.955   2.124   0.284 -1.9766 -1.9940  1.6595
18810TIP3    H277922   1.967   1.993   0.208 -1.1184 -0.4107 -1.0894
18811TIP3   OH277923   5.415   5.347   3.987 -0.0815 -0.3694  0.3350
18811TIP3    H177924   5.501   5.306   4.001 -1.7275 -3.7048  1.7435
18811TIP3    H277925   5.411   5.415   4.053  2.2886  1.5186 -1.2674
18812TIP3   OH277926   0.966   4.368  15.218  0.4226 -0.6870 -0.2346
18812TIP3    H177927   0.938   4.309  15.148  1.3081  1.7299 -2.8233
18812TIP3    H277928   0.969   4.454  15.177  1.0675  0.8846  2.8227
18813TIP3   OH277929   3.067   4.704  13.853 -0.0361  0.5908  0.6136
18813TIP3    H177930   3.093   4.758  13.927  1.2054  2.2060 -0.9061
18813TIP3    H277931   3.071   4.763  13.778  0.7296 -1.4561 -1.0586
18814TIP3   OH277932   1.618   4.123  15.511  0.0804  0.0122  0.6912
18814TIP3    H177933   1.661   4.075  15.582  0.1530  1.8672  1.9705
18814TIP3    H277934   1.656   4.211  15.515 -0.0917  0.2489 -1.5148
18815TIP3   OH277935   3.824   5.111   2.952  0.2388 -0.8081 -0.3579
18815TIP3    H177936   3.871   5.086   2.872  2.2398 -0.9394  0.8058
18815TIP3    H277937   3.818   5.030   3.002  1.0391 -0.2931  0.6052
18816TIP3   OH277938   6.260   6.072  12.189 -0.6187  0.3055 -0.0923
18816TIP3    H177939   6.220   6.106  12.269 -0.7239  0.7533 -0.3326
18816TIP3    H277940   6.239   6.137  12.122 -0.8123 -0.2292 -0.5574
18817TIP3   OH277941   1.633   5.123  15.282 -0.6494 -0.8902  0.5452
18817TIP3    H177942   1.621   5.041  15.234  1.4257 -0.1078 -1.4866
18817TIP3    H277943   1.712   5.162  15.244  0.0361  0.7443  3.3545
18818TIP3   OH277944   0.735   0.226   0.827 -0.5955 -0.1085  0.0996
18818TIP3    H177945   0.658   0.199   0.778 -0.6000 -0.3893  0.2598
18818TIP3    H277946   0.806   0.170   0.794 -0.0452  1.3367 -1.3320
18819TIP3   OH277947   5.298   0.391  15.550  0.1032  0.2735 -0.2912
18819TIP3    H177948   5.223   0.361  15.500  0.0411 -0.2208  0.0923
18819TIP3    H277949   5.343   0.311  15.577 -1.2326  0.3572  2.5576
18820TIP3   OH277950   2.836   2.003   4.165  0.2249  0.1134 -0.1248
18820TIP3    H177951   2.757   2.011   4.111 -0.4697  2.4965  1.0922
18820TIP3    H277952   2.806   1.960   4.245  0.2197  0.7813  0.2329
18821TIP3   OH277953   4.133   5.428  15.553  0.4118  0.4955  0.4636
18821TIP3    H177954   4.102   5.504  15.503 -1.2089 -0.5821 -0.2326
18821TIP3    H277955   4.112   5.353  15.498  0.9677 -0.5496  1.6365
18822TIP3   OH277956   0.270   2.613  14.317 -0.0403 -0.0210  0.2719
18822TIP3    H177957   0.311   2.594  14.233 -0.0176 -1.3770  0.5695
18822TIP3    H277958   0.265   2.529  14.362 -0.6543  0.5640  1.3685
18823TIP3   OH277959   2.566   6.686   5.913  0.3980  0.0422 -0.8292
18823TIP3    H177960   2.548   6.755   5.977  2.1247 -1.0306  0.9351
18823TIP3    H277961   2.547   6.726   5.828 -0.0030  2.2053  0.2103
18824TIP3   OH277962   2.909   1.786  14.869 -0.5296 -0.2965 -0.0894
18824TIP3    H177963   2.918   1.868  14.918  0.3896 -0.1623 -0.4670
18824TIP3    H277964   2.823   1.753  14.894 -0.5400  0.3281  0.7611
18825TIP3   OH277965   6.798   3.108  11.424  0.2068  1.1354 -0.0646
18825TIP3    H177966   6.791   3.059  11.342  0.0707  0.2822  0.4498
18825TIP3    H277967   6.742   3.185  11.411 -0.7948  0.3797 -0.3207
18826TIP3   OH277968   5.524   1.033  17.071  0.0475 -0.2300  0.2501
18826TIP3    H177969   5.537   1.073  16.984  3.0925 -2.0098 -0.2674
18826TIP3    H277970   5.501   0.942  17.052 -0.8838 -0.2493  1.3657
18827TIP3   OH277971   1.217   0.025  12.721  0.1330  0.0505  0.4475
18827TIP3    H177972   1.130  -0.002  12.751  0.6781 -1.1767  1.0053
18827TIP3    H277973   1.278  -0.023  12.778  1.1808  0.1496 -0.5526
18828TIP3   OH277974   0.701   1.736  15.705  0.6323 -0.3085 -0.1894
18828TIP3    H177975   0.695   1.820  15.661  0.3688 -0.7914 -1.0935
18828TIP3    H277976   0.788   1.736  15.745  0.0066  1.0785  1.2907
18829TIP3   OH277977   6.260   1.174   0.142  0.1858 -0.2499 -0.1058
18829TIP3    H177978   6.180   1.122   0.140  0.5459 -0.7990 -0.8679
18829TIP3    H277979   6.312   1.135   0.213 -0.0247 -0.2029  0.0730
18830TIP3   OH277980   2.997   2.703  15.928 -0.3319 -0.5539  0.1232
18830TIP3    H177981   2.909   2.735  15.909  0.3893  1.3547 -0.1877
18830TIP3    H277982   2.996   2.684  16.022 -1.2817 -1.3321 -0.0273
18831TIP3   OH277983   3.034   5.663  13.996 -0.5302 -0.0164  0.0379
18831TIP3    H177984   2.994   5.590  13.950  0.6988 -0.8361  0.2339
18831TIP3    H277985   3.035   5.734  13.932 -0.7732 -0.4912 -0.4973
18832TIP3   OH277986   4.735   0.403   5.566  0.3774  0.0422  0.5529
18832TIP3    H177987   4.724   0.450   5.483 -1.5692 -0.4266  0.4988
18832TIP3    H277988   4.751   0.312   5.541 -0.3064 -0.1175  0.6823
18833TIP3   OH277989   2.211   5.546   0.037  0.2911  0.4483 -0.8891
18833TIP3    H177990   2.124   5.581   0.021 -0.3474 -1.1056 -0.9726
18833TIP3    H277991   2.207   5.510   0.126  0.4917 -0.5860 -1.2791
18834TIP3   OH277992   0.403   6.253   3.452  0.0146 -0.4886 -0.6869
18834TIP3    H177993   0.330   6.296   3.496 -0.4472 -0.3174 -1.6068
18834TIP3    H277994   0.385   6.263   3.359  0.3750 -1.8616 -0.9348
18835TIP3   OH277995   6.192   4.387  14.543  0.1797  0.1011  0.4354
18835TIP3    H177996   6.200   4.325  14.615  0.7669  0.6158  0.8241
18835TIP3    H277997   6.136   4.456  14.577 -0.8365 -0.4233 -0.1467
18836TIP3   OH277998   3.778   4.049   5.762 -0.3465 -0.0663 -0.1549
18836TIP3    H177999   3.824   4.053   5.846  0.5480  1.0574 -0.6843
18836TIP3    H278000   3.710   4.116   5.768 -0.5270 -0.2414 -0.2007
18837TIP3   OH278001   2.908   0.119  16.992  0.9086 -0.1572 -0.0741
18837TIP3    H178002   2.837   0.100  16.930  1.0429  0.4101 -0.4103
18837TIP3    H278003   2.864   0.125  17.077  0.5323  0.3040 -0.2955
18838TIP3   OH278004   3.528   1.404   4.016  0.0493  0.3058 -0.1946
18838TIP3    H178005   3.443   1.400   3.970  0.3648  0.2228 -0.7815
18838TIP3    H278006   3.507   1.442   4.101 -0.4966  0.8647 -0.5629
18839TIP3   OH278007   4.734   1.163   1.217  0.4844 -0.2001 -0.3707
18839TIP3    H178008   4.700   1.156   1.306  0.3520  0.5827 -0.3534
18839TIP3    H278009   4.829   1.170   1.228  0.5269 -0.7360 -0.3350
18840TIP3   OH278010   4.632   0.232  15.325 -0.2635  0.0354 -0.3568
18840TIP3    H178011   4.649   0.234  15.419  0.6792 -0.7886 -0.4867
18840TIP3    H278012   4.654   0.143  15.298 -0.5132  0.2552 -1.3647
18841TIP3   OH278013   5.476   3.842  12.584  0.5437  0.2518 -0.0500
18841TIP3    H178014   5.470   3.915  12.522  1.8225  0.3670 -0.0588
18841TIP3    H278015   5.568   3.817  12.582  0.0981 -1.5181 -0.2211
18842TIP3   OH278016   2.675   0.514  13.936  0.1151  0.3405 -0.2065
18842TIP3    H178017   2.711   0.500  14.024 -0.2302  0.9181  0.0328
18842TIP3    H278018   2.641   0.604  13.939 -3.0729 -0.7748  0.1855
18843TIP3   OH278019   6.494   3.240   5.060 -0.4187 -0.3342  0.2054
18843TIP3    H178020   6.487   3.335   5.068  0.5045 -0.2268 -0.1444
18843TIP3    H278021   6.509   3.209   5.149 -1.1083 -0.1976  0.3750
18844TIP3   OH278022   2.124   1.160  17.033 -0.1036 -0.1578  0.2132
18844TIP3    H178023   2.073   1.232  16.996  0.1911 -0.2154 -0.3202
18844TIP3    H278024   2.069   1.083  17.022 -0.1052 -0.1388  0.0872
18845TIP3   OH278025   4.845   1.209   2.557 -0.5920 -0.4189 -0.1795
18845TIP3    H178026   4.783   1.255   2.614 -1.0540  0.0692 -1.0512
18845TIP3    H278027   4.919   1.189   2.613  0.3233  2.7323 -0.0581
18846TIP3   OH278028   0.659   6.253   3.246  0.2782  0.0178 -0.1611
18846TIP3    H178029   0.695   6.341   3.232  0.6302 -0.2700 -1.1225
18846TIP3    H278030   0.566   6.268   3.260  0.0021  0.4299 -2.1285
18847TIP3   OH278031   5.021   0.308   3.350 -0.0138  0.1809  0.1732
18847TIP3    H178032   5.095   0.264   3.392 -0.8017 -2.3134 -0.8978
18847TIP3    H278033   5.061   0.365   3.285  1.0390  1.1048  1.5629
18848TIP3   OH278034   1.338   5.505  15.706 -0.0841 -0.0368  0.6199
18848TIP3    H178035   1.313   5.555  15.629  5.1431 -0.8893 -2.0808
18848TIP3    H278036   1.356   5.571  15.773  0.4756  1.2543 -0.7501
18849TIP3   OH278037   3.036   2.034  15.304 -0.1977  0.3331  0.3380
18849TIP3    H178038   3.102   2.076  15.249 -1.8035  0.9122 -1.2457
18849TIP3    H278039   3.010   2.102  15.367 -0.0012  0.4190  0.3281
18850TIP3   OH278040   0.769   2.881  14.032  0.4138 -0.0041 -0.2873
18850TIP3    H178041   0.803   2.792  14.020  0.7860  0.0397  0.4094
18850TIP3    H278042   0.786   2.901  14.124  1.2881  1.1813 -0.6832
18851TIP3   OH278043   4.564   6.692  15.045 -0.7377  0.1917  0.3968
18851TIP3    H178044   4.523   6.761  14.992  0.8954  0.1996 -0.9528
18851TIP3    H278045   4.569   6.617  14.986 -0.6417 -0.4458  1.1971
18852TIP3   OH278046   4.665   4.768   6.857  0.0044  0.1472  0.2399
18852TIP3    H178047   4.698   4.678   6.861  0.9101  0.4115 -0.6582
18852TIP3    H278048   4.584   4.761   6.806 -0.4899 -0.2924  1.0685
18853TIP3   OH278049   1.557   0.507   5.198  0.3459  0.1872 -0.1843
18853TIP3    H178050   1.515   0.584   5.158  0.3401 -0.8092 -2.2108
18853TIP3    H278051   1.638   0.495   5.148 -0.4543 -2.0792 -1.0436
18854TIP3   OH278052   2.377   0.649  14.893 -0.1652  0.9376 -0.2132
18854TIP3    H178053   2.454   0.593  14.889  0.9682  2.4937 -2.1811
18854TIP3    H278054   2.303   0.588  14.888  0.8784 -0.5951  1.8694
18855TIP3   OH278055   1.625   2.197   2.799  0.2787  0.3738 -0.6518
18855TIP3    H178056   1.674   2.117   2.778  0.9239  0.9222 -1.2688
18855TIP3    H278057   1.638   2.209   2.894  1.2383  0.4333 -0.7807
18856TIP3   OH278058   6.298   3.758   5.247  0.4824  0.0412  0.3014
18856TIP3    H178059   6.313   3.842   5.204  1.5582  0.1070  0.7847
18856TIP3    H278060   6.253   3.706   5.181  0.4441  0.7547 -0.2550
18857TIP3   OH278061   5.862   0.858  12.525 -0.1977 -0.2475 -0.0339
18857TIP3    H178062   5.796   0.794  12.551 -0.3479  0.3539  1.1600
18857TIP3    H278063   5.862   0.857  12.430 -1.4121 -0.7735 -0.0362
18858TIP3   OH278064   3.808   0.726   5.346 -0.4649 -0.0336  0.0925
18858TIP3    H178065   3.778   0.635   5.345  1.9310 -0.8692 -0.0288
18858TIP3    H278066   3.889   0.725   5.396 -1.5375  2.4779  2.1051
18859TIP3   OH278067   4.239   5.009  14.053 -0.0277 -0.0420 -0.1428
18859TIP3    H178068   4.253   5.103  14.065 -0.0578 -0.0930  0.3408
18859TIP3    H278069   4.183   5.001  13.976  0.0630  0.3313 -0.2459
18860TIP3   OH278070   1.032   4.332  15.487  0.3106  0.2710 -0.1714
18860TIP3    H178071   1.089   4.408  15.499 -0.8632  1.3336 -1.0160
18860TIP3    H278072   1.016   4.328  15.393  1.4682 -1.9232 -0.3496
18861TIP3   OH278073   6.004   2.616   4.145  0.0384  0.4622 -0.0045
18861TIP3    H178074   6.024   2.594   4.053 -0.4707  2.3813 -0.6151
18861TIP3    H278075   5.954   2.540   4.176  0.8616 -0.5672 -1.0598
18862TIP3   OH278076   0.461   2.179  14.317  0.2012 -0.4744  0.4556
18862TIP3    H178077   0.529   2.223  14.367 -1.3694 -0.2766  2.5724
18862TIP3    H278078   0.495   2.175  14.227  2.9172 -0.3248  1.3862
18863TIP3   OH278079   3.632   5.630  11.450  0.1459 -0.0097 -0.2283
18863TIP3    H178080   3.660   5.566  11.385 -0.1755 -2.2278  1.6969
18863TIP3    H278081   3.702   5.695  11.452  1.1388 -1.0067 -1.3137
18864TIP3   OH278082   6.531   4.283  13.996 -0.4010  0.2445 -0.2764
18864TIP3    H178083   6.574   4.199  13.980 -1.0754 -0.0337 -0.6918
18864TIP3    H278084   6.441   4.269  13.967 -0.3610  1.3088 -0.9446
18865TIP3   OH278085   1.264   1.623  16.477 -0.1741  0.0768 -0.3313
18865TIP3    H178086   1.293   1.617  16.386 -0.3288  0.7533 -0.4255
18865TIP3    H278087   1.183   1.673  16.473  0.1040  0.5803  0.2381
18866TIP3   OH278088   1.880   5.677  16.918  0.5055  0.0385  0.0629
18866TIP3    H178089   1.950   5.683  16.983  1.2799  0.8671 -0.8304
18866TIP3    H278090   1.882   5.761  16.873 -1.2120  0.1657  0.1503
18867TIP3   OH278091   5.982   2.977   4.391  0.8247 -0.5261 -0.3885
18867TIP3    H178092   6.028   2.894   4.400  1.5630 -0.0226  0.6258
18867TIP3    H278093   6.009   3.028   4.467 -1.1897 -0.1010  0.1071
18868TIP3   OH278094   0.877   5.073   5.804  0.3040 -0.3397 -0.4816
18868TIP3    H178095   0.791   5.097   5.840  0.0204 -1.8621 -0.0751
18868TIP3    H278096   0.939   5.128   5.852 -0.4486  1.1685 -1.1500
18869TIP3   OH278097   5.053   1.027   0.519 -0.2497  0.4887 -0.0642
18869TIP3    H178098   5.138   1.061   0.492 -0.7340  1.5377 -0.3300
18869TIP3    H278099   4.990   1.078   0.468 -1.1631  1.6390  2.0906
18870TIP3   OH278100   0.690   3.499  14.175  0.7289  0.3836  0.9507
18870TIP3    H178101   0.684   3.433  14.105  0.9582  0.6670  0.6648
18870TIP3    H278102   0.611   3.484  14.227 -0.5310  1.4831 -0.5308
18871TIP3   OH278103   3.563   6.354  16.136  0.0595  0.0579 -0.1359
18871TIP3    H178104   3.591   6.271  16.174  2.8675  1.5465  1.4336
18871TIP3    H278105   3.615   6.363  16.056  0.9377  0.9059  0.4955
18872TIP3   OH278106   2.336   0.285  13.609 -0.0057  0.0877 -0.2264
18872TIP3    H178107   2.305   0.219  13.546 -1.5174 -0.2521  0.8049
18872TIP3    H278108   2.356   0.361  13.555  2.3909 -1.3342 -1.5454
18873TIP3   OH278109   3.276   3.442   2.850  0.4822  0.3224 -0.0384
18873TIP3    H178110   3.243   3.373   2.792 -0.1485  0.0110  0.6687
18873TIP3    H278111   3.297   3.398   2.932 -0.0986  0.9775  0.4882
18874TIP3   OH278112   0.016   4.570   4.604 -0.2497  0.1975  0.1977
18874TIP3    H178113   0.009   4.477   4.625 -1.1975  0.0978 -0.5016
18874TIP3    H278114  -0.060   4.610   4.648 -2.0237  0.0474 -2.5107
18875TIP3   OH278115   6.660   1.785   5.807 -0.4318  0.3755 -0.1817
18875TIP3    H178116   6.629   1.702   5.844 -2.2633  1.1687  0.1844
18875TIP3    H278117   6.644   1.777   5.713  2.5870 -0.9506 -0.7082
18876TIP3   OH278118   2.963   6.051  15.137 -0.1280 -0.1248 -0.3889
18876TIP3    H178119   2.955   6.120  15.204  1.3893 -2.1119  2.0067
18876TIP3    H278120   2.872   6.027  15.117 -0.6377  0.9937  0.4169
18877TIP3   OH278121   3.744   3.412   4.525 -0.3042  0.5105  0.2176
18877TIP3    H178122   3.811   3.449   4.468 -1.4882  2.4192 -0.0347
18877TIP3    H278123   3.735   3.321   4.495  2.7612 -0.1099  0.9096
18878TIP3   OH278124   2.462   5.913   3.410  0.7396  0.2300  0.1004
18878TIP3    H178125   2.420   5.923   3.496 -0.1683  2.4222 -0.5250
18878TIP3    H278126   2.398   5.864   3.358  0.7354  0.0071  0.3136
18879TIP3   OH278127   3.119   1.180  13.546  0.3240  0.4017 -0.2591
18879TIP3    H178128   3.042   1.163  13.491 -0.5247 -2.0703  1.5092
18879TIP3    H278129   3.180   1.109  13.524  1.1750  1.0501 -0.0483
18880TIP3   OH278130   2.440   5.255   2.144 -0.1920 -0.5887  0.7158
18880TIP3    H178131   2.434   5.161   2.131 -0.8735 -0.7004  1.7024
18880TIP3    H278132   2.349   5.285   2.144  0.0071  0.0368  0.6378
18881TIP3   OH278133   1.223   2.308   2.618  0.7537  0.1820  0.6272
18881TIP3    H178134   1.228   2.251   2.542  0.0217  0.5966  0.2528
18881TIP3    H278135   1.267   2.259   2.688  3.2479  0.6475 -0.5358
18882TIP3   OH278136   0.056   1.435  12.935 -0.3957 -0.4653 -0.0185
18882TIP3    H178137   0.063   1.423  12.841  0.3724  1.1781 -0.2026
18882TIP3    H278138   0.145   1.424  12.968 -0.1252  1.7094  0.1214
18883TIP3   OH278139   2.387   5.542  12.554  0.4575  0.2120  0.1658
18883TIP3    H178140   2.388   5.461  12.502  0.2449 -0.6262  1.4048
18883TIP3    H278141   2.300   5.579  12.540 -0.0341 -0.6495  0.8446
18884TIP3   OH278142   3.142   1.185   4.592 -0.1447 -0.2402 -0.2946
18884TIP3    H178143   3.051   1.209   4.609  0.0485  0.5126 -0.3213
18884TIP3    H278144   3.176   1.255   4.536 -0.2112 -1.6792 -2.2553
18885TIP3   OH278145   0.476   4.946  17.244  0.6021  0.0491 -0.0600
18885TIP3    H178146   0.406   4.999  17.205 -0.9158 -0.8336  1.3643
18885TIP3    H278147   0.511   4.999  17.315  2.1770  0.9292 -1.4138
18886TIP3   OH278148   4.291   5.072   1.781  0.8336  0.2958 -0.1082
18886TIP3    H178149   4.324   5.007   1.719  0.8927 -0.2568  0.4884
18886TIP3    H278150   4.202   5.042   1.801 -0.0260  1.6922 -1.5977
18887TIP3   OH278151   5.987   4.629   5.546  0.3203 -0.4143  0.4416
18887TIP3    H178152   5.924   4.618   5.617  1.0605 -0.8171  1.0533
18887TIP3    H278153   5.938   4.673   5.477 -0.3793  0.0836  1.2408
18888TIP3   OH278154   0.739   3.467   4.116  0.0106 -0.1093 -0.8723
18888TIP3    H178155   0.800   3.418   4.060  2.0940  0.0285  1.1334
18888TIP3    H278156   0.704   3.402   4.176 -0.1397  0.2030 -0.6191
18889TIP3   OH278157   4.180   1.690  13.330 -0.3419 -0.3402  0.7288
18889TIP3    H178158   4.126   1.727  13.260 -0.4779 -1.1440  0.3928
18889TIP3    H278159   4.206   1.765  13.384 -1.4549  0.1031  0.6577
18890TIP3   OH278160   2.714   3.921  13.838  0.3217  0.0548 -0.1234
18890TIP3    H178161   2.743   3.829  13.835 -0.6716 -0.2759 -0.0448
18890TIP3    H278162   2.623   3.916  13.867  0.5836  1.1429  0.9614
18891TIP3   OH278163   6.177   2.115  13.447  0.0589 -0.1952 -0.6299
18891TIP3    H178164   6.154   2.031  13.409 -1.6717 -0.9046  1.7507
18891TIP3    H278165   6.093   2.154  13.472  0.6949  2.7833 -2.5663
18892TIP3   OH278166   5.421   0.096  13.496  0.0409 -0.0075 -0.0789
18892TIP3    H178167   5.327   0.080  13.505  0.4620 -3.1196 -0.1904
18892TIP3    H278168   5.448   0.039  13.424  1.8530  1.7666 -0.9115
18893TIP3   OH278169   6.698   1.922  15.247 -0.4288  0.0450 -0.0206
18893TIP3    H178170   6.648   1.983  15.301  0.9183 -0.1234  1.4630
18893TIP3    H278171   6.779   1.907  15.295  0.2048 -1.2452 -1.4018
18894TIP3   OH278172   4.458   6.108  10.991 -0.3757 -0.1363 -0.6287
18894TIP3    H178173   4.367   6.081  11.003  0.0153 -1.3714 -0.3464
18894TIP3    H278174   4.452   6.184  10.932 -1.5023 -0.9958 -1.6821
18895TIP3   OH278175   4.544   4.262   4.830 -0.3452  0.2281 -0.0225
18895TIP3    H178176   4.475   4.238   4.769 -0.9243  0.4533  0.5324
18895TIP3    H278177   4.555   4.185   4.885 -0.2537  0.2427 -0.0210
18896TIP3   OH278178   6.792   2.970  15.552  0.4715 -0.0155 -0.3631
18896TIP3    H178179   6.865   2.977  15.491  0.5899  0.4953 -0.1623
18896TIP3    H278180   6.833   2.950  15.636  0.4632  1.2657 -0.0411
18897TIP3   OH278181   1.979   6.499   1.606 -0.4230 -0.3967 -0.2039
18897TIP3    H178182   2.052   6.463   1.657 -0.6513 -0.7334 -0.1164
18897TIP3    H278183   1.931   6.423   1.575 -0.6138 -0.1783 -0.4489
18898TIP3   OH278184   4.122   1.536  17.116  0.3128  0.0954 -0.2066
18898TIP3    H178185   4.129   1.459  17.059 -0.8595  0.7120 -1.2276
18898TIP3    H278186   4.130   1.500  17.205 -0.7872 -1.3053 -0.6283
18899TIP3   OH278187   1.468   6.797  13.681  0.0251 -0.1611 -0.2830
18899TIP3    H178188   1.449   6.869  13.741 -1.8007 -1.0119  0.2510
18899TIP3    H278189   1.557   6.814  13.649 -0.0203  1.8143  0.5129
18900TIP3   OH278190   6.245   6.637  11.474 -0.4686 -0.3832 -0.3089
18900TIP3    H178191   6.216   6.617  11.385  0.2768  1.1347 -0.9430
18900TIP3    H278192   6.170   6.682  11.514 -0.7833 -1.0138 -0.1873
18901TIP3   OH278193   5.870   6.528   1.438  0.1167  0.1494  0.3059
18901TIP3    H178194   5.928   6.588   1.391  0.8680 -1.2144 -0.5550
18901TIP3    H278195   5.840   6.466   1.372 -0.3660 -0.6419  1.2383
18902TIP3   OH278196   5.522   3.573   1.039 -0.1574  0.5782  0.1794
18902TIP3    H178197   5.579   3.649   1.024  0.2105  0.2816  0.0567
18902TIP3    H278198   5.495   3.546   0.951 -0.1881  0.4939  0.2150
18903TIP3   OH278199   0.356   4.208  12.356 -0.4818  0.2369 -0.3563
18903TIP3    H178200   0.309   4.149  12.415  1.6026 -0.3706  0.8143
18903TIP3    H278201   0.390   4.276  12.414  1.5672 -0.3354 -0.8023
18904TIP3   OH278202   1.609   0.493   3.564 -0.1130 -0.3694 -0.2283
18904TIP3    H178203   1.533   0.473   3.508 -0.3419  0.7269 -0.3160
18904TIP3    H278204   1.573   0.498   3.652 -0.1507  0.1580 -0.2706
18905TIP3   OH278205   3.868   5.459  11.572  0.0486  0.2623  0.4924
18905TIP3    H178206   3.809   5.410  11.629 -1.8277  2.4038  0.5593
18905TIP3    H278207   3.819   5.472  11.491  1.8654 -0.9121 -0.8771
18906TIP3   OH278208   1.324   0.800  13.181  0.1093  0.3560 -0.0844
18906TIP3    H178209   1.409   0.802  13.225  0.2020 -0.5155 -0.1919
18906TIP3    H278210   1.278   0.726  13.221 -0.0166 -0.1113 -1.0410
18907TIP3   OH278211   3.299   6.424   1.095 -0.4630 -0.2842  0.9235
18907TIP3    H178212   3.216   6.467   1.079  0.1615  0.1007 -1.7947
18907TIP3    H278213   3.363   6.495   1.099  0.4679 -0.6875 -2.8484
18908TIP3   OH278214   0.165   5.005  11.758 -0.2689  0.1620 -0.0469
18908TIP3    H178215   0.090   4.968  11.805  0.0909 -0.4278  0.0821
18908TIP3    H278216   0.194   4.934  11.701  0.3926  0.2745  0.1440
18909TIP3   OH278217   0.153   0.632  12.895  0.4047 -0.2637 -0.2733
18909TIP3    H178218   0.231   0.687  12.887  1.3284 -1.4357  0.4761
18909TIP3    H278219   0.150   0.585  12.811 -0.1588  0.5986 -0.7535
18910TIP3   OH278220   4.095   4.951   5.242  0.2597 -0.5424  0.1301
18910TIP3    H178221   4.092   4.955   5.338  1.0115 -0.1911  0.1424
18910TIP3    H278222   4.184   4.922   5.222 -0.1819 -1.5289 -0.4429
18911TIP3   OH278223   6.524   2.225   5.582  0.1315 -0.4129  0.7128
18911TIP3    H178224   6.533   2.244   5.675  2.9185 -0.1776  0.4931
18911TIP3    H278225   6.441   2.179   5.574 -0.5882  0.3388  3.1690
18912TIP3   OH278226   4.492   4.077  16.325  0.1047 -0.1347  0.6685
18912TIP3    H178227   4.484   4.046  16.235  0.4663 -0.3121  0.6921
18912TIP3    H278228   4.488   3.997  16.378 -2.4364  0.1406  0.9955
18913TIP3   OH278229   5.471   5.505   3.287 -0.1499  0.5879  0.4246
18913TIP3    H178230   5.508   5.506   3.375  0.9193  1.6977 -0.0220
18913TIP3    H278231   5.519   5.572   3.239  1.0826 -1.6491 -1.7303
18914TIP3   OH278232   1.736   5.469  10.824 -0.6321  0.4299 -0.3856
18914TIP3    H178233   1.644   5.480  10.800 -0.4499  0.4962 -1.0709
18914TIP3    H278234   1.783   5.536  10.775 -0.3352  1.1475  0.8283
18915TIP3   OH278235   5.515   1.318  12.656 -0.2966 -0.7152 -0.1752
18915TIP3    H178236   5.513   1.249  12.590 -1.9701 -0.1963 -0.7489
18915TIP3    H278237   5.434   1.305  12.706 -0.3610  0.4707  0.0594
18916TIP3   OH278238   6.126   1.776  12.616  0.2924 -0.6763  0.1503
18916TIP3    H178239   6.033   1.798  12.623  0.7491  1.7187 -0.1805
18916TIP3    H278240   6.128   1.696  12.564 -1.5127  1.2598 -3.3075
18917TIP3   OH278241   4.439   6.790  13.191  0.0789  0.2205  0.4668
18917TIP3    H178242   4.416   6.699  13.212  0.3904  0.3859  1.5698
18917TIP3    H278243   4.413   6.800  13.100 -0.1133 -0.9296  0.3768
18918TIP3   OH278244   5.849   5.500  15.447  0.0795  0.0746 -0.3573
18918TIP3    H178245   5.756   5.521  15.440 -0.2560 -0.3565  2.0955
18918TIP3    H278246   5.854   5.406  15.429  0.0534  0.0910 -0.4519
18919TIP3   OH278247   3.504   1.731   2.976 -0.0183  0.3705 -0.0107
18919TIP3    H178248   3.551   1.692   3.049  1.1488 -1.2048 -1.5144
18919TIP3    H278249   3.528   1.824   2.980 -0.2238  0.3846  1.7325
18920TIP3   OH278250   1.767   5.722  11.958 -0.0855 -0.3993 -0.5320
18920TIP3    H178251   1.716   5.714  12.038 -0.0883 -0.9664 -0.5834
18920TIP3    H278252   1.858   5.721  11.987 -0.0689 -1.2032 -0.5654
18921TIP3   OH278253   6.176   2.139  16.326  0.0075  0.1394  0.4373
18921TIP3    H178254   6.108   2.207  16.327  0.7208  0.9448 -1.3130
18921TIP3    H278255   6.210   2.140  16.236  2.1454 -0.4198  1.1691
18922TIP3   OH278256   1.232   5.041  11.176  0.1064 -0.5957 -0.3906
18922TIP3    H178257   1.176   5.014  11.249  0.3525  0.6862  0.2898
18922TIP3    H278258   1.177   5.097  11.122  0.5295  0.1581 -0.0545
18923TIP3   OH278259   6.017   6.667   1.210  0.3847  0.6592 -0.3066
18923TIP3    H178260   6.056   6.740   1.161  2.0721  0.5587  0.8022
18923TIP3    H278261   6.054   6.589   1.170 -0.6432  0.4310 -0.8411
18924TIP3   OH278262   2.515   2.497  12.093 -0.0116  0.4348  0.2201
18924TIP3    H178263   2.494   2.552  12.018 -0.2489 -0.3378 -0.2849
18924TIP3    H278264   2.525   2.559  12.166 -1.2698  1.0633 -0.1178
18925TIP3   OH278265   3.910   6.220   2.960 -0.4511  0.3587  0.7180
18925TIP3    H178266   3.874   6.289   2.905  0.3395  0.8602  0.8113
18925TIP3    H278267   3.954   6.267   3.031  0.3609 -0.2265  0.6104
18926TIP3   OH278268   4.713   5.901   6.407 -0.5575  0.1605  0.4690
18926TIP3    H178269   4.743   5.943   6.487  2.2825 -0.4009 -0.2175
18926TIP3    H278270   4.660   5.827   6.438  1.2644 -0.6249  1.9288
18927TIP3   OH278271   1.043   1.426  14.104  0.1186  0.7721 -0.1680
18927TIP3    H178272   1.024   1.495  14.041  0.3290  1.7473  0.7968
18927TIP3    H278273   1.043   1.345  14.053 -0.7500  1.4106 -1.2113
18928TIP3   OH278274   5.378   4.671   4.248 -0.4903 -0.1296  0.1637
18928TIP3    H178275   5.408   4.706   4.164  0.7060 -1.8249 -0.1722
18928TIP3    H278276   5.422   4.724   4.314 -1.4346  1.2168 -0.2530
18929TIP3   OH278277   0.938   0.196  10.212  0.2739 -0.6265  0.2733
18929TIP3    H178278   0.929   0.148  10.293 -0.1473  0.2408  0.7621
18929TIP3    H278279   0.886   0.147  10.148 -0.9561 -0.3012  0.9997
18930TIP3   OH278280   2.291   5.959   1.986 -0.1321 -0.0090 -0.6285
18930TIP3    H178281   2.225   6.028   1.979  0.8009  0.8900 -0.5970
18930TIP3    H278282   2.252   5.885   1.938 -1.5734  0.1720  0.1916
18931TIP3   OH278283   3.286   2.474  12.421 -0.0227 -0.1317  0.2755
18931TIP3    H178284   3.341   2.540  12.378 -2.4013  0.7628 -1.6804
18931TIP3    H278285   3.208   2.523  12.448 -0.5061 -1.5935  1.6425
18932TIP3   OH278286   0.768   5.954   0.248 -0.1217  0.1960  0.0934
18932TIP3    H178287   0.720   5.929   0.327 -0.1115  1.0497  0.3860
18932TIP3    H278288   0.847   5.997   0.282  0.9120 -1.2548 -0.3746
18933TIP3   OH278289   0.860   2.421   1.791 -0.1497  0.2920 -0.2975
18933TIP3    H178290   0.784   2.477   1.804 -0.3097 -0.3375  1.7690
18933TIP3    H278291   0.884   2.392   1.879  1.2212 -1.1772 -1.1071
18934TIP3   OH278292   5.181   2.635   2.253 -0.1582 -0.3590  0.1755
18934TIP3    H178293   5.273   2.635   2.278  0.5051  1.0783 -1.9866
18934TIP3    H278294   5.149   2.721   2.282 -1.5093 -1.6724  2.9339
18935TIP3   OH278295   6.639   4.003  12.883  0.1549 -0.1001 -0.3024
18935TIP3    H178296   6.554   3.962  12.902 -0.1356  0.8282  0.4685
18935TIP3    H278297   6.667   3.962  12.801 -0.1376 -1.8176  0.3983
18936TIP3   OH278298   4.262   2.021   5.418 -0.5924  0.1326  0.1147
18936TIP3    H178299   4.316   2.084   5.370  0.6048  0.2042  1.4723
18936TIP3    H278300   4.308   1.938   5.408 -1.4949 -0.2815 -0.6349
18937TIP3   OH278301   6.684   2.374   0.424  0.1681  0.1310  0.2799
18937TIP3    H178302   6.703   2.423   0.504  1.2573  0.2174 -0.0225
18937TIP3    H278303   6.646   2.292   0.455  0.4077  0.2400  0.8783
18938TIP3   OH278304   5.996   2.442  11.437 -0.2977  0.2704  0.8698
18938TIP3    H178305   6.074   2.408  11.482 -0.3975 -2.3727 -0.7538
18938TIP3    H278306   6.018   2.438  11.344 -1.3022  2.4389  0.4881
18939TIP3   OH278307   2.303   2.685   2.124  0.1655  0.1978  0.3491
18939TIP3    H178308   2.398   2.694   2.128  0.3808 -1.0215 -0.9763
18939TIP3    H278309   2.277   2.665   2.214  1.3922 -1.1423  0.4500
18940TIP3   OH278310   0.751   2.138  12.018  0.4617 -0.0964 -0.2236
18940TIP3    H178311   0.696   2.060  12.016  1.3801 -0.9879  3.3845
18940TIP3    H278312   0.694   2.208  11.984 -1.4228 -1.7079 -0.5944
18941TIP3   OH278313   0.374   2.433  13.107  0.4181  0.0282  0.4021
18941TIP3    H178314   0.378   2.426  13.202 -1.8181 -0.0409  0.5443
18941TIP3    H278315   0.407   2.349  13.075 -1.4157 -1.0941  1.2589
18942TIP3   OH278316   5.106   5.767   3.644  0.2088  0.6359  0.1389
18942TIP3    H178317   5.089   5.695   3.705  1.3210  0.0992 -0.1511
18942TIP3    H278318   5.073   5.845   3.688  1.5445  0.3592  1.7160
18943TIP3   OH278319   3.777   0.193   2.170 -0.1701 -0.3905  0.0889
18943TIP3    H178320   3.833   0.128   2.125  0.2789 -0.3984  0.6480
18943TIP3    H278321   3.820   0.277   2.153 -0.8743 -0.1938 -0.8235
18944TIP3   OH278322   5.266   6.749   6.147  0.3077  0.6410  0.7364
18944TIP3    H178323   5.237   6.803   6.073 -0.3424  0.4870  0.8738
18944TIP3    H278324   5.219   6.666   6.136 -0.6057  0.9844  1.8958
18945TIP3   OH278325   6.573   4.633   0.170  0.2018  0.1646  0.7564
18945TIP3    H178326   6.595   4.629   0.263  1.2527  1.0458  0.5661
18945TIP3    H278327   6.653   4.608   0.125 -0.3588 -0.4698  0.0784
18946TIP3   OH278328   5.322   0.220  13.788 -0.4637  0.1707  0.1656
18946TIP3    H178329   5.389   0.218  13.857 -0.0674 -0.4672 -0.2349
18946TIP3    H278330   5.305   0.313  13.774 -0.5673  0.3100  1.1449
18947TIP3   OH278331   0.992   3.985  16.989  0.0587 -0.1925  0.2581
18947TIP3    H178332   0.928   4.030  17.043 -0.0658 -0.6362  0.4900
18947TIP3    H278333   0.974   3.892  17.003  0.7916 -0.3242  0.3760
18948TIP3   OH278334   2.068   0.524  13.394  0.0620  0.1355  0.1737
18948TIP3    H178335   2.030   0.595  13.447  1.2097  0.6281  0.3517
18948TIP3    H278336   2.011   0.519  13.317  1.1749  2.7513 -0.9319
18949TIP3   OH278337   0.456   0.540   2.992  0.3901 -0.1829 -1.0943
18949TIP3    H178338   0.456   0.574   3.081 -1.4493 -0.5184 -0.9280
18949TIP3    H278339   0.427   0.613   2.938 -0.1675 -0.4701 -1.1886
18950TIP3   OH278340   4.597   2.493   2.690 -0.0183 -0.6390  0.7367
18950TIP3    H178341   4.653   2.496   2.612  0.0884  1.2248  0.8610
18950TIP3    H278342   4.532   2.426   2.669  0.9830 -1.3545 -0.2611
18951TIP3   OH278343   0.549   1.693   2.674 -0.5819  0.1642 -0.0424
18951TIP3    H178344   0.599   1.628   2.624  0.5175  0.2196  0.9293
18951TIP3    H278345   0.590   1.776   2.652 -1.2840  0.4102 -0.4419
18952TIP3   OH278346   0.288   0.038   4.583 -0.2586 -0.3966  0.0892
18952TIP3    H178347   0.274  -0.036   4.525 -2.1551  0.3972 -0.5661
18952TIP3    H278348   0.283   0.002   4.671 -1.0414 -1.0915 -0.2249
18953TIP3   OH278349   2.152   0.331  15.258  0.5922 -0.1708  0.4910
18953TIP3    H178350   2.210   0.290  15.323  1.2469  0.0595  0.0664
18953TIP3    H278351   2.172   0.424  15.264 -0.9602  0.1290  1.5145
18954TIP3   OH278352   3.657   5.295   0.655 -0.5253 -0.1870 -0.0360
18954TIP3    H178353   3.737   5.269   0.700 -0.6580  0.0512  0.3482
18954TIP3    H278354   3.679   5.294   0.562 -0.3232 -0.9557  0.0140
18955TIP3   OH278355   2.362   4.451   0.249  0.0439  0.4316 -0.0342
18955TIP3    H178356   2.269   4.470   0.258 -0.1181 -0.6567  0.8267
18955TIP3    H278357   2.367   4.387   0.178  0.1700  0.6500 -0.2263
18956TIP3   OH278358   3.494   2.795  14.473 -0.3587  0.4587 -0.0444
18956TIP3    H178359   3.402   2.801  14.449 -1.0394  0.6023  2.3275
18956TIP3    H278360   3.510   2.701  14.482 -0.3844  0.4486 -0.1083
18957TIP3   OH278361   5.733   4.943   2.534 -0.2524 -0.1979  0.1655
18957TIP3    H178362   5.824   4.940   2.503  0.8923  0.2174  3.1982
18957TIP3    H278363   5.721   4.861   2.581 -2.0721 -0.9950 -1.5511
18958TIP3   OH278364   0.519   4.152  12.712 -0.4467 -0.1204  0.3827
18958TIP3    H178365   0.484   4.091  12.647 -1.7698  1.4944 -0.4864
18958TIP3    H278366   0.552   4.226  12.661  0.3162  0.3101  1.4537
18959TIP3   OH278367   4.054   4.971  13.559  0.4918  0.3874 -0.3803
18959TIP3    H178368   4.053   4.892  13.506  0.2498  0.4484 -0.4679
18959TIP3    H278369   4.023   4.943  13.645  2.5307 -0.0667  0.2459
18960TIP3   OH278370   4.327   1.004   5.661 -0.0501  0.8169  0.2502
18960TIP3    H178371   4.245   1.053   5.655 -0.5615  0.2153  1.8116
18960TIP3    H278372   4.391   1.068   5.692 -0.1624  1.0412  0.0217
18961TIP3   OH278373   2.451   1.115  16.652 -0.3322  0.1106 -0.3180
18961TIP3    H178374   2.397   1.059  16.707 -0.6790  0.0151 -0.7537
18961TIP3    H278375   2.408   1.115  16.566  0.0382  0.4935 -0.5127
18962TIP3   OH278376   6.348   3.325  15.745 -0.4166  0.0538 -0.0113
18962TIP3    H178377   6.394   3.321  15.661  0.6810 -0.1503  0.5684
18962TIP3    H278378   6.375   3.409  15.783  0.3294 -0.5214  0.7827
18963TIP3   OH278379   1.635   0.857  16.417  0.3836 -0.0621 -0.2820
18963TIP3    H178380   1.654   0.892  16.330  1.0668 -0.1658 -0.1795
18963TIP3    H278381   1.625   0.763  16.402 -0.0025 -0.0178 -0.3229
18964TIP3   OH278382   3.477   3.908   5.051 -0.4577 -0.7702  0.0163
18964TIP3    H178383   3.492   3.852   4.975 -3.3700  0.5336 -1.6572
18964TIP3    H278384   3.407   3.865   5.099 -1.6321  0.5610 -0.4386
18965TIP3   OH278385   0.994   0.193  13.414 -0.1770 -0.8361 -0.1741
18965TIP3    H178386   1.086   0.179  13.436 -0.4367 -3.2340 -0.4030
18965TIP3    H278387   0.990   0.184  13.319 -0.7592 -1.4959 -0.0946
18966TIP3   OH278388   2.924   0.069  14.756  0.0394  0.2735  0.0122
18966TIP3    H178389   3.016   0.087  14.740  0.0784 -0.6182 -0.8388
18966TIP3    H278390   2.880   0.099  14.676 -0.7535  2.9876  1.3279
18967TIP3   OH278391   1.492   1.456   1.479 -0.1800 -0.6057 -0.7361
18967TIP3    H178392   1.498   1.529   1.540 -1.3880 -1.1472  0.0660
18967TIP3    H278393   1.498   1.496   1.392  0.9451  0.2342 -0.2874
18968TIP3   OH278394   2.149   3.714   4.209 -0.4866 -0.3743  0.2047
18968TIP3    H178395   2.182   3.680   4.292  0.3117  1.4491  0.6937
18968TIP3    H278396   2.203   3.791   4.192 -1.8127  0.3156 -1.0999
18969TIP3   OH278397   5.199   2.588   0.546  0.7441 -0.0797 -0.3703
18969TIP3    H178398   5.150   2.508   0.562 -0.0502  0.6072  0.8001
18969TIP3    H278399   5.290   2.560   0.541  0.3326 -1.2462 -1.6349
18970TIP3   OH278400   2.303   3.345   0.970  0.5416 -0.3882  0.1971
18970TIP3    H178401   2.370   3.276   0.967  0.2957 -0.6122 -0.4738
18970TIP3    H278402   2.353   3.427   0.965  0.8247 -0.5218  0.7951
18971TIP3   OH278403   1.214   2.897   0.411  0.1311  0.3584  0.0729
18971TIP3    H178404   1.259   2.912   0.494  0.0305  1.5912 -0.0667
18971TIP3    H278405   1.140   2.841   0.432 -1.1611  2.3684  1.2586
18972TIP3   OH278406   6.752   5.266  11.048  0.1496  0.3888 -0.4879
18972TIP3    H178407   6.796   5.351  11.053  0.4900  0.1520  0.8830
18972TIP3    H278408   6.703   5.270  10.966  0.6192  1.6825 -0.7367
18973TIP3   OH278409   4.324   0.103   3.942 -0.4046  0.0417  0.0332
18973TIP3    H178410   4.312   0.172   4.007 -0.2896 -1.0775  1.2660
18973TIP3    H278411   4.388   0.140   3.881  0.1667  0.7736  1.0441
18974TIP3   OH278412   1.808   1.541   3.808 -0.2492  0.2851  0.5735
18974TIP3    H178413   1.786   1.466   3.863 -0.7328  0.4848  0.6515
18974TIP3    H278414   1.862   1.597   3.864  1.9736 -1.0091 -0.1371
18975TIP3   OH278415   2.337   2.728   1.703  0.2988 -0.3870 -0.2166
18975TIP3    H178416   2.385   2.766   1.777  0.0071  1.5650 -0.9477
18975TIP3    H278417   2.341   2.796   1.636 -1.6352 -1.0535 -1.0660
18976TIP3   OH278418   6.676   1.071  12.478 -0.8083  0.5421  0.8476
18976TIP3    H178419   6.715   1.120  12.405 -2.1723  2.2106  1.1868
18976TIP3    H278420   6.647   0.989  12.438  1.9646 -0.3334  0.3587
18977TIP3   OH278421   6.355   4.200   6.955 -0.0061  0.3933 -0.0044
18977TIP3    H178422   6.356   4.288   6.918 -1.3390  1.0719  1.4391
18977TIP3    H278423   6.430   4.198   7.014 -0.4013  0.8335  0.5207
18978TIP3   OH278424   1.187   4.144   2.643 -0.1808 -0.3704 -0.1008
18978TIP3    H178425   1.232   4.195   2.710 -0.7867 -0.5787  0.4692
18978TIP3    H278426   1.241   4.156   2.564  0.5347 -0.1301  0.4141
18979TIP3   OH278427   3.411   1.350  12.255  0.2167 -0.1379  0.5783
18979TIP3    H178428   3.411   1.325  12.347  0.6819  1.0395  0.9174
18979TIP3    H278429   3.339   1.301  12.216 -0.2345 -0.3473  1.6576
18980TIP3   OH278430   3.500   1.376  14.367 -0.1343  0.2687  0.2473
18980TIP3    H178431   3.425   1.364  14.309  0.1293 -0.9298  0.1280
18980TIP3    H278432   3.477   1.452  14.420 -1.3441  0.0441  0.0752
18981TIP3   OH278433   3.190   0.574  11.622  0.0699 -0.3244 -0.1570
18981TIP3    H178434   3.284   0.585  11.628  0.0489 -1.0017  2.9984
18981TIP3    H278435   3.154   0.642  11.679 -1.0876 -2.4050  1.7665
18982TIP3   OH278436   6.485   2.731  14.899 -0.1416 -0.5708 -0.1686
18982TIP3    H178437   6.498   2.809  14.953  1.6738 -1.1842  0.3609
18982TIP3    H278438   6.439   2.763  14.821 -1.2852  0.6337  0.9345
18983TIP3   OH278439   3.036   4.465   3.082 -0.0676  0.3602  0.6027
18983TIP3    H178440   3.091   4.517   3.024  0.8181 -0.2581  0.8679
18983TIP3    H278441   3.011   4.525   3.152 -1.0907  1.0923 -0.3574
18984TIP3   OH278442   6.738   2.904   2.208  0.2573  0.0585 -0.0438
18984TIP3    H178443   6.658   2.950   2.182  0.4685 -0.3418 -1.4752
18984TIP3    H278444   6.728   2.816   2.172 -0.3600 -1.2711  3.0743
18985TIP3   OH278445   0.577   1.995  16.070  0.3794  0.1846 -0.4056
18985TIP3    H178446   0.657   1.979  16.020 -0.3211 -2.0389 -0.9091
18985TIP3    H278447   0.541   1.908  16.087 -0.4668  0.9750  2.2858
18986TIP3   OH278448   2.018   0.175  13.576 -0.0529 -0.1777 -0.0696
18986TIP3    H178449   1.940   0.231  13.575 -0.0433 -0.1741 -1.1640
18986TIP3    H278450   2.076   0.217  13.639 -0.7742  0.0314  0.4764
18987TIP3   OH278451   2.079   2.045   0.680  0.2934  0.3464 -0.2419
18987TIP3    H178452   2.169   2.064   0.708  0.2234 -0.7114  0.7928
18987TIP3    H278453   2.025   2.069   0.755 -0.2689  0.7778 -0.7842
18988TIP3   OH278454   1.573   2.608  15.082  0.3796  0.6863 -0.2391
18988TIP3    H178455   1.598   2.592  15.173 -1.4000  0.3024  0.2266
18988TIP3    H278456   1.608   2.695  15.063 -1.4326  1.9711  1.7220
18989TIP3   OH278457   6.737   4.165   1.075 -0.1194  0.1588  0.7532
18989TIP3    H178458   6.652   4.207   1.061 -0.1084 -0.4250 -1.4163
18989TIP3    H278459   6.800   4.237   1.074 -0.3319  0.3451 -0.4867
18990TIP3   OH278460   1.684   6.684  15.230  0.0885 -0.5634 -0.0226
18990TIP3    H178461   1.656   6.619  15.165 -1.2098 -0.4130  0.3665
18990TIP3    H278462   1.701   6.763  15.179  0.6487 -0.8944 -0.3655
18991TIP3   OH278463   3.720   5.379   5.685  0.1898 -0.2454 -0.4218
18991TIP3    H178464   3.747   5.334   5.765 -2.2388 -0.9812  0.0466
18991TIP3    H278465   3.642   5.332   5.656 -0.6313  1.7530 -1.6452
18992TIP3   OH278466   5.335   6.229   3.537  0.2819  0.2264  0.3444
18992TIP3    H178467   5.296   6.231   3.450  0.9186 -0.0144  0.0510
18992TIP3    H278468   5.391   6.152   3.537  1.9646  1.3966  0.2157
18993TIP3   OH278469   5.440   0.542  15.276 -0.5135  0.1977  0.3041
18993TIP3    H178470   5.490   0.462  15.259  0.5893  0.8066  0.5366
18993TIP3    H278471   5.355   0.527  15.235  0.1875 -0.5034 -0.9390
18994TIP3   OH278472   5.828   4.516  12.069  0.0887  0.0437 -0.1689
18994TIP3    H178473   5.878   4.456  12.124 -0.1807 -0.9047 -0.9372
18994TIP3    H278474   5.808   4.590  12.127  1.2193 -0.1699  0.5244
18995TIP3   OH278475   3.287   5.794   5.613  0.3437  0.4114  0.3303
18995TIP3    H178476   3.363   5.751   5.574 -0.3448  0.1718 -0.7848
18995TIP3    H278477   3.217   5.730   5.607 -0.6175  1.5389 -1.0609
18996TIP3   OH278478   0.334   1.079  14.140 -0.1902 -0.4161 -0.3868
18996TIP3    H178479   0.251   1.101  14.097 -0.2638 -0.2748 -0.1752
18996TIP3    H278480   0.314   1.083  14.233  0.2172  0.2898 -0.3190
18997TIP3   OH278481   5.437   3.101   4.877 -0.3573  0.3917 -0.1299
18997TIP3    H178482   5.414   3.119   4.786 -1.7864 -0.9299 -0.0597
18997TIP3    H278483   5.405   3.177   4.925 -2.8635 -0.4655 -0.3083
18998TIP3   OH278484   1.866   4.409   4.213  0.5104  0.2841  0.2898
18998TIP3    H178485   1.958   4.392   4.235  0.0840 -1.0855  1.0869
18998TIP3    H278486   1.871   4.464   4.135  2.0143  0.8421  0.7357
18999TIP3   OH278487   6.324   4.930  12.223  0.6244  0.1443 -0.3250
18999TIP3    H178488   6.406   4.913  12.177 -0.4056  0.7812 -2.5115
18999TIP3    H278489   6.308   5.024  12.209  0.0501  0.2678  1.0259
19000TIP3   OH278490   0.188   0.148  10.845  0.4690 -0.0616 -0.2569
19000TIP3    H178491   0.158   0.076  10.789  2.3537 -0.1848 -1.1717
19000TIP3    H278492   0.264   0.113  10.891  1.0812  1.1554 -0.2913
19001TIP3   OH278493   5.807   2.546   3.254 -0.4543  0.2979  0.1381
19001TIP3    H178494   5.713   2.562   3.256 -0.6105 -0.6344  0.5170
19001TIP3    H278495   5.827   2.530   3.162 -0.8977 -0.8070  0.2246
19002TIP3   OH278496   2.490   4.650   3.479 -0.4634  0.5546  0.0490
19002TIP3    H178497   2.570   4.641   3.427  0.3647  0.3483  1.3213
19002TIP3    H278498   2.474   4.745   3.479 -1.4144  0.4519 -1.8980
19003TIP3   OH278499   3.637   5.514  12.458 -0.0082 -0.0157  0.1506
19003TIP3    H178500   3.716   5.565  12.440  0.6583 -1.0258  0.1471
19003TIP3    H278501   3.669   5.432  12.496 -1.1171 -0.0017  1.1948
19004TIP3   OH278502   3.806   6.811  12.632  0.5541 -0.2636 -0.4279
19004TIP3    H178503   3.774   6.720  12.630  1.3341 -0.5614  0.4258
19004TIP3    H278504   3.878   6.810  12.694 -0.6300  1.3400  1.0531
19005TIP3   OH278505   3.573   3.179   4.200 -0.2431  0.2074 -0.2044
19005TIP3    H178506   3.586   3.184   4.295 -1.0861  1.0010 -0.1171
19005TIP3    H278507   3.577   3.086   4.180 -2.3964 -0.1872  0.9768
19006TIP3   OH278508   0.821   1.441  16.697  0.4143  0.2637 -0.6178
19006TIP3    H178509   0.902   1.395  16.674  0.9557  0.9489 -0.1255
19006TIP3    H278510   0.798   1.490  16.618  1.0607  0.8885 -0.4257
19007TIP3   OH278511   1.637   6.523   3.217  0.4454 -0.0361 -0.3260
19007TIP3    H178512   1.572   6.472   3.266  0.4400  0.4183  0.1486
19007TIP3    H278513   1.615   6.509   3.125 -0.2635  0.0457 -0.1686
19008TIP3   OH278514   3.990   0.678   2.503 -0.5256  0.5054  0.3349
19008TIP3    H178515   3.913   0.734   2.497 -0.8634  0.0331  0.2604
19008TIP3    H278516   3.962   0.594   2.467  0.2682  0.5830 -0.4847
19009TIP3   OH278517   0.978   2.204  13.587  0.5275 -0.3969 -0.7711
19009TIP3    H178518   0.969   2.280  13.528 -0.3966  2.6622  2.8973
19009TIP3    H278519   1.065   2.170  13.569  1.4775  2.2929 -1.8242
19010TIP3   OH278520   2.148   4.363   0.687 -0.7033  0.5055 -1.0244
19010TIP3    H178521   2.191   4.449   0.693 -3.5344  2.0683 -1.4882
19010TIP3    H278522   2.135   4.349   0.593  0.4749 -0.8841 -1.0142
19011TIP3   OH278523   2.730   4.782  14.342 -0.1564 -0.7242  0.1560
19011TIP3    H178524   2.685   4.861  14.372 -0.8220 -1.1111  0.2144
19011TIP3    H278525   2.704   4.714  14.404 -0.6441 -1.2752 -0.6273
19012TIP3   OH278526   3.361   3.770   6.325 -0.5678 -0.1732 -0.1235
19012TIP3    H178527   3.337   3.721   6.404  0.5624 -1.4215 -0.5139
19012TIP3    H278528   3.448   3.806   6.345 -0.6798  0.2918 -0.4627
19013TIP3   OH278529   2.409   0.851  12.847  0.3589  0.1053 -0.7589
19013TIP3    H178530   2.426   0.921  12.909 -1.0854  0.0986 -0.3091
19013TIP3    H278531   2.494   0.808  12.835  0.7304  0.2432  1.0482
19014TIP3   OH278532   1.625   6.365  11.000 -0.1260  0.0113 -0.0972
19014TIP3    H178533   1.633   6.458  11.023 -1.7845  0.1645 -0.0050
19014TIP3    H278534   1.677   6.355  10.921  0.8940  0.7904  0.4579
19015TIP3   OH278535   0.308   1.124   1.708  0.4738  0.8264  0.5935
19015TIP3    H178536   0.242   1.156   1.770  1.3015  1.3969  1.2023
19015TIP3    H278537   0.321   1.197   1.647 -0.6236  0.1265 -0.5177
19016TIP3   OH278538   1.532   2.787  16.914 -0.1181  0.3588 -0.0561
19016TIP3    H178539   1.616   2.766  16.955 -0.7199  0.4704  1.2702
19016TIP3    H278540   1.530   2.732  16.836  1.4052  0.7291 -0.4000
19017TIP3   OH278541   2.657   4.210   2.488 -0.2122 -0.4499 -0.1446
19017TIP3    H178542   2.682   4.221   2.580  0.6480 -1.6790 -0.2025
19017TIP3    H278543   2.727   4.157   2.451 -0.1603  0.6699 -1.7242
19018TIP3   OH278544   0.096   1.064   5.051  0.1855  0.1196  0.7672
19018TIP3    H178545   0.150   1.107   4.985  0.5138 -0.1083  0.8813
19018TIP3    H278546   0.149   0.989   5.080  0.0552  0.2217  1.2906
19019TIP3   OH278547   4.557   2.065  17.275  0.4153 -0.1046  0.0020
19019TIP3    H178548   4.540   2.007  17.349  0.2378  0.1228  0.1376
19019TIP3    H278549   4.485   2.048  17.214  1.0838 -1.0058 -0.5609
19020TIP3   OH278550   5.191   4.079  14.111  0.1022 -0.5071 -0.1802
19020TIP3    H178551   5.127   4.105  14.044  0.0477 -0.5407 -0.1416
19020TIP3    H278552   5.231   4.161  14.139  0.3838 -0.5297 -0.5138
19021TIP3   OH278553   1.707   0.909   0.444 -0.3489 -0.1796  0.6484
19021TIP3    H178554   1.783   0.966   0.440 -0.7332  0.3031  0.1266
19021TIP3    H278555   1.730   0.834   0.390  0.7306 -1.2435  2.4770
19022TIP3   OH278556   3.573   2.652   5.931  0.3388  0.4779  0.7941
19022TIP3    H178557   3.653   2.666   5.880 -0.0166  2.7964  0.7616
19022TIP3    H278558   3.585   2.566   5.971  2.6881  0.5884  0.4875
19023TIP3   OH278559   5.646   4.416  16.896 -0.3370 -0.0281 -0.9014
19023TIP3    H178560   5.717   4.449  16.841 -0.6602 -0.4462 -1.5866
19023TIP3    H278561   5.638   4.323  16.872  0.9079 -0.7795  1.3720
19024TIP3   OH278562   3.631   5.161  15.328 -0.3341 -0.4190  0.8516
19024TIP3    H178563   3.586   5.170  15.412  1.3094 -0.4108  1.7678
19024TIP3    H278564   3.667   5.248  15.311  2.9164 -1.3163  2.3110
19025TIP3   OH278565   2.942   4.731   2.329 -0.8326  0.2471  0.3630
19025TIP3    H178566   2.917   4.640   2.314  2.8743 -0.6965 -1.0965
19025TIP3    H278567   2.935   4.742   2.424 -1.2278 -1.5961  0.5894
19026TIP3   OH278568   3.748   6.598  10.698  0.1551 -0.2983 -0.6362
19026TIP3    H178569   3.769   6.684  10.661 -0.4752 -0.3080 -1.0221
19026TIP3    H278570   3.710   6.549  10.625  1.7807 -1.3944 -0.7949
19027TIP3   OH278571   3.057   5.409   5.992 -0.5685 -0.1025 -0.7119
19027TIP3    H178572   3.067   5.496   5.954 -2.0658  0.7230  0.6781
19027TIP3    H278573   3.087   5.419   6.082 -1.0815 -0.9332 -0.4375
19028TIP3   OH278574   0.184   5.194  10.742 -1.2940  0.3239  0.1385
19028TIP3    H178575   0.132   5.223  10.667 -0.3509  1.0722 -0.2384
19028TIP3    H278576   0.253   5.259  10.750 -0.6348 -0.4478  0.8744
19029TIP3   OH278577   2.672   1.830   1.204  0.2287  0.5062  0.0732
19029TIP3    H178578   2.633   1.775   1.136  1.8919  0.0883 -0.5817
19029TIP3    H278579   2.620   1.910   1.203 -0.8085 -0.1522 -0.5247
19030TIP3   OH278580   3.990   1.149  15.969  0.2202 -0.3125 -0.6727
19030TIP3    H178581   4.033   1.228  15.935  1.9657 -0.1241  1.7552
19030TIP3    H278582   3.896   1.168  15.961  0.5517  0.7897 -2.7256
19031TIP3   OH278583   2.763   0.717  15.314  0.0429 -0.0200  0.3814
19031TIP3    H178584   2.813   0.783  15.265 -0.8192  0.9450  0.7627
19031TIP3    H278585   2.739   0.652  15.248 -2.4907  2.0634 -0.9590
19032TIP3   OH278586   5.291   4.480   0.991 -0.2638 -0.1752 -0.4895
19032TIP3    H178587   5.369   4.440   1.027 -0.8520 -2.2617 -1.3958
19032TIP3    H278588   5.222   4.414   1.002 -1.7731  1.3450 -0.2818
19033TIP3   OH278589   6.386   1.409  15.837 -0.3358  0.0005 -0.0821
19033TIP3    H178590   6.326   1.335  15.846 -0.8512  0.3855 -0.3517
19033TIP3    H278591   6.455   1.377  15.778 -0.2298 -0.4661  0.2905
19034TIP3   OH278592   0.821   1.270  11.551 -0.5285  0.0357 -0.4902
19034TIP3    H178593   0.891   1.231  11.604 -1.2644 -0.4816  0.1192
19034TIP3    H278594   0.776   1.195  11.512 -0.6461  0.3760 -1.0249
19035TIP3   OH278595   3.863   6.611  16.935 -0.3239 -0.2665  0.0875
19035TIP3    H178596   3.933   6.546  16.945  0.6193  0.6367 -0.3571
19035TIP3    H278597   3.833   6.601  16.844  0.3759  0.4175 -0.2371
19036TIP3   OH278598   3.422   0.231   6.294  0.1473  0.6090 -0.6360
19036TIP3    H178599   3.396   0.155   6.347  1.6649 -1.2651 -2.4155
19036TIP3    H278600   3.368   0.224   6.215 -1.5409  2.9349  0.2012
19037TIP3   OH278601   3.287   1.401  11.802 -0.2681 -0.3129 -0.4525
19037TIP3    H178602   3.213   1.401  11.863  0.6828  1.3803  0.7983
19037TIP3    H278603   3.347   1.335  11.836 -1.2139 -1.8015 -1.5589
19038TIP3   OH278604   1.431   3.125  12.670  0.2310 -0.3754  0.3565
19038TIP3    H178605   1.444   3.219  12.659 -0.0575 -0.3071  0.5973
19038TIP3    H278606   1.395   3.095  12.586  1.3626 -0.4664 -0.1168
19039TIP3   OH278607   4.151   6.006  14.592  0.1404  0.0098 -0.5811
19039TIP3    H178608   4.059   5.984  14.606  0.1213  0.6599  0.4495
19039TIP3    H278609   4.148   6.087  14.542  0.0857  0.9522  0.8623
19040TIP3   OH278610   1.118   2.093  13.331  0.2628 -0.4913 -0.2002
19040TIP3    H178611   1.075   2.036  13.394 -1.2560  1.3054  0.4994
19040TIP3    H278612   1.051   2.110  13.264  0.8785 -0.0217 -0.7127
19041TIP3   OH278613   3.004   0.261  14.948  0.4001 -0.1255  0.2326
19041TIP3    H178614   2.957   0.191  14.904  0.2891 -2.2520  3.3604
19041TIP3    H278615   2.968   0.342  14.912 -0.9348 -1.6507 -2.0617
19042TIP3   OH278616   5.361   2.947   3.024 -0.7211  0.2338 -0.0402
19042TIP3    H178617   5.321   2.980   2.944 -0.3906  0.1030 -0.2612
19042TIP3    H278618   5.303   2.876   3.052  1.1880 -2.4771 -2.3456
19043TIP3   OH278619   1.927   2.563   4.648  0.4134  0.3120 -0.0941
19043TIP3    H178620   1.960   2.588   4.735  0.0412 -0.7763  0.3708
19043TIP3    H278621   1.995   2.506   4.612 -0.4226 -1.0429  0.4116
19044TIP3   OH278622   0.398   3.879  13.044  0.1546  0.1818  0.2860
19044TIP3    H178623   0.322   3.900  12.989  1.5639  1.8511 -1.1567
19044TIP3    H278624   0.474   3.893  12.986  1.5782 -2.3756  1.3538
19045TIP3   OH278625   4.353   5.062   1.133  0.3618  0.3527  0.2501
19045TIP3    H178626   4.434   5.025   1.167 -1.0121 -0.9060  2.3802
19045TIP3    H278627   4.319   4.995   1.074 -1.1886 -1.1536  2.6763
19046TIP3   OH278628   2.334   2.230  13.677 -0.2846  0.1045  0.7627
19046TIP3    H178629   2.410   2.187  13.639 -1.9965 -1.2334 -1.4153
19046TIP3    H278630   2.327   2.194  13.765  0.9702 -0.5856  0.6038
19047TIP3   OH278631   0.538   5.957   5.439 -0.1255 -0.4291  0.0262
19047TIP3    H178632   0.560   6.042   5.401  0.9648  0.0419  1.6074
19047TIP3    H278633   0.507   5.978   5.528 -0.4339 -1.6386  0.2214
19048TIP3   OH278634   4.415   1.174   2.182  0.1193 -0.7377  0.0544
19048TIP3    H178635   4.409   1.146   2.273  1.1970  1.0311  0.7073
19048TIP3    H278636   4.424   1.269   2.186  1.0683 -0.6940 -1.8546
19049TIP3   OH278637   4.560   5.618  14.747 -0.1173 -0.3120 -0.5140
19049TIP3    H178638   4.508   5.601  14.669 -1.8472 -1.2971  0.7598
19049TIP3    H278639   4.542   5.709  14.769 -0.3486 -0.2993 -0.7659
19050TIP3   OH278640   4.314   1.086  13.118  0.0744 -0.0535  0.0196
19050TIP3    H178641   4.365   1.133  13.184  0.3460 -1.6914  1.0412
19050TIP3    H278642   4.256   1.152  13.081 -0.2670  0.8851  2.0788
19051TIP3   OH278643   0.298   5.065   1.799 -0.2637  0.2248  0.1091
19051TIP3    H178644   0.366   5.043   1.863  1.3779  2.0412 -0.9055
19051TIP3    H278645   0.239   5.124   1.847  0.6446  1.1385  0.1281
19052TIP3   OH278646   4.125   4.788   2.975 -0.5310  0.6972 -0.0629
19052TIP3    H178647   4.163   4.721   2.918  0.4250  1.1253  0.0427
19052TIP3    H278648   4.069   4.840   2.917 -1.6716 -0.4739 -0.0437
19053TIP3   OH278649   3.326   2.470   3.428 -0.0810 -0.2016 -0.4715
19053TIP3    H178650   3.236   2.441   3.416  0.1255 -0.9546 -0.2714
19053TIP3    H278651   3.318   2.560   3.459 -0.8178 -0.6641  0.7666
19054TIP3   OH278652   0.016   6.235  13.518  0.4634 -0.5405 -0.1498
19054TIP3    H178653  -0.017   6.165  13.461  1.7014 -0.5081 -0.9706
19054TIP3    H278654   0.097   6.263  13.475  1.4783 -0.5431  1.6768
19055TIP3   OH278655   0.056   3.802   3.021  0.0713 -0.0595 -0.3392
19055TIP3    H178656   0.096   3.809   3.108  0.7120 -0.8536 -0.5651
19055TIP3    H278657   0.120   3.841   2.962  0.0176 -0.3283 -0.5710
19056TIP3   OH278658   3.833   3.002  12.503  0.1092 -1.3184 -0.2262
19056TIP3    H178659   3.777   3.073  12.474  1.1515 -0.4174 -0.1031
19056TIP3    H278660   3.799   2.924  12.459 -1.9180 -1.0224  0.7155
19057TIP3   OH278661   1.386   1.156   5.061  0.1518  0.4765  0.0430
19057TIP3    H178662   1.336   1.223   5.109  1.7375  2.5380 -1.0138
19057TIP3    H278663   1.430   1.106   5.129 -0.4456  1.0224  0.8539
19058TIP3   OH278664   6.300   5.082  14.385  0.3225  0.1134 -0.0481
19058TIP3    H178665   6.212   5.117  14.373 -0.1406 -0.5092  1.2907
19058TIP3    H278666   6.358   5.146  14.342 -0.6458  1.4176  0.5125
19059TIP3   OH278667   1.602   4.859  10.828 -0.7556  0.1484 -0.1312
19059TIP3    H178668   1.517   4.847  10.872  0.1618 -0.8573  1.4808
19059TIP3    H278669   1.646   4.775  10.838  0.5606  0.7467 -0.6643
19060TIP3   OH278670   3.176   0.066   4.290  0.3344 -0.0555  0.3422
19060TIP3    H178671   3.187   0.141   4.232  0.0985 -0.6076 -0.4345
19060TIP3    H278672   3.133   0.101   4.367  0.0705  0.5774 -0.0845
19061TIP3   OH278673   5.804   2.477  15.429 -0.1446  0.4904 -0.1893
19061TIP3    H178674   5.845   2.530  15.498 -2.6416 -0.4125  2.1574
19061TIP3    H278675   5.797   2.537  15.354 -1.2447  2.9838  1.7539
19062TIP3   OH278676   6.800   0.256   5.113 -0.4865  0.1967  0.4395
19062TIP3    H178677   6.709   0.285   5.108 -0.5163  0.1047  0.4572
19062TIP3    H278678   6.811   0.227   5.204 -0.6111 -0.3675  0.2755
19063TIP3   OH278679   4.429   1.725   1.547 -0.1878 -0.2528  0.0886
19063TIP3    H178680   4.343   1.684   1.549  0.0280 -0.6869  1.3424
19063TIP3    H278681   4.419   1.803   1.601 -0.5053  1.2426 -2.0096
19064TIP3   OH278682   3.360   2.941   3.785 -0.2461 -0.2261 -0.0648
19064TIP3    H178683   3.326   2.941   3.695 -0.0830  0.6295 -0.1362
19064TIP3    H278684   3.379   2.849   3.803  0.0404 -0.3710 -1.0308
19065TIP3   OH278685   2.816   5.969  12.141  0.5262  0.2938 -0.1659
19065TIP3    H178686   2.863   5.913  12.203  0.3719  1.9498  1.5593
19065TIP3    H278687   2.804   5.914  12.063 -0.1210 -2.2388  1.5886
19066TIP3   OH278688   3.233   0.258  15.091 -0.0785 -0.3338  0.1538
19066TIP3    H178689   3.258   0.218  15.008 -1.4690 -0.6332 -0.1518
19066TIP3    H278690   3.141   0.281  15.079  0.0224  0.6854  1.2119
19067TIP3   OH278691   5.880   3.608   3.872  0.0067  0.5234  0.4400
19067TIP3    H178692   5.948   3.610   3.940  0.3293  0.3161  0.1243
19067TIP3    H278693   5.929   3.599   3.790 -0.4050  0.3323  0.2157
19068TIP3   OH278694   6.002   6.045   1.886 -0.1452  0.5578  0.1601
19068TIP3    H178695   5.963   6.101   1.820  0.2169  0.9344  0.2604
19068TIP3    H278696   6.020   5.963   1.841  0.7839  1.0573 -0.4142
19069TIP3   OH278697   0.423   6.398  12.020 -0.1560 -0.1947 -0.0347
19069TIP3    H178698   0.387   6.419  12.106 -0.2755 -2.1899  0.4372
19069TIP3    H278699   0.516   6.381  12.036 -0.5529 -2.5590  0.1222
19070TIP3   OH278700   1.839   1.330   4.041  1.0631 -0.4065  0.1570
19070TIP3    H178701   1.781   1.254   4.046 -1.0686  1.1235 -0.1437
19070TIP3    H278702   1.872   1.341   4.131  1.3508 -1.6144  0.2163
19071TIP3   OH278703   1.342   0.228   0.568 -0.2698  0.2206 -0.5934
19071TIP3    H178704   1.326   0.135   0.582  0.0395  0.3640  0.9359
19071TIP3    H278705   1.256   0.264   0.546 -0.2096 -0.5745 -2.2400
19072TIP3   OH278706   1.459   1.326  15.463  0.0601  0.0636  0.2162
19072TIP3    H178707   1.394   1.311  15.395 -0.8724 -1.5295  1.3780
19072TIP3    H278708   1.527   1.260  15.446  1.5016  1.7856 -1.0562
19073TIP3   OH278709   6.306   1.218  11.541 -0.5119 -0.5928  0.0440
19073TIP3    H178710   6.370   1.252  11.603  0.4959 -2.4400  0.0917
19073TIP3    H278711   6.230   1.275  11.551  0.7258  1.0009  0.7619
19074TIP3   OH278712   3.708   3.299  12.871  0.6846  0.2492 -0.3869
19074TIP3    H178713   3.797   3.295  12.907  1.0052  0.6116 -1.1090
19074TIP3    H278714   3.721   3.321  12.779 -0.1838  0.8869 -0.3646
19075TIP3   OH278715   4.145   2.804  12.341 -0.0089  0.1712  0.2992
19075TIP3    H178716   4.141   2.898  12.361  1.4079  0.1787  0.7016
19075TIP3    H278717   4.206   2.798  12.268  0.3403 -0.4738  0.6338
19076TIP3   OH278718   5.697   5.547   2.614  0.6256 -0.1800 -0.9507
19076TIP3    H178719   5.789   5.529   2.594  0.5822 -0.3974 -0.9593
19076TIP3    H278720   5.695   5.641   2.634  0.7100  0.0047 -1.7699
19077TIP3   OH278721   3.492   1.817   1.501  0.2597  0.1621 -0.6033
19077TIP3    H178722   3.454   1.905   1.512  1.5032  0.7493 -0.9205
19077TIP3    H278723   3.505   1.808   1.407  1.5317  0.2570 -0.4555
19078TIP3   OH278724   5.589   0.444  16.698  0.1629 -0.7122  0.0289
19078TIP3    H178725   5.533   0.498  16.755  0.2856  1.1469 -1.4996
19078TIP3    H278726   5.557   0.355  16.711 -2.5903  0.1535 -0.0602
19079TIP3   OH278727   5.404   1.301   5.620  0.5201 -0.2428 -0.4253
19079TIP3    H178728   5.458   1.260   5.552  2.7314  0.1164  0.9842
19079TIP3    H278729   5.458   1.373   5.654 -2.2250  2.3433 -1.1062
19080TIP3   OH278730   0.273   0.258  11.117 -0.2607  0.0573  0.1424
19080TIP3    H178731   0.223   0.319  11.063 -1.6796 -0.7476  0.4857
19080TIP3    H278732   0.320   0.204  11.054  1.6018  1.9150 -0.1510
19081TIP3   OH278733   0.696   0.628  11.707  0.1955 -0.1385 -0.1692
19081TIP3    H178734   0.660   0.607  11.794 -0.1342  1.0625  0.0146
19081TIP3    H278735   0.661   0.561  11.649 -1.3732  0.2732  0.2503
19082TIP3   OH278736   0.326   4.018   3.847  0.3042 -0.1876  0.1312
19082TIP3    H178737   0.407   4.057   3.880  0.3764 -0.2898  0.0745
19082TIP3    H278738   0.344   3.924   3.844  0.3510 -0.1695 -0.3282
19083TIP3   OH278739   3.096   0.935  11.415  0.0857 -0.1249  0.5892
19083TIP3    H178740   3.043   0.857  11.402  0.2427 -0.0948 -0.3326
19083TIP3    H278741   3.034   1.002  11.443  0.2900 -1.1397  3.8242
19084TIP3   OH278742   4.139   2.060  14.736  0.3797 -0.2221  0.6816
19084TIP3    H178743   4.059   2.110  14.716 -0.4468 -1.4785  0.7335
19084TIP3    H278744   4.112   1.999  14.804  2.1620  1.3230  2.8855
19085TIP3   OH278745   1.688   3.315   3.216  0.0055  0.2313  0.2825
19085TIP3    H178746   1.635   3.237   3.229 -0.1815  0.5908  1.8625
19085TIP3    H278747   1.712   3.343   3.305  3.2546 -0.1856 -0.3109
19086TIP3   OH278748   0.635   5.167  14.739 -0.8743  0.6453  0.0687
19086TIP3    H178749   0.681   5.098  14.787 -0.0253  1.0279 -0.1708
19086TIP3    H278750   0.612   5.127  14.655 -0.8454  0.5002  0.1292
19087TIP3   OH278751   0.237   3.049   4.030 -0.1469 -0.0701  0.0780
19087TIP3    H178752   0.155   3.003   4.047 -0.4397 -0.4008 -1.9779
19087TIP3    H278753   0.211   3.141   4.024 -0.4448 -0.2054 -0.8708
19088TIP3   OH278754   2.781   1.305   1.021  0.0171  0.5931 -0.1814
19088TIP3    H178755   2.855   1.267   0.974 -0.5440 -1.2683  0.3789
19088TIP3    H278756   2.821   1.351   1.095  0.6100 -1.0249  0.5422
19089TIP3   OH278757   2.107   5.903   4.569 -0.0632  0.1216  0.0536
19089TIP3    H178758   2.156   5.893   4.488  1.1576 -0.2554  0.8167
19089TIP3    H278759   2.018   5.874   4.547  0.6132 -1.4851 -0.7585
19090TIP3   OH278760   0.858   1.597   4.296 -0.1481 -0.3376 -0.4705
19090TIP3    H178761   0.818   1.511   4.310  0.2099 -0.3743  0.3851
19090TIP3    H278762   0.921   1.583   4.225  0.3196 -0.9250  0.0479
19091TIP3   OH278763   3.012   1.262  11.145 -0.6394  0.3906  0.3073
19091TIP3    H178764   3.086   1.294  11.196  0.1345  0.1889 -0.6482
19091TIP3    H278765   2.979   1.341  11.101 -1.0247  0.4871  0.7633
19092TIP3   OH278766   0.710   5.180   3.130  0.4772  0.1711  0.1487
19092TIP3    H178767   0.805   5.177   3.119  0.5410  0.6974  0.4949
19092TIP3    H278768   0.679   5.242   3.064  0.7332  2.3957  1.9746
19093TIP3   OH278769   2.429   1.418   1.777 -0.4192 -0.1559 -0.0760
19093TIP3    H178770   2.355   1.473   1.801  0.1361 -0.1361  1.7440
19093TIP3    H278771   2.454   1.375   1.859  2.2294  0.6309 -0.3950
19094TIP3   OH278772   1.094   6.340   4.097  0.0430  0.0026 -0.1934
19094TIP3    H178773   1.147   6.413   4.066  0.3969 -0.0017  0.3970
19094TIP3    H278774   1.141   6.262   4.067  1.3104 -0.0481  1.7727
19095TIP3   OH278775   1.818   2.053  15.474  0.7584 -0.0477 -0.1337
19095TIP3    H178776   1.819   1.965  15.436 -0.9259  0.2004 -0.8498
19095TIP3    H278777   1.883   2.101  15.424  1.8810 -0.9365  0.4320
19096TIP3   OH278778   3.985   4.034  14.937  0.4011 -0.1504  0.6206
19096TIP3    H178779   3.999   4.128  14.947 -0.8532  0.0986  0.2292
19096TIP3    H278780   3.901   4.018  14.981 -0.5645 -0.6600 -1.2959
19097TIP3   OH278781   1.316   6.431   5.215  0.1413 -0.1801 -0.1988
19097TIP3    H178782   1.258   6.439   5.290  1.1888  0.5919  0.5665
19097TIP3    H278783   1.397   6.393   5.250  0.5163 -0.1583 -0.9995
19098TIP3   OH278784   4.231   5.806  13.009 -0.0549 -0.3961 -0.0546
19098TIP3    H178785   4.140   5.788  13.030  0.1301 -0.3700  0.7992
19098TIP3    H278786   4.255   5.738  12.946 -1.1700  0.6544 -1.6973
19099TIP3   OH278787   6.125   4.903   0.395 -0.3489 -0.4378  0.1371
19099TIP3    H178788   6.133   4.906   0.300 -0.1898  1.9857  0.1745
19099TIP3    H278789   6.215   4.914   0.427 -0.3451 -1.6420  0.5957
19100TIP3   OH278790   0.953   6.355   4.327 -0.1592  0.1634  0.0920
19100TIP3    H178791   0.858   6.365   4.330 -0.3004 -0.2216 -1.7385
19100TIP3    H278792   0.971   6.324   4.238  1.6485 -0.1717  0.5346
19101TIP3   OH278793   6.748   4.522  16.776 -0.3136 -0.3120  0.2641
19101TIP3    H178794   6.841   4.509  16.759 -0.5310 -0.9025 -0.5264
19101TIP3    H278795   6.704   4.463  16.716 -1.2167  0.2151  0.3875
19102TIP3   OH278796   5.359   5.156   2.340 -0.2589  0.0331 -0.4288
19102TIP3    H178797   5.396   5.072   2.366 -0.7554 -0.5523 -1.5203
19102TIP3    H278798   5.414   5.221   2.383 -0.3808 -0.8470  1.1253
19103TIP3   OH278799   0.353   5.811   5.283 -0.3691 -0.0594 -0.1148
19103TIP3    H178800   0.439   5.837   5.316  0.1458 -0.7544 -0.8862
19103TIP3    H278801   0.371   5.749   5.212 -1.5389 -1.4907  0.7767
19104TIP3   OH278802   2.365   1.598   1.554 -0.5438 -0.2005  0.2495
19104TIP3    H178803   2.374   1.522   1.613  0.7310  1.3349  2.1955
19104TIP3    H278804   2.350   1.672   1.613  0.4565  1.3976 -1.3984
19105TIP3   OH278805   5.290   0.251   3.462  0.2575 -0.0146 -0.1004
19105TIP3    H178806   5.361   0.246   3.525 -0.7223  0.1609  1.0422
19105TIP3    H278807   5.277   0.345   3.447 -0.4748 -0.0055  0.5607
19106TIP3   OH278808   1.671   6.214  13.815 -0.1480  0.2217  0.3310
19106TIP3    H178809   1.764   6.228  13.834  0.2588 -1.0416 -0.5694
19106TIP3    H278810   1.637   6.172  13.894  0.1278  0.3559  0.5246
19107TIP3   OH278811   4.601   5.825  12.031  0.1464 -0.1806  0.2735
19107TIP3    H178812   4.588   5.895  12.094  0.1261 -0.8050  0.9756
19107TIP3    H278813   4.598   5.868  11.946 -0.0239  0.6410  0.6901
19108TIP3   OH278814   4.656   1.003  15.444 -0.2920  0.4219  0.5258
19108TIP3    H178815   4.607   1.080  15.415 -2.2108 -0.4652  1.2681
19108TIP3    H278816   4.677   0.956  15.364  0.5596  1.4787  0.0948
19109TIP3   OH278817   6.723   2.683  16.574  0.1407  0.4373 -0.6616
19109TIP3    H178818   6.731   2.744  16.501  0.8857  1.4823  0.2595
19109TIP3    H278819   6.738   2.737  16.652  0.2462 -0.8141  0.2097
19110TIP3   OH278820   6.747   0.861   4.018 -0.2875 -0.2151 -0.1855
19110TIP3    H178821   6.730   0.919   4.092  0.5348  0.7245 -0.6902
19110TIP3    H278822   6.843   0.858   4.013 -0.3285 -0.0099 -1.3743
19111TIP3   OH278823   4.349   3.590  15.377 -0.1405  0.1596  0.1736
19111TIP3    H178824   4.292   3.519  15.348  0.4921 -0.1254 -0.4149
19111TIP3    H278825   4.357   3.647  15.300 -0.9038  1.0617  0.7325
19112TIP3   OH278826   3.072   6.087   0.432  1.1761  0.2336 -0.3332
19112TIP3    H178827   3.073   6.025   0.505  2.1379 -0.5806 -1.0048
19112TIP3    H278828   3.160   6.125   0.433  0.4755  1.9233  0.3155
19113TIP3   OH278829   5.439   3.522   5.324 -0.5924 -0.2133 -0.3151
19113TIP3    H178830   5.526   3.498   5.356 -0.5000 -1.8019 -1.6192
19113TIP3    H278831   5.455   3.596   5.266 -0.2355  0.0595  0.1232
19114TIP3   OH278832   2.500   1.524  10.582 -0.1017  0.1738  0.0759
19114TIP3    H178833   2.433   1.498  10.519  1.0397  0.7901 -1.4660
19114TIP3    H278834   2.570   1.459  10.570  0.0086  0.1145  0.9535
19115TIP3   OH278835   3.046   6.338   4.028 -0.1670  0.4481 -0.3395
19115TIP3    H178836   3.035   6.304   4.116  0.0556  2.5620  0.5656
19115TIP3    H278837   2.959   6.368   4.002  0.0199  1.0013 -0.3252
19116TIP3   OH278838   2.770   3.215   5.902  0.3107 -0.1981  0.1921
19116TIP3    H178839   2.760   3.239   5.810  0.4915 -0.4213  0.1121
19116TIP3    H278840   2.860   3.238   5.923  0.5424 -0.9511  0.0656
19117TIP3   OH278841   6.691   5.273   2.761 -0.1350  0.0424 -0.0826
19117TIP3    H178842   6.719   5.192   2.804  0.6123  1.2842  1.9064
19117TIP3    H278843   6.731   5.343   2.812 -0.8929  1.7048 -1.6331
19118TIP3   OH278844   5.657   4.145  11.400 -0.1755 -0.1421  0.1034
19118TIP3    H178845   5.613   4.095  11.331 -1.6987 -0.5781  1.3422
19118TIP3    H278846   5.629   4.235  11.387  1.8360  0.3275 -1.5575
19119TIP3   OH278847   0.841   6.379  15.372  0.8346 -0.3210  0.1567
19119TIP3    H178848   0.771   6.436  15.404  0.0422 -0.7393 -0.8051
19119TIP3    H278849   0.842   6.306  15.434  1.0610  0.1337  0.7057
19120TIP3   OH278850   6.001   0.398  11.375 -0.1892  0.0666  0.2241
19120TIP3    H178851   5.916   0.375  11.410 -0.5223  1.0446  0.0894
19120TIP3    H278852   6.055   0.417  11.452 -0.5444  0.9424  0.2692
19121TIP3   OH278853   5.602   6.571  11.908  0.5276  0.0180 -0.7001
19121TIP3    H178854   5.689   6.607  11.922  0.4197 -0.3201  1.0559
19121TIP3    H278855   5.615   6.498  11.847  1.3978  0.2198 -0.7631
19122TIP3   OH278856   0.076   0.471   3.308 -0.1243 -0.6546  0.4219
19122TIP3    H178857   0.102   0.493   3.397 -1.3166 -1.5038  1.0108
19122TIP3    H278858   0.144   0.411   3.278  0.0896 -0.6595  0.8991
19123TIP3   OH278859   2.023   6.336  16.484 -0.3353 -0.4789 -0.0125
19123TIP3    H178860   2.086   6.401  16.453 -2.2339  1.3087 -0.3211
19123TIP3    H278861   1.993   6.370  16.568 -0.6720 -1.4504  0.2719
19124TIP3   OH278862   6.266   0.698  12.066 -0.1266 -0.1687 -0.5005
19124TIP3    H178863   6.267   0.766  11.998 -0.9672 -0.4241 -0.7789
19124TIP3    H278864   6.358   0.685  12.087  0.0379  1.2789 -0.2151
19125TIP3   OH278865   5.542   3.757  15.042 -0.0041 -0.3935 -0.2968
19125TIP3    H178866   5.540   3.682  15.103  0.1936 -0.1845 -0.0325
19125TIP3    H278867   5.635   3.770  15.023  0.1705  1.1303  1.3391
19126TIP3   OH278868   6.405   0.432   3.182  0.1941  0.1945 -0.0259
19126TIP3    H178869   6.389   0.485   3.260  0.9364  2.1689 -1.1547
19126TIP3    H278870   6.496   0.448   3.160  0.3959 -1.4482 -0.5453
19127TIP3   OH278871   0.785   4.824   4.080  0.3211  0.3952  0.3429
19127TIP3    H178872   0.752   4.905   4.041  0.2712 -0.0817 -0.6421
19127TIP3    H278873   0.843   4.787   4.013 -1.5375 -1.6052 -0.3127
19128TIP3   OH278874   5.003   5.651  14.692 -0.0509 -0.0229  0.1779
19128TIP3    H178875   5.014   5.583  14.625  0.0265 -0.1316  0.2990
19128TIP3    H278876   5.020   5.733  14.646  0.8660 -0.1594  0.2655
19129TIP3   OH278877   5.978   0.532   3.258  0.0943  0.0479 -0.0119
19129TIP3    H178878   5.986   0.503   3.167 -0.0437 -0.0853  0.0182
19129TIP3    H278879   6.059   0.579   3.276 -0.5912  1.6190 -0.7789
19130TIP3   OH278880   2.884   2.736   3.139  0.0174  0.1598 -0.0891
19130TIP3    H178881   2.828   2.723   3.062 -0.8633  1.9373  0.2076
19130TIP3    H278882   2.973   2.727   3.105 -0.3702 -1.3486 -0.8388
19131TIP3   OH278883   2.867   2.278   3.482 -0.7951 -0.0435  0.3590
19131TIP3    H178884   2.793   2.338   3.485 -0.7747 -0.0585  1.8387
19131TIP3    H278885   2.923   2.312   3.412 -1.6743  0.5803 -0.0527
19132TIP3   OH278886   3.676   6.362   6.099  0.5649  0.3614  0.1492
19132TIP3    H178887   3.650   6.284   6.050 -0.3952  1.3057 -0.9072
19132TIP3    H278888   3.762   6.385   6.062  0.4541  0.2925 -0.1598
19133TIP3   OH278889   6.725   0.829  15.043  0.0831 -0.0789  0.0738
19133TIP3    H178890   6.754   0.869  14.961  0.7127 -0.0653  0.2967
19133TIP3    H278891   6.685   0.901  15.092  1.1367  0.2780  0.4382
19134TIP3   OH278892   2.431   4.199   5.307  0.0283  0.2379  0.8089
19134TIP3    H178893   2.405   4.119   5.261 -0.0028 -0.0416  1.3064
19134TIP3    H278894   2.425   4.177   5.399  1.9199  0.1888  0.9710
19135TIP3   OH278895   4.520   6.384  12.327  0.0560  0.4042  0.2587
19135TIP3    H178896   4.495   6.295  12.354 -2.3344  1.0920  0.5408
19135TIP3    H278897   4.506   6.385  12.233  0.7736  0.2966  0.1455
19136TIP3   OH278898   1.102   1.538   3.610 -0.2370 -0.4365  0.2689
19136TIP3    H178899   1.172   1.588   3.567 -0.6860  0.3619  0.4383
19136TIP3    H278900   1.084   1.586   3.690 -1.0214 -0.5939  0.2013
19137TIP3   OH278901   3.595   0.949  15.686 -0.4782  0.7231  0.0487
19137TIP3    H178902   3.500   0.937  15.684 -0.3680 -0.0516 -0.8743
19137TIP3    H278903   3.625   0.918  15.601  0.7551 -0.4301  0.8674
19138TIP3   OH278904   3.531   6.544   5.937  0.0460 -0.0356  0.1714
19138TIP3    H178905   3.583   6.490   5.996 -0.0958 -0.4327 -0.0565
19138TIP3    H278906   3.442   6.540   5.973  0.3530  1.5250  1.1746
19139TIP3   OH278907   0.662   4.148  12.393 -0.5116 -0.3261  0.2551
19139TIP3    H178908   0.626   4.226  12.435  2.2225 -0.7886  3.9887
19139TIP3    H278909   0.699   4.180  12.311  0.5913  2.4167  1.6807
19140TIP3   OH278910   5.642   6.224   2.363  0.9701 -0.2027 -0.2584
19140TIP3    H178911   5.606   6.233   2.275  0.3769  0.9339  0.0707
19140TIP3    H278912   5.566   6.204   2.418  1.1233  0.3653  0.1696
19141TIP3   OH278913   6.216   3.861   3.909  0.3839 -0.5910 -0.1557
19141TIP3    H178914   6.298   3.816   3.887  0.9460  0.5066 -0.3584
19141TIP3    H278915   6.196   3.913   3.831  0.0419 -0.0636  0.2821
19142TIP3   OH278916   5.443   0.863  16.826 -0.0520 -0.1357  0.2156
19142TIP3    H178917   5.377   0.932  16.817 -0.7723 -0.5930  1.7190
19142TIP3    H278918   5.467   0.841  16.736 -2.2651 -0.2558 -0.4050
19143TIP3   OH278919   5.841   2.233   2.298 -0.4912 -0.4814 -0.4223
19143TIP3    H178920   5.782   2.237   2.223 -1.2236 -0.0455  0.1639
19143TIP3    H278921   5.787   2.261   2.372  0.5665  0.2939  0.0682
19144TIP3   OH278922   2.264   3.517   2.598 -0.4456  0.3457 -0.6906
19144TIP3    H178923   2.194   3.452   2.612 -0.8557  0.9062 -0.0633
19144TIP3    H278924   2.345   3.466   2.599 -0.6478 -0.0065  1.2418
19145TIP3   OH278925   4.223   4.085  14.217  0.8346  0.7455 -0.4941
19145TIP3    H178926   4.258   4.147  14.154  1.9680 -0.5080 -1.1423
19145TIP3    H278927   4.299   4.036  14.248 -0.2809 -2.3130 -2.1912
19146TIP3   OH278928   4.747   6.532   0.750 -0.7074 -0.0716  0.6871
19146TIP3    H178929   4.756   6.521   0.845 -0.0363 -0.9007  0.5378
19146TIP3    H278930   4.675   6.473   0.726  0.9557 -2.0540  0.3084
19147TIP3   OH278931   3.616   4.909   2.373  0.8217 -0.2277  0.6821
19147TIP3    H178932   3.609   5.000   2.346  0.6336 -0.4973 -0.2360
19147TIP3    H278933   3.697   4.878   2.334  0.3500 -0.7336  0.0723
19148TIP3   OH278934   4.473   3.309  10.875  0.0244 -0.3748 -0.0435
19148TIP3    H178935   4.433   3.259  10.945  1.4463 -2.0907 -0.3598
19148TIP3    H278936   4.457   3.257  10.796 -0.2993  0.7799 -0.7658
19149TIP3   OH278937   1.465   1.678   0.102  0.1997 -0.6573 -0.3595
19149TIP3    H178938   1.409   1.712   0.172 -2.1740 -2.6378 -1.1551
19149TIP3    H278939   1.548   1.658   0.145  0.2414  1.9489  0.9785
19150TIP3   OH278940   5.016   5.330   3.218  0.2481  0.1553  0.3111
19150TIP3    H178941   5.066   5.262   3.265 -2.3897 -0.9432  1.7101
19150TIP3    H278942   4.940   5.347   3.273 -0.0843  3.0604 -0.8683
19151TIP3   OH278943   6.732   2.104   2.944 -0.3248  0.4201 -0.1470
19151TIP3    H178944   6.657   2.099   2.885  0.1413  0.5692 -0.7747
19151TIP3    H278945   6.790   2.034   2.915 -0.0845  0.4990  0.1341
19152TIP3   OH278946   1.430   0.067  12.312 -0.9313  0.3828  0.0376
19152TIP3    H178947   1.523   0.046  12.323 -0.9047  0.6016  0.2636
19152TIP3    H278948   1.390   0.040  12.395 -0.7500  1.9721  0.6817
19153TIP3   OH278949   1.844   1.057  15.203  0.7728 -0.6698  0.4160
19153TIP3    H178950   1.872   1.080  15.291  1.8318  0.1050 -0.0919
19153TIP3    H278951   1.926   1.052  15.152  0.1023  0.2839 -0.8171
19154TIP3   OH278952   1.352   5.604   4.722 -0.0636 -0.4929 -0.3589
19154TIP3    H178953   1.314   5.597   4.635  1.1940 -1.8801 -0.8385
19154TIP3    H278954   1.430   5.659   4.710 -1.2603  1.4930  0.4263
19155TIP3   OH278955   4.731   0.119   2.678 -0.4138 -0.4135  0.6960
19155TIP3    H178956   4.653   0.114   2.623 -0.0328 -0.9666  0.1951
19155TIP3    H278957   4.804   0.114   2.616  0.0225 -0.6634  1.2226
19156TIP3   OH278958   1.353   1.393  14.652  1.5343 -0.0807 -0.5064
19156TIP3    H178959   1.318   1.369  14.739 -1.6856 -1.1262 -1.9113
19156TIP3    H278960   1.385   1.310  14.616  2.4973  0.2770 -0.4954
19157TIP3   OH278961   1.907   4.559   0.059 -0.1033 -0.5235  0.5596
19157TIP3    H178962   1.929   4.483   0.005  2.4494 -0.3562  1.2445
19157TIP3    H278963   1.851   4.524   0.128 -0.8590 -1.3076 -0.4129
19158TIP3   OH278964   4.995   4.995   0.659  0.6635  0.4737 -0.0579
19158TIP3    H178965   5.052   4.920   0.639  1.6306  1.1424  0.1477
19158TIP3    H278966   4.986   4.992   0.754 -1.3011 -0.7940 -0.2169
19159TIP3   OH278967   4.077   5.495   2.736 -0.1220 -0.8179  0.1019
19159TIP3    H178968   4.049   5.408   2.705  0.7968 -0.6357 -1.3265
19159TIP3    H278969   4.170   5.498   2.715 -0.6769  1.5921 -2.6017
19160TIP3   OH278970   4.597   3.164   0.759  0.2155  0.0244 -0.6311
19160TIP3    H178971   4.650   3.084   0.758 -0.0524 -0.1634 -0.2291
19160TIP3    H278972   4.610   3.202   0.673  1.4024  0.2468 -0.3692
19161TIP3   OH278973   0.088   0.899  12.616 -0.0652  0.1501  0.4859
19161TIP3    H178974   0.043   0.852  12.686 -1.0627 -0.0915 -0.3026
19161TIP3    H278975   0.019   0.940  12.565  0.6522  0.4163 -0.3049
19162TIP3   OH278976   2.842   4.855   2.840  0.1636  0.1174  0.1826
19162TIP3    H178977   2.755   4.821   2.856  0.0568 -0.4758 -1.4411
19162TIP3    H278978   2.828   4.943   2.803  0.3098  0.5007  1.0174
19163TIP3   OH278979   3.116   3.101   0.026  0.6093 -0.1506 -0.1940
19163TIP3    H178980   3.139   3.064  -0.058  0.9924 -0.9186  0.2410
19163TIP3    H278981   3.090   3.026   0.080  0.0412  0.3604  0.2693
19164TIP3   OH278982   3.876   1.125  13.593 -0.9707  0.1087 -0.3416
19164TIP3    H178983   3.860   1.152  13.683  0.9270  0.1260  0.0334
19164TIP3    H278984   3.949   1.181  13.564 -0.5543 -0.9282 -1.3694
19165TIP3   OH278985   5.400   4.612  15.616 -0.4361  0.0662  1.2055
19165TIP3    H178986   5.340   4.616  15.542 -0.6251 -3.1522  1.0328
19165TIP3    H278987   5.487   4.607  15.577 -0.3679  0.6657  1.2849
19166TIP3   OH278988   1.823   2.236   0.004  0.3854  0.2613  0.3043
19166TIP3    H178989   1.777   2.158  -0.026  0.6633 -0.0231  0.6206
19166TIP3    H278990   1.879   2.206   0.076  0.1040  0.8431  0.7777
19167TIP3   OH278991   6.795   1.361   5.054 -0.4479 -0.9030 -0.3104
19167TIP3    H178992   6.793   1.393   5.144 -0.0092 -1.7849  0.0220
19167TIP3    H278993   6.809   1.267   5.062  1.3664 -0.7585 -1.3274
19168TIP3   OH278994   6.178   0.264  11.762  0.2557 -0.3961  0.1974
19168TIP3    H178995   6.185   0.337  11.700  2.0968 -0.4450  0.2981
19168TIP3    H278996   6.153   0.190  11.707 -1.9357  0.3147  0.1385
19169TIP3   OH278997   4.936   3.085   0.245 -0.3149  0.0817  0.2526
19169TIP3    H178998   4.890   3.102   0.163 -2.1043 -0.0185  1.1710
19169TIP3    H278999   4.872   3.036   0.298 -0.1531  2.1901  2.5877
19170TIP3   OH279000   4.824   5.731  12.340 -0.8194 -0.0772  0.3525
19170TIP3    H179001   4.871   5.729  12.257 -1.6102  0.7982 -0.1500
19170TIP3    H279002   4.877   5.680  12.400 -0.0675 -0.4539 -0.6115
19171TIP3   OH279003   6.267   2.705   3.475  0.0366  0.3541 -0.6418
19171TIP3    H179004   6.207   2.759   3.526  0.7660 -0.1041  0.7360
19171TIP3    H279005   6.216   2.628   3.451 -0.1802  0.3678 -0.2294
19172TIP3   OH279006   1.463   1.334  12.467  0.1055 -0.1487 -1.1963
19172TIP3    H179007   1.489   1.409  12.413 -0.5018 -0.1208 -1.4531
19172TIP3    H279008   1.368   1.338  12.469  0.1195  0.5144  0.8179
19173TIP3   OH279009   0.909   3.143   2.472  0.1635 -0.4664  0.1375
19173TIP3    H179010   0.999   3.114   2.460 -0.0492 -0.6759 -1.0778
19173TIP3    H279011   0.898   3.214   2.409 -0.5287 -0.4724  0.2472
19174TIP3   OH279012   5.950   0.538   6.494 -0.0857 -0.5133  0.0487
19174TIP3    H179013   5.901   0.498   6.422  0.1606  0.5991 -0.7713
19174TIP3    H279014   6.023   0.479   6.510  1.8269  0.8161 -2.9727
19175TIP3   OH279015   2.882   0.104   1.732  0.2018  0.0515 -0.6296
19175TIP3    H179016   2.830   0.094   1.652  1.1848  0.6751 -1.3690
19175TIP3    H279017   2.856   0.189   1.767  0.5456  0.2617 -0.8771
19176TIP3   OH279018   5.851   0.601   1.703 -0.0636  0.2437  0.8547
19176TIP3    H179019   5.873   0.590   1.611 -1.6752  0.5635  0.4005
19176TIP3    H279020   5.935   0.623   1.745  0.6122  0.5831 -0.6010
19177TIP3   OH279021   1.801   3.850  16.985 -0.2669 -0.1369 -0.4000
19177TIP3    H179022   1.716   3.842  16.942 -0.4195  0.7513 -0.2942
19177TIP3    H279023   1.863   3.867  16.914 -0.2832 -0.1423 -0.4146
19178TIP3   OH279024   6.512   2.800  13.339  0.0424 -0.2191 -0.1073
19178TIP3    H179025   6.573   2.793  13.266  0.4597 -1.1615  0.3123
19178TIP3    H279026   6.542   2.735  13.402 -0.4951  0.3625  0.7753
19179TIP3   OH279027   2.122   1.062  15.140 -0.0447  0.0006  0.1791
19179TIP3    H179028   2.143   1.127  15.074  0.9857 -0.3197  0.1810
19179TIP3    H279029   2.156   0.980  15.105 -0.2917 -0.3262  0.6987
19180TIP3   OH279030   4.167   2.530   6.906 -0.1907 -0.3060 -0.0901
19180TIP3    H179031   4.151   2.527   6.811 -2.6735  3.2162  0.0008
19180TIP3    H279032   4.104   2.594   6.938  0.0779 -1.8801  4.1350
19181TIP3   OH279033   2.480   4.197  15.814  0.0115 -0.1078 -0.4776
19181TIP3    H179034   2.465   4.173  15.906  1.0295 -0.7924 -0.4805
19181TIP3    H279035   2.535   4.276  15.819  0.0875 -0.1594 -0.4994
19182TIP3   OH279036   1.982   1.153  13.757 -0.2562  0.5269 -0.0160
19182TIP3    H179037   1.922   1.191  13.693 -0.3989  1.5793  0.7246
19182TIP3    H279038   1.971   1.206  13.835  0.8874  0.0835  0.4690
19183TIP3   OH279039   2.935   0.902  14.246 -0.1352  0.3004  0.2078
19183TIP3    H179040   3.012   0.957  14.237 -0.3452  0.4441 -0.8733
19183TIP3    H279041   2.955   0.843  14.318  1.0457  0.2231 -0.1766
19184TIP3   OH279042   0.023   2.321   1.056  0.4054 -0.1392 -0.3137
19184TIP3    H179043   0.047   2.400   1.007  0.0957 -0.0936 -0.3950
19184TIP3    H279044   0.106   2.278   1.074  0.6326  0.5116  0.2587
19185TIP3   OH279045   6.000   4.675  13.702  0.0521  0.0213  0.2733
19185TIP3    H179046   5.943   4.752  13.708 -0.3915 -0.2872  0.1376
19185TIP3    H279047   5.978   4.636  13.617  1.2565  0.5043 -0.2650
19186TIP3   OH279048   0.528   6.662  12.459 -0.1545  0.4826 -0.4724
19186TIP3    H179049   0.564   6.595  12.518  0.4494  1.5872  0.4542
19186TIP3    H279050   0.519   6.740  12.514 -1.1055  1.0980 -1.4602
19187TIP3   OH279051   4.125   0.419  15.169  0.6323 -0.1046 -0.3218
19187TIP3    H179052   4.209   0.389  15.205  0.8890 -0.1322 -0.9225
19187TIP3    H279053   4.151   0.478  15.098  0.1669 -1.4249 -1.6367
19188TIP3   OH279054   2.552   4.677  12.788  0.2440  0.4446  0.1417
19188TIP3    H179055   2.527   4.751  12.843 -2.1023  0.1191 -0.3722
19188TIP3    H279056   2.549   4.601  12.846  1.4001  0.5635  0.3762
19189TIP3   OH279057   0.588   6.322  15.731 -0.1968  0.0635  0.3760
19189TIP3    H179058   0.679   6.352  15.739 -0.4356  1.2617 -0.8684
19189TIP3    H279059   0.588   6.265  15.654 -0.1454 -1.5396  1.5355
19190TIP3   OH279060   1.636   2.518   0.727 -0.6169 -0.2865  0.2970
19190TIP3    H179061   1.623   2.592   0.668  0.2926 -1.4878 -1.4722
19190TIP3    H279062   1.557   2.465   0.717  0.3809 -1.5153 -1.4243
19191TIP3   OH279063   5.023   6.339   2.551  0.3125 -0.1957 -0.4540
19191TIP3    H179064   4.958   6.324   2.482  1.1790 -1.6214 -1.0095
19191TIP3    H279065   5.106   6.349   2.504  0.5976  1.1534  0.2712
19192TIP3   OH279066   0.264   3.339  13.129  0.1096  0.0311 -0.4402
19192TIP3    H179067   0.320   3.412  13.102 -0.4877  0.6227 -0.1097
19192TIP3    H279068   0.212   3.374  13.202  0.3208 -0.9446  0.2012
19193TIP3   OH279069   3.321   2.972  11.066 -0.5428 -0.0821 -0.1759
19193TIP3    H179070   3.281   3.058  11.077 -1.5615 -0.5229 -0.3604
19193TIP3    H279071   3.278   2.916  11.131 -0.0634 -0.5159 -0.2200
19194TIP3   OH279072   3.954   0.013   2.043  0.4307  0.4349 -0.1644
19194TIP3    H179073   3.939  -0.076   2.010 -0.7962  0.5229  0.1411
19194TIP3    H279074   4.047   0.029   2.024  0.9019 -1.2179  0.5124
19195TIP3   OH279075   5.607   6.087  16.094  0.1183 -0.0453  0.3365
19195TIP3    H179076   5.664   6.164  16.092 -1.2233  0.9892  0.4931
19195TIP3    H279077   5.571   6.082  16.005 -0.8846  0.3923  0.6922
19196TIP3   OH279078   3.014   6.392   4.387 -0.7405 -0.3450 -0.3972
19196TIP3    H179079   3.040   6.439   4.466 -1.9317  1.0081 -0.7762
19196TIP3    H279080   2.957   6.322   4.419 -0.8803 -0.0603 -0.0165
19197TIP3   OH279081   5.372   4.263   1.727 -0.0940 -0.4119  0.1098
19197TIP3    H179082   5.363   4.354   1.700  1.4989 -0.0104  0.8240
19197TIP3    H279083   5.293   4.245   1.778 -1.0365  0.1475 -1.1027
19198TIP3   OH279084   1.737   3.267  12.904  0.4868 -0.6092 -0.3448
19198TIP3    H179085   1.648   3.252  12.935  0.1863  0.0060 -0.8930
19198TIP3    H279086   1.787   3.285  12.984 -0.5718  2.4810 -0.2167
19199TIP3   OH279087   3.497   2.648  12.863 -0.1265 -0.4448  0.5562
19199TIP3    H179088   3.503   2.738  12.832 -1.2977 -0.5327  0.0259
19199TIP3    H279089   3.463   2.655  12.952 -1.0386 -0.3976  0.2087
19200TIP3   OH279090   4.158   0.600   5.859  0.2904  0.4019 -0.2418
19200TIP3    H179091   4.178   0.588   5.766  0.5094  0.3801 -0.1917
19200TIP3    H279092   4.235   0.646   5.895  0.2753  0.2715 -0.0402
19201TIP3   OH279093   1.511   1.277  17.224  0.3206  0.2923  0.1132
19201TIP3    H179094   1.480   1.295  17.135  0.6730 -1.6530 -0.4586
19201TIP3    H279095   1.438   1.232  17.266  0.2590  0.9535  0.7239
19202TIP3   OH279096   0.405   2.853   5.201  0.1005  0.8500  0.6793
19202TIP3    H179097   0.432   2.768   5.166 -0.2661  0.7822  0.5515
19202TIP3    H279098   0.374   2.833   5.290  0.1873  0.8779  0.7152
19203TIP3   OH279099   0.556   4.948   4.367  0.0271  0.5280  0.4254
19203TIP3    H179100   0.486   4.889   4.338  0.3059 -0.0296  0.8768
19203TIP3    H279101   0.544   4.954   4.462  0.5038  0.5519  0.4835
19204TIP3   OH279102   2.777   4.063  15.316  0.2667 -0.4210  0.0411
19204TIP3    H179103   2.691   4.020  15.313  2.1739 -4.7933  0.8701
19204TIP3    H279104   2.790   4.083  15.409  0.4333 -0.3064 -0.0066
19205TIP3   OH279105   0.218   2.298   5.350  0.1994  0.5602 -0.2376
19205TIP3    H179106   0.192   2.210   5.377 -0.0896  0.9942  0.9670
19205TIP3    H279107   0.173   2.311   5.267 -0.3030 -0.1763 -0.0984
19206TIP3   OH279108   2.048   0.029  12.000  0.4654  0.1401 -0.2595
19206TIP3    H179109   2.119   0.091  12.014  1.1178 -0.2787 -1.5453
19206TIP3    H279110   1.976   0.082  11.965  0.4667  0.4122  0.1433
19207TIP3   OH279111   6.699   3.245  15.522  0.1296  0.5747  0.5935
19207TIP3    H179112   6.778   3.299  15.517 -0.2326  1.0334 -2.4918
19207TIP3    H279113   6.731   3.158  15.545  1.8393  0.4394 -1.8069
19208TIP3   OH279114   3.998   4.392  11.069  0.3283 -0.1890 -0.0667
19208TIP3    H179115   4.094   4.398  11.069  0.3487 -0.4910  0.2916
19208TIP3    H279116   3.973   4.410  10.978  0.5171  3.1433  0.4162
19209TIP3   OH279117   5.353   2.063   0.712  0.0527  0.5504  0.5088
19209TIP3    H179118   5.308   2.029   0.635  1.4002  0.3028 -0.1973
19209TIP3    H279119   5.293   2.129   0.747  0.3561  2.3234 -2.0653
19210TIP3   OH279120   0.790   5.223  17.135  0.3329 -0.1900  0.1967
19210TIP3    H179121   0.837   5.290  17.085 -1.4453 -0.2494 -1.6972
19210TIP3    H279122   0.709   5.265  17.162 -0.3111 -1.2264 -0.0584
19211TIP3   OH279123   4.786   5.499   4.549 -0.6525 -0.1592  0.1202
19211TIP3    H179124   4.787   5.557   4.626  1.8753 -0.8188  0.6770
19211TIP3    H279125   4.821   5.416   4.582  1.7472 -0.0809 -1.9485
19212TIP3   OH279126   0.150   5.520   1.189  0.3777 -0.2345  0.7809
19212TIP3    H179127   0.195   5.475   1.117 -0.0249  0.3184  0.1755
19212TIP3    H279128   0.215   5.521   1.259  1.0804 -0.0538  0.1527
19213TIP3   OH279129   2.897   0.454   3.333 -0.1270 -0.4071  0.0739
19213TIP3    H179130   2.811   0.466   3.374 -0.9037  0.3378 -1.6495
19213TIP3    H279131   2.878   0.447   3.239  1.7650  0.7147 -0.4570
19214TIP3   OH279132   1.251   0.259   0.303  0.3964 -0.6470  0.1242
19214TIP3    H179133   1.283   0.349   0.300  0.1741 -0.5659  0.1742
19214TIP3    H279134   1.156   0.267   0.294  0.5198 -1.0040 -1.7774
19215TIP3   OH279135   6.465   3.532  12.502  0.3098 -0.1813  0.1579
19215TIP3    H179136   6.442   3.621  12.477 -1.2315 -0.1884  1.3777
19215TIP3    H279137   6.497   3.540  12.592  3.9317 -0.3883 -0.9433
19216TIP3   OH279138   3.672   1.244  10.536  0.0852 -0.1660 -0.1754
19216TIP3    H179139   3.658   1.177  10.470 -0.4831 -0.5121  0.2762
19216TIP3    H279140   3.725   1.311  10.493  0.6053 -0.8716 -0.6486
19217TIP3   OH279141   0.513   5.092   3.796 -0.4107 -0.0311  0.3313
19217TIP3    H179142   0.600   5.070   3.764 -0.0905  0.3389  0.9129
19217TIP3    H279143   0.505   5.045   3.879 -1.8420 -2.2638 -0.9689
19218TIP3   OH279144   1.600   0.096  13.066  0.1592  0.0464  0.3141
19218TIP3    H179145   1.543   0.171  13.080 -0.0950 -0.6056  3.6896
19218TIP3    H279146   1.618   0.063  13.154  3.6660 -1.3548 -0.7460
19219TIP3   OH279147   6.439   3.754   3.768  0.4125 -0.3208 -0.1866
19219TIP3    H179148   6.368   3.730   3.709  0.1613  1.1875 -0.5479
19219TIP3    H279149   6.508   3.787   3.710  1.1166 -1.0874  0.2100
19220TIP3   OH279150   5.117   3.897   5.839  0.0683 -0.3376  0.1914
19220TIP3    H179151   5.165   3.815   5.829 -0.6595 -0.7824  0.2752
19220TIP3    H279152   5.054   3.880   5.909  0.6318  0.6359  0.9657
19221TIP3   OH279153   1.524   2.186  13.935  0.1588 -0.3768  0.3842
19221TIP3    H179154   1.489   2.148  14.016 -2.9779  0.9086 -0.2342
19221TIP3    H279155   1.519   2.115  13.871 -1.7701 -0.1708  0.2462
19222TIP3   OH279156   5.369   6.068  14.935 -0.5607 -0.0896 -0.5579
19222TIP3    H179157   5.333   6.072  14.846  1.0733  0.1974 -1.2501
19222TIP3    H279158   5.332   5.988  14.972 -4.3812  1.7443 -0.0074
19223TIP3   OH279159   0.679   2.930   1.776  0.2439 -0.2841  0.0784
19223TIP3    H179160   0.741   2.992   1.812  1.8836 -2.3536  1.0506
19223TIP3    H279161   0.682   2.855   1.836 -0.8270 -1.7590 -1.5911
19224TIP3   OH279162   2.756   0.131   3.535 -0.5833 -0.3962  0.6994
19224TIP3    H179163   2.664   0.110   3.552 -0.1368 -3.5919 -0.2110
19224TIP3    H279164   2.753   0.212   3.484 -2.9943 -1.0509 -0.3432
19225TIP3   OH279165   3.146   2.475   1.750  0.1426 -0.4241  0.2801
19225TIP3    H179166   3.202   2.413   1.797 -0.2797 -1.1138 -0.0906
19225TIP3    H279167   3.058   2.455   1.781 -0.0522 -0.3634 -0.2219
19226TIP3   OH279168   3.156   3.769  16.203 -0.4839 -0.2530 -0.5784
19226TIP3    H179169   3.162   3.712  16.280 -0.7846 -0.4018 -0.6625
19226TIP3    H279170   3.240   3.814  16.200  0.1874 -1.4974 -1.1346
19227TIP3   OH279171   5.625   1.167   4.993  0.5610 -0.4560 -0.1533
19227TIP3    H179172   5.556   1.208   5.045 -0.2188  0.5519 -1.9114
19227TIP3    H279173   5.649   1.088   5.043 -1.2991 -0.4223  0.8702
19228TIP3   OH279174   1.320   1.698  15.616  0.1364  0.0563  0.5680
19228TIP3    H179175   1.373   1.749  15.555  0.5052 -0.3526  0.5379
19228TIP3    H279176   1.332   1.741  15.700 -0.6549  0.8320  0.2910
19229TIP3   OH279177   3.906   0.905  14.396  0.1392  0.9722  0.6882
19229TIP3    H179178   3.940   0.930  14.310 -1.3137  2.7777  0.5644
19229TIP3    H279179   3.814   0.930  14.393 -0.1570  0.2198  2.4706
19230TIP3   OH279180   0.657   5.222  11.173  0.1257  0.0149 -0.5288
19230TIP3    H179181   0.580   5.277  11.183  0.9127  1.2490 -1.0187
19230TIP3    H279182   0.625   5.144  11.127 -0.9531  0.1796 -0.0771
19231TIP3   OH279183   2.404   0.313   5.859 -0.1770 -0.2958 -0.4133
19231TIP3    H179184   2.320   0.356   5.840 -0.1899 -0.6562 -1.2160
19231TIP3    H279185   2.388   0.264   5.939 -1.0895 -1.2877 -1.1712
19232TIP3   OH279186   6.295   6.505  14.767  0.3408 -0.2451 -0.3102
19232TIP3    H179187   6.261   6.567  14.832 -2.5342  1.7360 -3.3826
19232TIP3    H279188   6.390   6.507  14.779  0.0378  1.2037  2.7121
19233TIP3   OH279189   0.680   6.736   5.176  0.1044  0.0022 -0.2214
19233TIP3    H179190   0.766   6.697   5.165 -0.6669 -1.7168 -0.4134
19233TIP3    H279191   0.682   6.775   5.263  0.5683 -1.3797  0.4059
19234TIP3   OH279192   4.285   4.498   0.157 -0.3021 -0.5500  0.5143
19234TIP3    H179193   4.304   4.441   0.232  0.6923 -1.7188 -0.5868
19234TIP3    H279194   4.190   4.506   0.158 -0.3671 -1.1952  1.4386
19235TIP3   OH279195   0.906   3.959  13.447 -0.2755 -0.3142 -0.2738
19235TIP3    H179196   0.935   4.031  13.502 -1.0048 -0.9032  0.9055
19235TIP3    H279197   0.817   3.983  13.420 -1.2595 -1.5682  1.6458
19236TIP3   OH279198   4.369   0.482   0.449 -0.1109 -0.3317 -0.2069
19236TIP3    H179199   4.359   0.523   0.363 -0.3362  0.2685  0.1030
19236TIP3    H279200   4.454   0.438   0.445  0.4704  0.7728 -0.3027
19237TIP3   OH279201   6.601   0.669  11.556  0.1995 -0.5144 -0.3534
19237TIP3    H179202   6.538   0.679  11.628  1.2335  0.5517  0.4544
19237TIP3    H279203   6.686   0.668  11.600  0.8373 -0.0907 -1.5534
19238TIP3   OH279204   0.525   3.291  13.659  0.1222 -0.2893 -0.1397
19238TIP3    H179205   0.488   3.354  13.720 -0.5601 -0.6262 -0.2008
19238TIP3    H279206   0.488   3.315  13.574  0.2612 -0.4556 -0.2473
19239TIP3   OH279207   3.980   5.732   5.270  0.1307  0.1510 -0.1778
19239TIP3    H179208   3.997   5.776   5.187 -0.0601 -0.6689 -0.6647
19239TIP3    H279209   3.934   5.651   5.246  0.6115 -0.3979  0.6724
19240TIP3   OH279210   6.095   6.135   4.196 -0.4846  0.5225  0.0753
19240TIP3    H179211   6.082   6.200   4.265  0.4731  1.5002 -0.6233
19240TIP3    H279212   6.155   6.177   4.134  0.7486 -1.2680 -0.0596
19241TIP3   OH279213   4.185   0.856   4.113 -0.0976 -0.3818 -0.2038
19241TIP3    H179214   4.181   0.818   4.025  3.4027 -1.8133  0.0984
19241TIP3    H279215   4.218   0.945   4.099 -0.4179 -0.2804 -0.3482
19242TIP3   OH279216   6.435   1.171  12.560  0.1632  0.0096 -0.0765
19242TIP3    H179217   6.520   1.126  12.562  0.9397  1.2160 -2.5202
19242TIP3    H279218   6.438   1.225  12.482 -2.5839  0.7275  0.2091
19243TIP3   OH279219   6.615   5.500  11.356  0.1714  0.5955 -0.2349
19243TIP3    H179220   6.535   5.489  11.305  1.5298  0.6977 -2.5117
19243TIP3    H279221   6.620   5.594  11.373  0.1101  0.6689 -0.6145
19244TIP3   OH279222   2.948   1.370  16.419 -0.0066  0.0027 -0.3501
19244TIP3    H179223   2.942   1.422  16.339 -0.5761  1.4024  0.5643
19244TIP3    H279224   2.862   1.377  16.459  0.4214 -0.2327  0.6446
19245TIP3   OH279225   1.652   1.157   3.461 -0.2856 -0.6621 -0.1447
19245TIP3    H179226   1.632   1.250   3.453  0.4098 -0.3773  1.1686
19245TIP3    H279227   1.571   1.117   3.492 -0.2571 -0.3006  0.4067
19246TIP3   OH279228   6.033   1.901   5.697  0.3864  0.2315 -0.3964
19246TIP3    H179229   5.953   1.953   5.707  0.3897  0.1485  0.0714
19246TIP3    H279230   6.005   1.811   5.711  0.6551  0.2527  0.2848
19247TIP3   OH279231   0.341   1.123   2.656  0.7358 -0.5433 -0.3256
19247TIP3    H179232   0.276   1.123   2.726 -0.9410 -0.3499 -1.8214
19247TIP3    H279233   0.424   1.140   2.700 -0.5104  1.5885  1.4025
19248TIP3   OH279234   5.789   0.286  15.267 -0.1248  0.0770  0.1026
19248TIP3    H179235   5.845   0.214  15.238  0.5534  0.5649  0.1682
19248TIP3    H279236   5.847   0.340  15.322 -0.8177  0.2850  0.6402
19249TIP3   OH279237   2.896   4.667  12.702 -0.4074  0.0335 -0.0497
19249TIP3    H179238   2.958   4.600  12.674 -1.4504 -0.3161 -1.6733
19249TIP3    H279239   2.883   4.650  12.796  0.8319 -0.7781 -0.0004
19250TIP3   OH279240   5.944   1.652  15.892  0.5259 -0.9478  0.2031
19250TIP3    H179241   5.995   1.585  15.937  0.4257  0.2109  2.1387
19250TIP3    H279242   5.900   1.700  15.962 -0.8175  0.0185 -1.2368
19251TIP3   OH279243   3.864   5.211  16.732 -0.2176 -0.0879 -0.0039
19251TIP3    H179244   3.824   5.248  16.810  0.0751 -0.1240  0.1636
19251TIP3    H279245   3.915   5.283  16.695 -1.3512  0.3025 -0.8608
19252TIP3   OH279246   1.430   4.648  13.454  0.1439  0.7148 -0.3030
19252TIP3    H179247   1.337   4.667  13.450 -0.0320  0.1401  0.6560
19252TIP3    H279248   1.444   4.584  13.384 -0.2766  0.4593 -0.1578
19253TIP3   OH279249   6.132   6.517   0.712  0.5132  0.5215  0.1449
19253TIP3    H179250   6.227   6.500   0.713  0.5372  0.6054  1.7921
19253TIP3    H279251   6.125   6.612   0.705  0.5368  0.4875 -0.3754
19254TIP3   OH279252   2.465   4.590  12.421 -0.1404 -0.2191 -0.1883
19254TIP3    H179253   2.494   4.659  12.362 -1.4910 -0.4147 -1.1462
19254TIP3    H279254   2.379   4.564  12.386 -0.3185 -1.3488  1.0211
19255TIP3   OH279255   5.283   4.784  17.060 -0.5627 -0.0704 -0.1765
19255TIP3    H179256   5.267   4.862  17.007 -0.9972  1.6876  2.3989
19255TIP3    H279257   5.344   4.731  17.007 -0.2551  1.9763 -1.9959
19256TIP3   OH279258   3.174   4.060   1.041  0.1736 -0.1422 -0.6656
19256TIP3    H179259   3.223   4.137   1.013  0.2620  0.2597  0.5360
19256TIP3    H279260   3.241   3.996   1.065  0.1292  0.1934  0.4023
19257TIP3   OH279261   0.344   1.660   2.379  0.0969 -0.0528 -0.0296
19257TIP3    H179262   0.277   1.720   2.346  0.1427  0.2247  0.3695
19257TIP3    H279263   0.419   1.716   2.399 -0.0908 -0.1415  0.9683
19258TIP3   OH279264   0.681   5.810   5.265 -0.2786 -0.7174 -0.4605
19258TIP3    H179265   0.730   5.874   5.213  0.4109  0.8444  1.9725
19258TIP3    H279266   0.646   5.860   5.338 -0.8693 -2.9008  0.8454
19259TIP3   OH279267   0.824   5.551   1.226  0.3562  0.9814 -0.6906
19259TIP3    H179268   0.739   5.557   1.270  0.6399  1.5881 -0.2069
19259TIP3    H279269   0.804   5.515   1.140 -0.0884 -1.3322  0.2983
19260TIP3   OH279270   0.158   2.731  14.536  0.2980 -0.6744  0.7012
19260TIP3    H179271   0.190   2.699  14.452  2.3915 -2.3718  2.0211
19260TIP3    H279272   0.065   2.708  14.537 -0.1771  0.8011 -1.7011
19261TIP3   OH279273   5.174   3.396  14.853 -0.1945 -0.1422  0.5328
19261TIP3    H179274   5.256   3.357  14.823 -0.3220  0.8053 -1.2246
19261TIP3    H279275   5.200   3.476  14.898 -0.0316 -1.3322  2.6947
19262TIP3   OH279276   0.418   2.161  10.576  0.2617 -0.3697  0.3378
19262TIP3    H179277   0.445   2.246  10.610 -1.2358 -0.0594  0.8260
19262TIP3    H279278   0.419   2.171  10.481 -1.9659  0.9426  0.3739
19263TIP3   OH279279   3.521   6.568   2.544 -0.1746 -0.2748  0.0725
19263TIP3    H179280   3.554   6.499   2.486  0.7329 -1.1956  1.6221
19263TIP3    H279281   3.507   6.643   2.486  0.7454 -1.1312 -1.3221
19264TIP3   OH279282   0.739   3.901  14.972  0.0488  0.2249 -0.1099
19264TIP3    H179283   0.797   3.881  15.046 -0.4435  0.0303  0.2312
19264TIP3    H279284   0.688   3.976  15.001  1.5318  1.7224 -1.1909
19265TIP3   OH279285   6.233   4.428   5.843 -0.1597  0.3565 -0.2165
19265TIP3    H179286   6.248   4.444   5.936  0.4336  0.8545 -0.3959
19265TIP3    H279287   6.309   4.378   5.814 -0.7389 -0.5169 -0.2565
19266TIP3   OH279288   5.115   6.334   5.788 -0.3850 -0.5212 -0.6322
19266TIP3    H179289   5.033   6.373   5.817 -0.2774 -1.2411  0.6758
19266TIP3    H279290   5.099   6.313   5.695 -0.9167  1.2969 -0.9922
19267TIP3   OH279291   5.960   5.548  14.223  0.4895 -0.2410 -0.0403
19267TIP3    H179292   5.901   5.482  14.185 -0.3819 -0.2725  1.2941
19267TIP3    H279293   5.910   5.630  14.219  0.7116 -0.0888  0.2711
19268TIP3   OH279294   5.762   4.693  12.748 -0.5559  0.6629 -0.3904
19268TIP3    H179295   5.805   4.773  12.716 -2.4058  1.8998  0.0351
19268TIP3    H279296   5.681   4.725  12.788  0.3612 -1.0101  3.2173
19269TIP3   OH279297   4.757   4.548  16.806 -0.3950 -0.5027 -0.1759
19269TIP3    H179298   4.699   4.511  16.739 -1.0302  0.1910 -0.0277
19269TIP3    H279299   4.710   4.625  16.837  0.5567 -0.0093  0.0562
19270TIP3   OH279300   2.291   4.689   6.479 -0.4513  0.4367 -0.2069
19270TIP3    H179301   2.383   4.707   6.458 -0.2640  2.0772  1.7874
19270TIP3    H279302   2.263   4.763   6.533 -2.4027 -0.9517  0.8083
19271TIP3   OH279303   5.807   0.103  10.820 -0.4116 -0.2817 -0.4915
19271TIP3    H179304   5.728   0.054  10.842  0.4534 -0.7439  1.8532
19271TIP3    H279305   5.879   0.044  10.841  0.6208  0.2501 -2.2831
19272TIP3   OH279306   2.750   5.228   5.182 -0.6268  0.1048  0.2158
19272TIP3    H179307   2.824   5.214   5.241 -0.6153 -0.3244  0.1039
19272TIP3    H279308   2.756   5.155   5.119  0.4575  1.5330 -1.4449
19273TIP3   OH279309   3.789   0.490  13.767 -0.2244 -0.0785 -0.2200
19273TIP3    H179310   3.835   0.465  13.686  0.2161 -0.0016  0.0010
19273TIP3    H279311   3.858   0.524  13.824 -0.4499 -0.5987  0.3761
19274TIP3   OH279312   0.761   6.630   0.037 -0.1160  0.1929 -0.2618
19274TIP3    H179313   0.774   6.626  -0.057  0.1781 -0.7885 -0.1898
19274TIP3    H279314   0.832   6.685   0.070 -0.2548  0.5838 -0.6118
19275TIP3   OH279315   6.725   5.780  12.536 -0.0197  0.0746 -0.2066
19275TIP3    H179316   6.760   5.805  12.450  1.1408  1.8577  0.7300
19275TIP3    H279317   6.674   5.700  12.518 -0.7187  0.9596 -2.7327
19276TIP3   OH279318   2.725   6.425   1.267  0.6618 -0.1958 -0.6838
19276TIP3    H179319   2.781   6.444   1.342  0.7761  0.7492 -0.9856
19276TIP3    H279320   2.712   6.330   1.270 -0.6526 -0.0034  1.4237
19277TIP3   OH279321   2.062   1.091   3.543  0.2846  0.1011 -0.5558
19277TIP3    H179322   2.128   1.155   3.516 -1.0508  1.0928 -1.5727
19277TIP3    H279323   1.989   1.105   3.483 -0.9834 -0.7740  0.7317
19278TIP3   OH279324   0.999   6.142   2.705 -0.2814  0.0682  0.2088
19278TIP3    H179325   1.040   6.174   2.785  0.0360  0.9908 -0.3068
19278TIP3    H279326   1.012   6.047   2.708  1.2897  0.2580  0.3993
19279TIP3   OH279327   4.882   3.204   4.050 -0.0148  0.1564 -0.2825
19279TIP3    H179328   4.960   3.185   4.103 -0.3622 -1.7887 -0.3707
19279TIP3    H279329   4.824   3.130   4.068 -0.3077 -0.3753 -3.0784
19280TIP3   OH279330   1.288   2.985   6.214 -0.4307  0.7309 -0.5742
19280TIP3    H179331   1.288   3.077   6.186 -1.3102  1.0581  0.4360
19280TIP3    H279332   1.355   2.944   6.160 -0.7665  1.7317 -1.8195
19281TIP3   OH279333   2.803   6.245   2.961 -0.3514 -0.7234 -0.0403
19281TIP3    H179334   2.889   6.279   2.987  0.5447 -1.5152 -1.7984
19281TIP3    H279335   2.744   6.319   2.973  0.7875  0.1834  0.1627
19282TIP3   OH279336   5.837   1.290  14.418  0.4322 -0.0225 -0.1790
19282TIP3    H179337   5.828   1.384  14.404  0.8750  0.1851  0.8485
19282TIP3    H279338   5.918   1.267  14.373  0.1071  0.0034 -0.7867
19283TIP3   OH279339   1.253   0.144  11.247 -0.3540  0.2850  0.2896
19283TIP3    H179340   1.324   0.086  11.274 -0.4053 -0.7095 -1.5381
19283TIP3    H279341   1.287   0.189  11.170 -1.4427  0.2831 -0.2147
19284TIP3   OH279342   5.399   6.493   2.986 -0.5066 -0.5573 -0.4513
19284TIP3    H179343   5.321   6.443   3.010 -0.8002  0.1964  0.1956
19284TIP3    H279344   5.468   6.462   3.045 -0.2006 -1.4741 -1.2524
19285TIP3   OH279345   5.732   0.712   0.724  0.4346 -0.2829  0.1201
19285TIP3    H179346   5.673   0.687   0.652  1.0433  1.4832 -1.0664
19285TIP3    H279347   5.693   0.672   0.802 -1.3035 -0.6778 -0.8952
19286TIP3   OH279348   4.551   2.531  14.657  0.1302 -0.4180  0.0069
19286TIP3    H179349   4.566   2.482  14.577 -1.2781  0.0898 -0.6079
19286TIP3    H279350   4.494   2.474  14.709 -2.2852  0.8142 -1.0974
19287TIP3   OH279351   5.377   4.707   4.578 -0.1001  0.6856 -0.6183
19287TIP3    H179352   5.467   4.686   4.557 -0.2521  0.4204 -1.0008
19287TIP3    H279353   5.332   4.623   4.580 -0.6904  0.9526 -2.0770
19288TIP3   OH279354   4.163   2.881  14.088  0.1456 -0.9694 -0.1011
19288TIP3    H179355   4.168   2.929  14.005  0.9436 -0.6943  0.0993
19288TIP3    H279356   4.071   2.890  14.115 -0.6214 -2.7582 -1.9268
19289TIP3   OH279357   0.063   2.290   2.765  0.3941  0.6390 -0.3954
19289TIP3    H179358   0.083   2.199   2.746 -2.1800  0.6340 -4.1279
19289TIP3    H279359   0.025   2.289   2.853  0.0872 -1.9440 -0.4937
19290TIP3   OH279360   5.547   1.884  13.513 -1.1335 -0.4872  0.3064
19290TIP3    H179361   5.568   1.969  13.475 -0.8138 -1.1438 -1.0359
19290TIP3    H279362   5.471   1.854  13.463 -0.6769 -1.3916  0.1372
19291TIP3   OH279363   4.140   6.675  15.718 -0.1049  0.2596  0.5861
19291TIP3    H179364   4.120   6.595  15.766  0.8782  0.3080  1.1081
19291TIP3    H279365   4.166   6.645  15.631 -0.9655  0.1116  0.3626
19292TIP3   OH279366   3.485   2.331   5.418 -0.9104 -0.3155 -0.1257
19292TIP3    H179367   3.483   2.420   5.382  4.0102 -0.0379 -0.4216
19292TIP3    H279368   3.495   2.344   5.512 -1.0815 -0.5872 -0.0682
19293TIP3   OH279369   5.631   1.077  11.089  0.3876 -0.4032 -0.4574
19293TIP3    H179370   5.701   1.067  11.153 -0.1086  0.8324  0.3130
19293TIP3    H279371   5.669   1.130  11.019  0.0197  0.9362  0.3319
19294TIP3   OH279372   6.459   3.253  10.910  0.2080  0.0561  0.3047
19294TIP3    H179373   6.374   3.280  10.943  0.8945 -0.9922  3.2818
19294TIP3    H279374   6.516   3.329  10.924 -0.0956  0.6141 -1.3014
19295TIP3   OH279375   1.714   4.841   3.643  0.4763  0.2120  0.4073
19295TIP3    H179376   1.713   4.786   3.722  0.8910  1.1265  1.0671
19295TIP3    H279377   1.634   4.817   3.596  0.4460 -0.6596  0.8768
19296TIP3   OH279378   4.498   0.302   0.975  0.1214 -0.6979  0.2987
19296TIP3    H179379   4.504   0.392   1.008 -0.3319  0.1868 -1.8004
19296TIP3    H279380   4.407   0.294   0.945 -0.4244 -2.5803  2.2058
19297TIP3   OH279381   4.903   0.754   1.782  0.0808 -0.5413 -0.0338
19297TIP3    H179382   4.898   0.681   1.844  0.5104 -0.7894 -0.2782
19297TIP3    H279383   4.843   0.729   1.712  2.6338 -2.3330 -1.7786
19298TIP3   OH279384   5.603   3.355   4.763  0.3312 -0.4640  0.2698
19298TIP3    H179385   5.649   3.420   4.709  1.7218 -1.7198 -0.0998
19298TIP3    H279386   5.535   3.320   4.706  0.0317  0.1447  0.2429
19299TIP3   OH279387   0.900   0.916   5.696  0.1612  0.6321 -0.0713
19299TIP3    H179388   0.804   0.911   5.694  0.1088  1.4925  0.2145
19299TIP3    H279389   0.920   1.009   5.686  0.9314  0.6118  1.0409
19300TIP3   OH279390   4.380   4.437   3.956 -0.6355 -0.4058 -0.8353
19300TIP3    H179391   4.418   4.473   3.876 -0.8752 -0.2586 -0.8858
19300TIP3    H279392   4.413   4.492   4.026  0.9992 -1.5977 -0.6141
19301TIP3   OH279393   2.202   3.249  11.246 -0.5867  0.2436 -0.3325
19301TIP3    H179394   2.290   3.260  11.209 -0.2672  1.3394  0.6713
19301TIP3    H279395   2.198   3.157  11.270  0.8404  0.4464  0.8776
19302TIP3   OH279396   0.288   0.038  14.658 -0.5545 -1.1025  0.0713
19302TIP3    H179397   0.364   0.094  14.672 -0.8871 -0.1812 -1.5517
19302TIP3    H279398   0.260   0.057  14.568 -3.3942 -0.5516  0.9729
19303TIP3   OH279399   4.000   2.366   5.555  1.1078 -0.6464 -0.2931
19303TIP3    H179400   3.984   2.374   5.650  2.5600  0.0315 -0.0848
19303TIP3    H279401   3.912   2.374   5.517  0.3573 -1.9940  1.0297
19304TIP3   OH279402   0.768   0.598   3.297  0.2188  0.1747  0.3632
19304TIP3    H179403   0.718   0.668   3.256 -0.7979 -0.9810 -0.4259
19304TIP3    H279404   0.718   0.518   3.280  1.1530 -0.7200  1.5468
19305TIP3   OH279405   6.712   4.194   5.516  0.2793  0.0415 -0.5521
19305TIP3    H179406   6.748   4.107   5.503 -1.1152 -0.5918 -0.3796
19305TIP3    H279407   6.787   4.253   5.509  1.2953 -1.1911 -0.3234
19306TIP3   OH279408   1.735   2.583  11.518  0.1398 -0.2770 -0.0919
19306TIP3    H179409   1.719   2.497  11.558  0.2121 -0.0322  0.4693
19306TIP3    H279410   1.824   2.606  11.547  0.6001 -0.5411 -1.2135
19307TIP3   OH279411   3.433   3.316   5.398  0.6094 -0.0857 -0.1223
19307TIP3    H179412   3.381   3.240   5.373 -0.1341  0.4858 -0.3653
19307TIP3    H279413   3.481   3.288   5.476  1.5803 -1.3128 -1.1331
19308TIP3   OH279414   1.845   4.347   6.242  0.1160  0.2892  0.1702
19308TIP3    H179415   1.759   4.381   6.267 -0.4407  0.5287 -1.8813
19308TIP3    H279416   1.908   4.406   6.283 -0.7828  2.1903 -1.0693
19309TIP3   OH279417   1.435   0.637   4.215  0.4494  0.6283 -0.7967
19309TIP3    H179418   1.396   0.722   4.238 -0.5151  0.3564 -1.3403
19309TIP3    H279419   1.455   0.596   4.298  0.5700  1.2407 -0.5208
19310TIP3   OH279420   3.948   5.964   2.894 -0.2867  0.4162  0.2188
19310TIP3    H179421   3.961   6.042   2.949  0.4317  0.3193  0.1916
19310TIP3    H279422   3.864   5.979   2.851 -1.3714  0.0428  2.0958
19311TIP3   OH279423   6.385   0.764  16.971 -0.1317 -0.1065  0.0693
19311TIP3    H179424   6.370   0.685  17.024 -1.0508 -0.7945 -1.1734
19311TIP3    H279425   6.385   0.836  17.035 -0.8263 -0.9583  1.0554
19312TIP3   OH279426   4.459   5.932   3.948 -0.0573 -0.0517 -0.1908
19312TIP3    H179427   4.521   5.925   4.021  0.6868  1.0145 -0.7006
19312TIP3    H279428   4.495   6.001   3.892 -2.4605  1.6762  0.2349
19313TIP3   OH279429   0.279   1.113   4.121  0.3804  0.0502 -0.0489
19313TIP3    H179430   0.338   1.179   4.085  2.4196 -1.0175  1.1515
19313TIP3    H279431   0.325   1.030   4.110  0.2515 -0.5687  3.0641
19314TIP3   OH279432   5.104   1.889   1.485  0.2460 -0.6441 -0.0075
19314TIP3    H179433   5.136   1.818   1.430  0.5275 -0.4662 -0.0779
19314TIP3    H279434   5.178   1.949   1.492 -0.6092  0.6929 -1.6795
19315TIP3   OH279435   0.344   5.499  14.685 -0.3581 -0.3842  0.7412
19315TIP3    H179436   0.293   5.503  14.604  1.3530 -0.3827 -0.3795
19315TIP3    H279437   0.278   5.489  14.754 -1.9365  0.7983 -0.5142
19316TIP3   OH279438   3.153   1.050   5.381  0.0604 -0.1536 -0.3960
19316TIP3    H179439   3.184   1.141   5.387  1.3188 -0.5396 -0.8110
19316TIP3    H279440   3.149   1.032   5.287 -2.1217  0.0871 -0.3968
19317TIP3   OH279441   2.000   0.830  12.629  0.2978 -0.0627  0.2799
19317TIP3    H179442   1.912   0.794  12.619 -0.2354  1.3493 -0.4470
19317TIP3    H279443   2.040   0.777  12.698 -0.7048 -1.4675 -0.1691
19318TIP3   OH279444   4.943   3.412   3.396  0.0646 -0.2699  0.2921
19318TIP3    H179445   5.002   3.340   3.373  0.7821  0.1370  0.8087
19318TIP3    H279446   4.889   3.425   3.318  0.2417 -1.0599  0.0339
19319TIP3   OH279447   1.402   1.402   6.080  0.1290 -0.3533  0.3113
19319TIP3    H179448   1.487   1.378   6.045  0.3477  0.3204  0.3747
19319TIP3    H279449   1.382   1.487   6.040 -0.5266 -0.5197  0.2683
19320TIP3   OH279450   4.098   3.616   2.800  0.0890 -0.1659 -0.3866
19320TIP3    H179451   4.010   3.649   2.781  0.3905  0.5084 -0.6731
19320TIP3    H279452   4.107   3.622   2.895  0.0343  0.3383 -0.4090
19321TIP3   OH279453   2.735   0.988   5.613  0.9351  0.2772 -0.0640
19321TIP3    H179454   2.687   0.906   5.623  1.2312  0.2200  0.9577
19321TIP3    H279455   2.766   0.986   5.522  0.2766 -0.3665 -0.2912
19322TIP3   OH279456   4.821   3.402   5.618  0.0603 -0.5212 -0.4586
19322TIP3    H179457   4.788   3.344   5.550 -0.0676  2.5738 -3.2476
19322TIP3    H279458   4.905   3.434   5.585  0.0946  0.9423  0.8930
19323TIP3   OH279459   0.535   0.636  14.925 -0.4803  0.0666  0.2641
19323TIP3    H179460   0.490   0.718  14.946  0.8378  1.3789 -1.6623
19323TIP3    H279461   0.619   0.664  14.889  0.4038 -2.1962  0.4215
19324TIP3   OH279462   2.025   2.114  16.848  0.0201 -0.0345 -0.3068
19324TIP3    H179463   1.959   2.162  16.796 -0.6152 -1.1067 -0.5287
19324TIP3    H279464   2.028   2.028  16.807  2.5723  0.3780 -1.1400
19325TIP3   OH279465   5.446   2.023   3.262 -0.5631 -0.1312  0.0497
19325TIP3    H179466   5.444   1.981   3.348 -2.3035 -2.5698 -1.0700
19325TIP3    H279467   5.358   2.059   3.250 -0.2461  0.4569 -0.5935
19326TIP3   OH279468   6.653   4.494   6.888 -0.3458  0.2419  0.1824
19326TIP3    H179469   6.629   4.587   6.876 -0.2750  0.0295 -1.8779
19326TIP3    H279470   6.574   4.446   6.863 -0.2119 -0.2846  0.7502
19327TIP3   OH279471   1.132   2.517   0.041 -0.1777 -0.0488 -0.2549
19327TIP3    H179472   1.201   2.509   0.107  2.6480  1.5833 -2.7526
19327TIP3    H279473   1.127   2.430   0.002  0.6101 -0.1435 -0.1660
19328TIP3   OH279474   0.158   1.873  16.987  0.4407 -0.6372 -0.0625
19328TIP3    H179475   0.070   1.893  16.956  0.2534  0.0539  0.8798
19328TIP3    H279476   0.215   1.889  16.912 -0.1191 -0.0543 -0.3607
19329TIP3   OH279477   2.509   4.114  14.980 -1.1346  0.0106 -0.2810
19329TIP3    H179478   2.490   4.100  14.887 -0.6593  0.0154 -0.3766
19329TIP3    H279479   2.450   4.053  15.025  0.4979 -1.9332 -0.6753
19330TIP3   OH279480   4.540   0.690   0.619 -0.0752 -0.3143 -0.1510
19330TIP3    H179481   4.518   0.605   0.580  3.0768 -1.7862  0.9264
19330TIP3    H279482   4.543   0.750   0.544 -0.4186 -1.5970 -1.2415
19331TIP3   OH279483   0.651   6.011  11.327 -0.2486 -0.5439  0.3176
19331TIP3    H179484   0.590   6.052  11.266 -2.7133 -3.1614  0.7894
19331TIP3    H279485   0.629   6.047  11.412  1.5658  1.3170  0.0800
19332TIP3   OH279486   4.743   5.138  14.894  0.0873  0.6275 -0.7310
19332TIP3    H179487   4.818   5.102  14.941 -0.6426 -0.9197 -0.6983
19332TIP3    H279488   4.672   5.140  14.958 -0.3524  0.4950 -1.2043
19333TIP3   OH279489   1.142   1.910   2.387  0.2609 -0.8998 -0.2538
19333TIP3    H179490   1.232   1.939   2.396 -0.2328  0.7418 -0.3321
19333TIP3    H279491   1.137   1.874   2.298  1.0828 -2.0387  0.1359
19334TIP3   OH279492   5.995   6.554   1.971  0.0465  0.1671  0.2976
19334TIP3    H179493   6.063   6.489   1.992 -0.4916 -0.3781  0.3611
19334TIP3    H279494   5.965   6.530   1.884  0.4423  0.8585 -0.0405
19335TIP3   OH279495   2.624   3.509   1.262 -0.3070 -0.8362 -0.5359
19335TIP3    H179496   2.634   3.432   1.318 -0.3554 -0.0167  0.6423
19335TIP3    H279497   2.557   3.562   1.306  1.0578  0.7723 -0.2799
19336TIP3   OH279498   0.519   1.879   4.246 -0.2361 -0.1015 -0.5499
19336TIP3    H179499   0.448   1.820   4.225 -0.9693  0.7410 -0.4972
19336TIP3    H279500   0.581   1.868   4.174 -0.4612 -0.7642 -0.6474
19337TIP3   OH279501   0.108   0.194  16.498  0.0830 -0.1460  0.0492
19337TIP3    H179502   0.178   0.163  16.556  0.0408 -0.5075 -0.0880
19337TIP3    H279503   0.103   0.128  16.429 -0.1183  0.0893 -0.1662
19338TIP3   OH279504   6.025   0.805   0.765 -0.0325 -0.2740  0.2934
19338TIP3    H179505   5.953   0.775   0.819 -1.8324  1.2821 -1.0876
19338TIP3    H279506   6.052   0.888   0.804 -0.7943  0.4498 -0.6727
19339TIP3   OH279507   3.412   4.408  13.862  0.1861  0.1239  0.5758
19339TIP3    H179508   3.472   4.437  13.793 -2.2022  3.0696 -0.5028
19339TIP3    H279509   3.396   4.488  13.913 -1.2483 -1.0572  2.0471
19340TIP3   OH279510   0.039   5.492   1.444 -0.2228  0.5120 -0.0673
19340TIP3    H179511   0.046   5.506   1.350  0.3287  1.0917  0.0531
19340TIP3    H279512   0.024   5.580   1.481  0.8121  0.4755  0.4868
19341TIP3   OH279513   1.187   4.061  10.561 -0.6174  0.1486  0.1544
19341TIP3    H179514   1.277   4.091  10.545 -0.7044 -0.0483 -0.7424
19341TIP3    H279515   1.139   4.141  10.584  0.5664 -0.1202  4.7378
19342TIP3   OH279516   6.653   4.367  11.839  0.3414  0.5251 -0.7309
19342TIP3    H179517   6.651   4.285  11.790  0.9746  0.0076  0.0756
19342TIP3    H279518   6.620   4.344  11.926 -0.6989  1.4115 -0.8689
19343TIP3   OH279519   5.780   1.300   4.014  0.1743  0.1483 -0.1448
19343TIP3    H179520   5.739   1.373   4.060  1.0700  0.0548  0.8472
19343TIP3    H279521   5.851   1.340   3.963 -0.2979  0.1455 -0.8238
19344TIP3   OH279522   3.331   3.710  14.484 -0.2323  0.5535 -0.0458
19344TIP3    H179523   3.363   3.745  14.567 -2.1971  0.2725  0.8870
19344TIP3    H279524   3.253   3.661  14.507  0.9808 -2.3804 -1.6283
19345TIP3   OH279525   0.336   5.045  15.867 -0.9256  0.6235  0.0801
19345TIP3    H179526   0.335   4.989  15.789 -1.4042  1.7879 -0.7864
19345TIP3    H279527   0.245   5.046  15.897 -0.9927  1.2015 -0.1232
19346TIP3   OH279528   6.700   0.003   2.812  0.5392 -0.2259 -0.6575
19346TIP3    H179529   6.744   0.041   2.735  1.1353 -1.9029 -1.1821
19346TIP3    H279530   6.615  -0.025   2.779 -1.0044  2.8637  0.3187
19347TIP3   OH279531   5.076   1.706   0.339  0.5827 -0.0184  0.0599
19347TIP3    H179532   5.078   1.618   0.376 -0.6631 -1.0400 -2.0957
19347TIP3    H279533   4.991   1.712   0.297  1.2669  1.6338 -1.1835
19348TIP3   OH279534   2.399   1.425   0.093  0.0628 -0.2016 -0.2670
19348TIP3    H179535   2.331   1.395   0.033 -0.6990 -0.8973  0.9126
19348TIP3    H279536   2.361   1.502   0.135  0.0093 -0.5799  0.3791
19349TIP3   OH279537   6.175   1.748   3.003  0.3498  0.0659  0.2641
19349TIP3    H179538   6.146   1.808   2.934  0.2063 -1.3140 -0.9263
19349TIP3    H279539   6.267   1.770   3.018  0.2441  0.7027 -0.0102
19350TIP3   OH279540   1.072   1.626   0.080 -0.0821 -0.0629  0.0863
19350TIP3    H179541   1.121   1.557   0.037 -1.9786 -0.8647 -0.9247
19350TIP3    H279542   1.034   1.677   0.008  2.5590  3.1174  0.7396
19351TIP3   OH279543   6.416   0.809  15.992 -0.4248  0.7960  0.4274
19351TIP3    H179544   6.505   0.841  16.005 -0.3468  0.6750  0.2087
19351TIP3    H279545   6.385   0.855  15.914 -0.1590  0.0362 -0.1405
19352TIP3   OH279546   3.290   2.126  16.435 -0.3181  0.8584 -0.3576
19352TIP3    H179547   3.385   2.139  16.441 -0.4130  1.9677 -1.0536
19352TIP3    H279548   3.280   2.053  16.374  0.1221 -0.5760  1.1923
19353TIP3   OH279549   3.466   1.536   4.273 -0.4234 -0.9315  0.2928
19353TIP3    H179550   3.408   1.583   4.334 -1.7060 -2.2819  0.1683
19353TIP3    H279551   3.549   1.530   4.320  0.0672  2.0883  0.0068
19354TIP3   OH279552   1.130   5.631  11.597 -0.0072  0.3476  0.2831
19354TIP3    H179553   1.173   5.715  11.614 -0.6992  0.8813 -0.5396
19354TIP3    H279554   1.043   5.655  11.565  0.1735 -0.6624 -1.0119
19355TIP3   OH279555   6.527   6.151   4.741 -0.1452  0.0796  0.5541
19355TIP3    H179556   6.620   6.173   4.734  0.0629 -0.2405  1.9071
19355TIP3    H279557   6.492   6.165   4.654  1.1807  0.1928  0.0158
19356TIP3   OH279558   6.506   5.617  17.126 -0.3689  0.1554 -0.1159
19356TIP3    H179559   6.424   5.599  17.171  0.4460 -0.8289  1.0354
19356TIP3    H279560   6.550   5.681  17.182 -0.5175  1.0057 -0.9481
19357TIP3   OH279561   3.908   3.092  16.637 -0.3240  0.9939  0.6619
19357TIP3    H179562   3.936   3.159  16.575 -1.7312  0.1421 -0.9891
19357TIP3    H279563   3.973   3.022  16.629  0.1462  1.3827  1.0445
19358TIP3   OH279564   1.549   3.672   2.887  0.8395  0.0490 -0.0264
19358TIP3    H179565   1.638   3.664   2.923  0.5239 -3.5652  0.3267
19358TIP3    H279566   1.494   3.623   2.948 -1.0565  0.3681 -1.3832
19359TIP3   OH279567   4.836   5.918   3.194 -0.4284  0.1741 -0.1484
19359TIP3    H179568   4.764   5.939   3.252 -0.7512 -1.7391  0.2072
19359TIP3    H279569   4.911   5.906   3.252  0.1389  1.8207 -0.4865
19360TIP3   OH279570   2.879   0.997  11.987  0.3242 -0.1213  0.7263
19360TIP3    H179571   2.864   1.038  11.902  0.1860  0.2544  0.9331
19360TIP3    H279572   2.807   0.936  11.997  1.0354 -1.1281 -0.0099
19361TIP3   OH279573   4.108   5.101  16.855  0.1781  0.0601 -0.1365
19361TIP3    H179574   4.073   5.029  16.908  2.4166 -0.8188  0.2570
19361TIP3    H279575   4.032   5.136  16.810 -1.1544 -1.9214  0.4231
19362TIP3   OH279576   1.170   0.709  14.583  0.1209 -0.1506 -0.1780
19362TIP3    H179577   1.092   0.658  14.557  0.2115 -0.5635  0.3359
19362TIP3    H279578   1.175   0.697  14.678  0.8022 -0.1121 -0.2073
19363TIP3   OH279579   0.259   3.587  12.236 -0.0551 -0.4543 -0.1632
19363TIP3    H179580   0.284   3.533  12.160  1.0455  1.7364 -1.4570
19363TIP3    H279581   0.220   3.665  12.198 -1.1278 -0.0723  1.6279
19364TIP3   OH279582   4.970   5.518  14.101  0.1525  0.2903 -0.5513
19364TIP3    H179583   4.889   5.469  14.119 -0.5001  1.9143  1.2707
19364TIP3    H279584   4.975   5.520  14.006 -1.7219 -0.2372 -0.7110
19365TIP3   OH279585   1.669   3.563  13.349  0.5330 -0.8768 -0.6555
19365TIP3    H179586   1.703   3.642  13.309 -2.7457  0.0650 -1.9579
19365TIP3    H279587   1.672   3.580  13.444  1.4297  0.0794 -0.8475
19366TIP3   OH279588   5.648   1.755   0.922 -0.9171 -0.2374 -0.5557
19366TIP3    H179589   5.600   1.790   0.847  0.5294  1.0310 -0.9406
19366TIP3    H279590   5.688   1.832   0.963 -0.2459 -1.1045  0.4718
19367TIP3   OH279591   1.073   2.981  15.881 -0.2283 -0.8834  0.4164
19367TIP3    H179592   1.085   2.980  15.786 -3.4177 -2.5811 -0.0981
19367TIP3    H279593   1.156   2.947  15.916  1.4904  0.9225 -1.5791
19368TIP3   OH279594   4.340   5.257  16.244  0.0876 -0.3429 -0.2734
19368TIP3    H179595   4.355   5.330  16.304 -1.9835  0.5737 -0.7711
19368TIP3    H279596   4.376   5.287  16.160  1.6232 -1.0192  0.1015
19369TIP3   OH279597   5.227   2.153   4.394  0.1091 -0.1262  0.2978
19369TIP3    H179598   5.208   2.075   4.447 -0.0352 -0.0843  0.3075
19369TIP3    H279599   5.270   2.119   4.316  1.1280 -0.1134  0.8424
19370TIP3   OH279600   5.614   3.243   5.777  0.1707 -0.8275  0.4976
19370TIP3    H179601   5.585   3.321   5.824 -1.9371 -0.3784 -1.3925
19370TIP3    H279602   5.556   3.174   5.807 -2.0091 -0.2825 -2.1266
19371TIP3   OH279603   0.113   5.186   5.679  0.0225 -0.0705 -0.2391
19371TIP3    H179604   0.193   5.146   5.645  0.1355  0.4066 -0.5376
19371TIP3    H279605   0.066   5.113   5.720 -1.1612 -1.1929 -3.2689
19372TIP3   OH279606   4.790   4.653   5.564 -0.1197 -0.0365 -0.9538
19372TIP3    H179607   4.708   4.614   5.534 -0.0558  0.3449 -1.6580
19372TIP3    H279608   4.795   4.736   5.516 -0.1614  0.7552  0.3619
19373TIP3   OH279609   5.914   4.089  15.525  0.2202 -0.2139  0.0741
19373TIP3    H179610   5.876   4.095  15.613  1.4908 -0.2734  0.6449
19373TIP3    H279611   5.977   4.018  15.531  1.6975  1.0016 -0.3360
19374TIP3   OH279612   1.865   0.487   5.130 -0.0748  0.0975 -0.3856
19374TIP3    H179613   1.942   0.515   5.081 -0.5983  1.5312 -0.4447
19374TIP3    H279614   1.863   0.392   5.119  2.5922 -0.2183  1.0016
19375TIP3   OH279615   0.530   6.526  17.069  0.4125  0.4199 -0.4932
19375TIP3    H179616   0.553   6.450  17.123 -0.2451 -0.1867 -1.0265
19375TIP3    H279617   0.475   6.580  17.125  2.1551  1.3203  0.4137
19376TIP3   OH279618   2.740   4.425  12.060  0.1535  0.0382 -0.1208
19376TIP3    H179619   2.775   4.414  11.971  0.9563 -1.5336  0.3627
19376TIP3    H279620   2.762   4.344  12.105  0.1485  0.9816  1.6676
19377TIP3   OH279621   6.618   2.631  13.529 -0.5662  0.0066  0.2079
19377TIP3    H179622   6.667   2.623  13.611 -1.0044 -2.4482  0.3057
19377TIP3    H279623   6.554   2.700  13.546 -0.5652 -0.3690  1.9022
19378TIP3   OH279624   2.826   1.725  11.973 -0.4732 -0.0746 -0.0697
19378TIP3    H179625   2.756   1.736  11.909 -1.2289  0.4992  0.8303
19378TIP3    H279626   2.810   1.639  12.011 -1.3831  0.5044  0.9177
19379TIP3   OH279627   0.493   3.368   3.809 -0.5622  0.0636  0.2394
19379TIP3    H179628   0.432   3.441   3.802  2.1984  2.8510  2.4775
19379TIP3    H279629   0.490   3.343   3.901  0.6437 -0.6860  0.0929
19380TIP3   OH279630   1.601   2.942  15.125 -0.1962 -0.7106  0.5950
19380TIP3    H179631   1.606   2.988  15.041  0.8140 -1.7088  0.0864
19380TIP3    H279632   1.521   2.890  15.118 -0.4447 -0.3246  0.5021
19381TIP3   OH279633   0.829   0.452   2.242 -0.3476  0.3755  0.2941
19381TIP3    H179634   0.758   0.517   2.242 -0.2332  0.5221 -0.6961
19381TIP3    H279635   0.891   0.484   2.177 -0.9592 -1.4043 -1.2743
19382TIP3   OH279636   1.586   4.234  14.691 -0.0126  0.1931  0.1425
19382TIP3    H179637   1.520   4.236  14.760  0.3504  0.6534  0.4926
19382TIP3    H279638   1.539   4.208  14.612 -0.4147 -0.4423  0.5854
19383TIP3   OH279639   0.914   5.451  17.056  0.3596  0.5112 -0.6269
19383TIP3    H179640   0.976   5.433  17.126  1.1806  0.5202 -1.3270
19383TIP3    H279641   0.967   5.492  16.987 -0.5366  1.0744 -1.0064
19384TIP3   OH279642   3.525   1.796  13.758 -0.4245 -0.1026 -0.1094
19384TIP3    H179643   3.565   1.758  13.680 -2.7874 -1.5360 -0.7391
19384TIP3    H279644   3.597   1.804  13.821  1.4218  0.4960 -2.1720
19385TIP3   OH279645   4.471   1.865   0.198 -0.2738  0.0157  0.7704
19385TIP3    H179646   4.393   1.836   0.150 -0.1745  0.3675  0.3882
19385TIP3    H279647   4.518   1.784   0.218 -0.1814 -0.1205  0.0301
19386TIP3   OH279648   3.249   5.362   5.447  0.4227 -0.1087  0.7483
19386TIP3    H179649   3.223   5.435   5.391  2.4154 -0.9010 -1.3342
19386TIP3    H279650   3.174   5.350   5.506 -0.3715  2.9311  0.5241
19387TIP3   OH279651   3.076   6.747   5.129 -0.4544  0.3496 -0.2957
19387TIP3    H179652   3.077   6.734   5.223  1.0985 -0.1736 -0.3610
19387TIP3    H279653   3.102   6.663   5.092  0.6833  1.0204 -1.0966
19388TIP3   OH279654   5.335   3.410   4.178  0.2919  0.5133  0.0019
19388TIP3    H179655   5.260   3.460   4.211  0.5268  1.4788 -0.8974
19388TIP3    H279656   5.296   3.330   4.143 -0.5323  1.6296 -1.7730
19389TIP3   OH279657   6.686   0.858  15.932 -0.3042  0.0060 -0.4177
19389TIP3    H179658   6.776   0.844  15.961 -0.5567 -0.5974  0.0910
19389TIP3    H279659   6.686   0.831  15.840  0.0525  0.1100 -0.4519
19390TIP3   OH279660   2.341   1.978   1.595 -0.0037 -0.5052 -0.0441
19390TIP3    H179661   2.333   2.064   1.636 -0.2206 -0.1303 -0.8372
19390TIP3    H279662   2.257   1.965   1.551  0.3972 -0.6463 -0.7949
19391TIP3   OH279663   4.354   4.227   0.740  0.4159 -0.0309 -0.1019
19391TIP3    H179664   4.378   4.226   0.647  0.8832 -1.2108  0.0175
19391TIP3    H279665   4.259   4.226   0.741  0.4119 -1.0372 -0.5756
19392TIP3   OH279666   4.905   5.112   4.355 -0.4001 -0.2787  0.0919
19392TIP3    H179667   4.997   5.086   4.347  0.3328  1.9098  0.8626
19392TIP3    H279668   4.879   5.137   4.266  0.5358  1.4481  0.2684
19393TIP3   OH279669   6.692   2.736   3.512 -0.8920  0.6936  0.0463
19393TIP3    H179670   6.718   2.824   3.539 -2.3789  0.9128  0.9046
19393TIP3    H279671   6.769   2.681   3.527  0.1408  1.8680 -0.7419
19394TIP3   OH279672   6.544   5.704   5.393  0.6397  0.1472 -0.1060
19394TIP3    H179673   6.579   5.793   5.390  1.4604 -0.1360  0.6003
19394TIP3    H279674   6.503   5.692   5.308 -1.2631  1.8852  0.4898
19395TIP3   OH279675   3.212   2.092   0.108 -0.1090  0.4537 -0.2471
19395TIP3    H179676   3.285   2.097   0.046 -1.0516 -0.2253 -1.4761
19395TIP3    H279677   3.190   1.999   0.110 -2.5796  0.8847 -1.9816
19396TIP3   OH279678   3.212   4.175   0.698  0.1494  0.2159  0.9061
19396TIP3    H179679   3.206   4.085   0.729  0.2431  0.5028  1.7603
19396TIP3    H279680   3.150   4.223   0.752 -0.9605  0.4241 -0.4892
19397TIP3   OH279681   5.528   6.387   6.337 -0.1100 -0.1957  0.0615
19397TIP3    H179682   5.438   6.366   6.314 -0.2797 -0.7355  1.1603
19397TIP3    H279683   5.551   6.324   6.406  1.2341 -0.3283 -0.4685
19398TIP3   OH279684   6.230   4.107   4.135  0.2530  0.0913 -0.4179
19398TIP3    H179685   6.206   4.065   4.217  1.5589 -2.1445 -1.0994
19398TIP3    H279686   6.246   4.198   4.159 -2.9609  0.4249  1.0879
19399TIP3   OH279687   5.471   1.704   4.085  0.0564 -0.3498 -1.0514
19399TIP3    H179688   5.509   1.781   4.043  0.7803 -0.5644 -0.8177
19399TIP3    H279689   5.378   1.707   4.063  0.4982 -0.7980 -3.1988
19400TIP3   OH279690   4.030   1.832   0.781 -0.0966 -0.3015  0.0772
19400TIP3    H179691   4.123   1.847   0.769 -0.1567 -0.6291 -0.8459
19400TIP3    H279692   4.017   1.836   0.876  0.5903  1.2545  0.1341
19401TIP3   OH279693   0.694   1.756  11.915 -0.1684 -0.5592 -0.0415
19401TIP3    H179694   0.612   1.802  11.928  0.8369  1.0566  0.8044
19401TIP3    H279695   0.744   1.811  11.855  0.4788 -1.3186 -0.2276
19402TIP3   OH279696   1.593   6.249   1.325  0.0039 -0.0949  0.5109
19402TIP3    H179697   1.512   6.294   1.303  0.1814 -0.4038 -0.8983
19402TIP3    H279698   1.645   6.252   1.244  1.2206 -0.2780  1.2489
19403TIP3   OH279699   4.183   0.027  17.172  0.1006  0.5961  0.3731
19403TIP3    H179700   4.246   0.083  17.127 -1.3132  0.6237 -1.7384
19403TIP3    H279701   4.232  -0.052  17.195  1.0452  0.8374 -0.7311
19404TIP3   OH279702   3.311   6.755  16.348  0.4065 -0.2243 -0.3241
19404TIP3    H179703   3.370   6.682  16.364 -0.3159 -0.6583  0.3758
19404TIP3    H279704   3.293   6.792  16.434  2.0810  1.8579 -0.7737
19405TIP3   OH279705   2.737   1.776  16.450  0.7518 -0.4368 -0.2511
19405TIP3    H179706   2.828   1.779  16.481  0.1886 -1.2134  1.6907
19405TIP3    H279707   2.696   1.853  16.490  0.0742 -1.2807  0.7268
19406TIP3   OH279708   5.034   3.237   3.801 -0.0426 -0.5899 -0.0559
19406TIP3    H179709   5.010   3.327   3.822  0.3621 -0.2193 -1.0914
19406TIP3    H279710   4.978   3.183   3.856 -0.9077  0.2878 -0.0481
19407TIP3   OH279711   5.368   5.372  17.120 -0.0618 -0.2227 -0.2115
19407TIP3    H179712   5.451   5.416  17.103  0.9882 -2.0508 -0.1358
19407TIP3    H279713   5.393   5.282  17.143 -1.8364 -0.0628  2.9959
19408TIP3   OH279714   1.205   2.505  15.739  0.1448  0.1410  0.0441
19408TIP3    H179715   1.204   2.463  15.825  0.7510  0.3597  0.1636
19408TIP3    H279716   1.298   2.509  15.715 -0.0847 -1.1075 -1.2105
19409TIP3   OH279717   6.348   3.969  17.076 -0.8339 -0.9025  0.2553
19409TIP3    H179718   6.351   4.064  17.074  2.0485 -0.9139  0.0370
19409TIP3    H279719   6.257   3.948  17.096 -1.4824  1.8771  0.5670
19410TIP3   OH279720   1.887   5.456   4.192 -0.2637 -0.2505  0.1151
19410TIP3    H179721   1.876   5.361   4.200 -1.0145 -0.1173  0.6882
19410TIP3    H279722   1.964   5.475   4.246 -0.3079 -0.4800  0.2608
19411TIP3   OH279723   6.171   4.563  12.044  0.0045 -0.7160 -0.2690
19411TIP3    H179724   6.135   4.628  12.104 -1.0598 -0.4672 -1.1556
19411TIP3    H279725   6.229   4.510  12.099  0.7456  0.8335  0.5218
19412TIP3   OH279726   3.502   0.982   1.392  0.0880 -0.7319 -0.2348
19412TIP3    H179727   3.532   0.917   1.328  0.5000 -0.0119 -0.7845
19412TIP3    H279728   3.543   0.955   1.474  1.4312 -0.3580 -0.7552
19413TIP3   OH279729   6.449   5.274  15.135 -0.3631  0.1059 -0.4618
19413TIP3    H179730   6.373   5.250  15.189  0.3696  0.5067  0.7899
19413TIP3    H279731   6.413   5.284  15.047 -1.3876 -1.8463 -0.3368
19414TIP3   OH279732   6.688   3.498  14.324  0.0050  0.1876  0.2951
19414TIP3    H179733   6.698   3.572  14.264  0.9411  0.7882  1.1673
19414TIP3    H279734   6.770   3.494  14.373  0.0899 -1.6044  0.1014
19415TIP3   OH279735   2.791   1.480   5.436  0.6039  0.4347 -0.7810
19415TIP3    H179736   2.874   1.527   5.437  0.0774  1.4191  0.1718
19415TIP3    H279737   2.725   1.550   5.431 -0.1850 -0.2542 -0.2780
19416TIP3   OH279738   5.953   6.387   2.835 -0.2625  0.1319 -0.0507
19416TIP3    H179739   5.883   6.451   2.850 -1.4571 -0.5535 -2.3193
19416TIP3    H279740   6.015   6.403   2.906 -1.7415  2.1002  0.8992
19417TIP3   OH279741   6.476   3.381  16.869 -0.4627  0.4323  0.3189
19417TIP3    H179742   6.507   3.364  16.780 -0.8095  2.4671 -0.2409
19417TIP3    H279743   6.552   3.417  16.915 -0.9899  2.1113 -0.0401
19418TIP3   OH279744   4.778   0.385  13.431  0.0170 -0.2394 -0.0791
19418TIP3    H179745   4.691   0.349  13.446 -0.0091 -0.0527  0.2217
19418TIP3    H279746   4.817   0.392  13.518  0.5274 -0.8021 -0.2573
19419TIP3   OH279747   5.717   6.583  14.523 -0.3810 -0.0365  0.5443
19419TIP3    H179748   5.744   6.508  14.470 -0.3877  0.1359  0.2939
19419TIP3    H279749   5.702   6.653  14.459 -0.2220  0.2220  0.7922
19420TIP3   OH279750   1.069   2.072   4.579 -0.4629 -0.2412 -0.4610
19420TIP3    H179751   1.121   2.148   4.552  0.5667 -1.1783 -1.1794
19420TIP3    H279752   0.982   2.108   4.598 -0.0020  1.1078 -0.8301
19421TIP3   OH279753   3.202   4.458  13.269 -0.0285  0.5080  0.2799
19421TIP3    H179754   3.283   4.418  13.299  0.6087 -0.3061 -2.2854
19421TIP3    H279755   3.215   4.552  13.283  0.7506  0.2899  1.1766
19422TIP3   OH279756   0.683   5.322   4.503 -0.3725 -0.1543 -0.0548
19422TIP3    H179757   0.642   5.372   4.432  0.7841  0.2160 -0.4905
19422TIP3    H279758   0.613   5.265   4.536 -0.3578 -2.2460 -3.2019
19423TIP3   OH279759   2.131   5.711  11.492 -0.3826  0.5076 -0.4748
19423TIP3    H179760   2.196   5.697  11.561 -1.5430 -0.6794  0.4150
19423TIP3    H279761   2.173   5.678  11.413 -0.1163 -0.8246  0.1977
19424TIP3   OH279762   5.099   4.975   1.296 -0.1366 -0.2071 -0.1607
19424TIP3    H179763   5.082   4.942   1.384 -1.7228  0.8677 -0.0343
19424TIP3    H279764   5.163   5.045   1.308  0.5415 -0.8306 -0.0283
19425TIP3   OH279765   5.842   0.260   0.989  0.3309  0.0494 -0.1528
19425TIP3    H179766   5.769   0.255   1.051  0.2371 -2.6295 -0.3912
19425TIP3    H279767   5.809   0.219   0.909  1.2539  1.2453 -1.1967
19426TIP3   OH279768   2.812   4.483  11.290 -0.2570 -0.5368 -0.2130
19426TIP3    H179769   2.878   4.493  11.359 -0.2374 -0.5206 -0.2340
19426TIP3    H279770   2.861   4.490  11.209 -0.4395  0.5431 -0.2383
19427TIP3   OH279771   0.959   5.185  12.779 -1.4486 -0.7853  0.3721
19427TIP3    H179772   0.990   5.178  12.689  0.1069 -0.7028  0.8517
19427TIP3    H279773   0.879   5.237  12.774 -0.8617  0.0453 -0.8585
19428TIP3   OH279774   1.219   4.726   3.530 -0.2749 -0.5728  0.1735
19428TIP3    H179775   1.251   4.733   3.620 -0.0134  1.3026 -0.0417
19428TIP3    H279776   1.298   4.718   3.477 -0.4075 -1.0357  0.0345
19429TIP3   OH279777   4.350   4.680  12.308  0.1599  0.2517  0.0874
19429TIP3    H179778   4.300   4.683  12.226 -0.4754 -0.2078  0.4463
19429TIP3    H279779   4.409   4.605  12.296 -1.7157 -1.4979  1.0020
19430TIP3   OH279780   2.930   5.108   2.494 -0.2144  0.3366  0.6671
19430TIP3    H179781   2.980   5.033   2.527  0.7409  1.1761  1.1828
19430TIP3    H279782   2.992   5.180   2.495 -0.7977  0.9012 -0.8849
19431TIP3   OH279783   3.387   6.548  13.944  0.0798 -0.0064 -0.3957
19431TIP3    H179784   3.469   6.503  13.921 -0.2595 -1.2298  0.6576
19431TIP3    H279785   3.353   6.498  14.018 -2.7123 -0.8481 -2.1043
19432TIP3   OH279786   0.873   4.422   5.674  0.2594  0.4978 -1.0967
19432TIP3    H179787   0.927   4.381   5.742 -1.9117 -0.4037  0.2344
19432TIP3    H279788   0.876   4.515   5.694  1.1697  0.4531 -0.9702
19433TIP3   OH279789   6.631   6.209  14.889  0.0592  0.4768 -0.0424
19433TIP3    H179790   6.536   6.212  14.884 -0.0417 -1.2382  0.3219
19433TIP3    H279791   6.651   6.209  14.983  0.3563 -0.1683 -0.0976
19434TIP3   OH279792   4.327   5.836  12.345  0.0156  0.1161  0.0720
19434TIP3    H179793   4.292   5.892  12.276 -0.9344 -0.7280 -0.1420
19434TIP3    H279794   4.284   5.866  12.425  0.0309  0.1495  0.0676
19435TIP3   OH279795   0.211   5.345  11.862  0.0769 -0.2567  0.8087
19435TIP3    H179796   0.137   5.308  11.814  0.1589  1.3891 -0.7004
19435TIP3    H279797   0.267   5.383  11.794 -0.0739  2.6902  2.1844
19436TIP3   OH279798   2.951   3.893  15.188 -0.6558 -0.0227 -0.2062
19436TIP3    H179799   3.036   3.886  15.232  0.3216  0.3492 -1.9743
19436TIP3    H279800   2.900   3.951  15.245  0.3550 -0.0054  0.7300
19437TIP3   OH279801   1.929   3.704  12.397  0.0698  0.3928 -0.5361
19437TIP3    H179802   1.961   3.615  12.381  1.0796  0.3608  1.3868
19437TIP3    H279803   1.968   3.756  12.326 -0.8074 -0.7067 -1.8852
19438TIP3   OH279804   0.535   3.402   1.699 -0.4070  0.1532 -0.8740
19438TIP3    H179805   0.534   3.311   1.728 -0.9464  0.4512  0.0898
19438TIP3    H279806   0.444   3.430   1.705 -0.1523  0.9327 -0.5690
19439TIP3   OH279807   0.409   0.841   4.721  0.1778 -0.2388 -0.0646
19439TIP3    H179808   0.321   0.802   4.730  0.4547 -0.7498  0.5157
19439TIP3    H279809   0.462   0.770   4.686  0.2041  0.2966 -1.1559
19440TIP3   OH279810   0.231   4.626   4.184 -0.0714  0.1829  0.5175
19440TIP3    H179811   0.238   4.577   4.102 -0.6435  3.4574 -1.6608
19440TIP3    H279812   0.138   4.646   4.193  0.2633  1.7915  0.7097
19441TIP3   OH279813   0.602   5.265   1.991 -0.1130  0.8876 -0.3124
19441TIP3    H179814   0.518   5.299   2.022 -0.7369 -0.4365 -0.4475
19441TIP3    H279815   0.585   5.235   1.902  0.5190  0.6655 -0.3683
19442TIP3   OH279816   2.327   0.814   3.585 -0.1641 -0.2170 -0.2695
19442TIP3    H179817   2.329   0.887   3.647  0.1811 -0.7728  0.3810
19442TIP3    H279818   2.254   0.759   3.613  0.1826 -0.6294 -0.1678
19443TIP3   OH279819   3.108   1.422   3.429  0.2427 -0.4178 -0.2280
19443TIP3    H179820   3.061   1.498   3.463 -0.5372 -1.1089  0.2892
19443TIP3    H279821   3.129   1.445   3.339 -1.3622 -0.1760 -0.5683
19444TIP3   OH279822   2.087   6.067   3.792 -0.1539  0.1168 -0.4190
19444TIP3    H179823   2.062   6.082   3.883  1.2763 -1.2802  0.2497
19444TIP3    H279824   2.178   6.095   3.788  0.6772 -2.3935 -0.6596
19445TIP3   OH279825   1.001   3.800  16.579  0.6321  0.0219  0.2972
19445TIP3    H179826   0.929   3.838  16.527  1.3268 -0.4321 -1.0509
19445TIP3    H279827   0.959   3.734  16.633 -0.0430  0.0494 -0.1724
19446TIP3   OH279828   6.167   4.592  15.213 -0.1512 -0.3192 -0.5689
19446TIP3    H179829   6.227   4.614  15.284 -0.2895 -1.0415 -0.2146
19446TIP3    H279830   6.220   4.597  15.134  0.0380  0.3628 -0.4043
19447TIP3   OH279831   5.662   0.153   0.803  0.2583  0.6876 -0.3514
19447TIP3    H179832   5.664   0.057   0.803 -1.1924  0.6395 -0.2324
19447TIP3    H279833   5.666   0.177   0.710  2.7932  0.6283 -0.3362
19448TIP3   OH279834   5.074   0.780  12.917  0.4851  0.1438 -0.5120
19448TIP3    H179835   5.033   0.697  12.892  1.0679 -0.1690 -0.4423
19448TIP3    H279836   5.041   0.798  13.005  1.4046 -0.7159  0.0297
19449TIP3   OH279837   4.908   6.490  16.624 -0.7502  0.2587 -0.6255
19449TIP3    H179838   4.879   6.573  16.585  0.1185  2.3740  2.8199
19449TIP3    H279839   5.000   6.482  16.599 -0.8801  0.2423 -1.0998
19450TIP3   OH279840   6.736   2.612   4.934 -0.4585  0.3496  0.0981
19450TIP3    H179841   6.697   2.548   4.994  0.7481 -0.9974 -0.4744
19450TIP3    H279842   6.826   2.622   4.965  0.2930 -0.6233 -1.6039
19451TIP3   OH279843   2.687   3.159   0.095 -0.1134 -0.5516 -0.2056
19451TIP3    H179844   2.649   3.239   0.131 -0.2461  0.0650 -1.6694
19451TIP3    H279845   2.777   3.158   0.129  0.5063  1.2353 -1.6712
19452TIP3   OH279846   4.235   5.309  14.077 -0.7918 -0.5903  0.1479
19452TIP3    H179847   4.242   5.366  14.000 -2.2718  0.4048  0.6857
19452TIP3    H279848   4.224   5.370  14.150  0.2409 -1.5257  1.1087
19453TIP3   OH279849   2.060   5.471   3.943 -0.7217 -0.6677 -0.1232
19453TIP3    H179850   1.971   5.464   3.978 -1.3944  0.3016 -1.5087
19453TIP3    H279851   2.089   5.559   3.967 -0.7833 -0.3850 -1.0466
19454TIP3   OH279852   1.650   2.631   5.475  0.4035  0.5510 -0.6133
19454TIP3    H179853   1.563   2.593   5.468 -0.3854  2.4154 -1.5840
19454TIP3    H279854   1.694   2.604   5.394  1.0767 -1.0839  0.2451
19455TIP3   OH279855   2.615   1.580  16.272 -0.1391  0.3951  0.0045
19455TIP3    H179856   2.648   1.622  16.352 -1.0246  1.0341  0.0371
19455TIP3    H279857   2.573   1.650  16.223 -2.6352 -0.5882  0.5717
19456TIP3   OH279858   0.674   1.337  10.439  0.4255 -0.2364  0.0103
19456TIP3    H179859   0.596   1.356  10.490  0.4523 -1.7861  0.7010
19456TIP3    H279860   0.707   1.422  10.411 -1.2953  0.4621  0.0008
19457TIP3   OH279861   6.283   0.221   2.570 -0.2084 -0.4638  0.7151
19457TIP3    H179862   6.219   0.222   2.499 -0.6771  0.5799  1.1229
19457TIP3    H279863   6.313   0.312   2.577  0.3450 -0.6837  1.3952
19458TIP3   OH279864   3.480   0.207   1.578 -0.0384  0.2470 -0.5011
19458TIP3    H179865   3.457   0.283   1.631 -0.8670  0.3924 -1.0507
19458TIP3    H279866   3.437   0.222   1.494  0.4406 -0.4532 -0.8829
19459TIP3   OH279867   4.974   1.007   6.672 -0.2678 -0.2402 -0.4953
19459TIP3    H179868   5.003   0.955   6.597 -0.4812  0.2200 -0.9012
19459TIP3    H279869   4.881   1.022   6.657  0.2989  2.6288 -1.8781
19460TIP3   OH279870   6.058   3.872   4.131 -0.6567 -0.6017 -0.4916
19460TIP3    H179871   6.111   3.892   4.054 -0.3451  2.3087  0.3317
19460TIP3    H279872   6.037   3.958   4.168 -1.3043 -1.8506  2.3137
19461TIP3   OH279873   0.075   1.605   0.538 -0.1372  0.7210 -0.4203
19461TIP3    H179874   0.150   1.566   0.582 -0.4398  1.4369  0.7546
19461TIP3    H279875   0.005   1.541   0.547  0.3666 -0.0805 -1.7716
19462TIP3   OH279876   4.012   3.452  14.008  0.5105  1.0252  0.7770
19462TIP3    H179877   4.061   3.423  13.932  1.0342  0.9938  1.1187
19462TIP3    H279878   4.037   3.543  14.020 -1.4518  1.8009 -0.5405
19463TIP3   OH279879   2.547   5.694   0.150 -0.3252 -0.4855  0.2123
19463TIP3    H179880   2.501   5.678   0.232 -1.2015 -0.3164 -0.2364
19463TIP3    H279881   2.490   5.754   0.102 -0.3892 -1.4881 -1.0019
19464TIP3   OH279882   5.576   3.675  14.054  0.3787  0.1245  0.2154
19464TIP3    H179883   5.603   3.644  14.140  1.4327  0.4618  0.0116
19464TIP3    H279884   5.486   3.642  14.044  0.2686  0.0215  1.4035
19465TIP3   OH279885   2.606   2.830  15.108  0.7003  0.2043  0.1431
19465TIP3    H179886   2.598   2.753  15.052  1.5487 -2.4018  3.3230
19465TIP3    H279887   2.540   2.891  15.074 -1.5280 -2.7394 -1.2564
19466TIP3   OH279888   0.350   0.117  16.986 -0.3357  0.1207 -0.4703
19466TIP3    H179889   0.320   0.174  17.057 -0.5999  0.1392 -0.5941
19466TIP3    H279890   0.292   0.041  16.991  2.1370 -1.8389  1.9410
19467TIP3   OH279891   6.012   0.624  15.474  0.1988 -0.0096 -0.3573
19467TIP3    H179892   5.941   0.560  15.479 -0.6126  0.9797  1.7896
19467TIP3    H279893   5.971   0.705  15.446  0.7197  0.2450 -0.3989
19468TIP3   OH279894   4.054   2.154  16.838 -0.1432  0.1241  0.7822
19468TIP3    H179895   4.028   2.098  16.912 -0.4551 -2.8152 -1.3493
19468TIP3    H279896   4.148   2.167  16.850  0.1573 -1.7883  0.8474
19469TIP3   OH279897   6.683   5.097  15.090  0.0601  0.0790 -0.1947
19469TIP3    H179898   6.606   5.084  15.035 -1.8043  1.0567  2.0092
19469TIP3    H279899   6.672   5.035  15.162 -0.6448  2.5622  2.0252
19470TIP3   OH279900   1.440   5.763   5.114 -0.1522 -0.0265  0.3348
19470TIP3    H179901   1.349   5.776   5.140  0.3182  0.2386  1.9368
19470TIP3    H279902   1.491   5.795   5.188  1.2906  0.9749 -1.0291
19471TIP3   OH279903   4.726   0.285  11.618 -0.6966 -0.2461  0.3890
19471TIP3    H179904   4.668   0.341  11.566 -0.0933 -0.1880 -0.2381
19471TIP3    H279905   4.670   0.250  11.687 -1.4392 -0.0652 -0.1103
19472TIP3   OH279906   3.108   6.149  15.827  0.2161 -0.1746  0.5869
19472TIP3    H179907   3.045   6.094  15.874 -0.1774 -0.3302 -0.1009
19472TIP3    H279908   3.138   6.212  15.893  0.1716 -0.7892  1.2098
19473TIP3   OH279909   3.913   1.497   3.502 -0.5081  0.5868  0.0106
19473TIP3    H179910   3.848   1.560   3.533 -1.0716  0.3505 -0.6717
19473TIP3    H279911   3.935   1.526   3.413 -1.7351 -0.8767 -0.8277
19474TIP3   OH279912   6.301   2.642  13.812 -0.0681  0.2481  0.1720
19474TIP3    H179913   6.355   2.720  13.826 -0.2729  0.0800  2.3189
19474TIP3    H279914   6.215   2.676  13.787  0.2869  0.6157 -0.6015
19475TIP3   OH279915   6.610   3.332  11.789  0.2357  0.2029  0.2468
19475TIP3    H179916   6.699   3.367  11.786  0.0538  0.6103 -1.5936
19475TIP3    H279917   6.599   3.302  11.879  1.6852  1.5341  0.9057
19476TIP3   OH279918   5.270   6.644  13.875  0.6118  0.1986 -0.0457
19476TIP3    H179919   5.339   6.594  13.829  0.7565 -0.1441  0.5353
19476TIP3    H279920   5.277   6.615  13.966 -0.6433 -0.2207 -0.0727
19477TIP3   OH279921   0.528   4.043  11.146 -0.3933 -0.1351 -0.1406
19477TIP3    H179922   0.623   4.029  11.141 -0.6593 -2.0004 -0.4750
19477TIP3    H279923   0.499   4.044  11.055 -0.7155  0.3846 -0.0371
19478TIP3   OH279924   0.850   3.245   3.296  0.5588  0.0971  0.2141
19478TIP3    H179925   0.870   3.274   3.385  2.3058 -1.1424  0.2571
19478TIP3    H279926   0.913   3.291   3.241 -0.1784  0.4606 -0.3490
19479TIP3   OH279927   2.534   3.629  15.725  0.1455  0.6356 -0.8194
19479TIP3    H179928   2.494   3.690  15.787  0.8543  1.5581 -1.2331
19479TIP3    H279929   2.628   3.650  15.728  0.3340 -0.0857 -1.3483
19480TIP3   OH279930   1.823   0.975   2.507  0.0709  0.2300  0.1172
19480TIP3    H179931   1.796   0.885   2.489  1.6389 -0.3159  0.3691
19480TIP3    H279932   1.785   1.026   2.436 -0.1406 -0.7514 -0.4935
19481TIP3   OH279933   4.889   0.114  14.665 -0.1583  0.3746  0.4974
19481TIP3    H179934   4.798   0.138  14.687  0.1885  0.4912  1.9277
19481TIP3    H279935   4.925   0.191  14.622 -0.5201  0.6005  0.5948
19482TIP3   OH279936   2.556   0.353   3.087 -0.6632 -0.0474  0.4808
19482TIP3    H179937   2.623   0.301   3.130 -2.5134 -2.3925  0.7406
19482TIP3    H279938   2.578   0.350   2.994 -0.1599 -0.4063  0.6126
19483TIP3   OH279939   2.122   3.194   4.873 -0.0216 -0.0102  1.1956
19483TIP3    H179940   2.041   3.157   4.840  0.6483 -0.5188  0.0379
19483TIP3    H279941   2.184   3.186   4.800  1.3932 -0.7006  2.4029
19484TIP3   OH279942   1.925   6.402  14.762  0.0777 -0.1561  0.3078
19484TIP3    H179943   1.959   6.432  14.846 -1.5870  1.1123  0.5733
19484TIP3    H279944   1.967   6.460  14.698 -1.8732  1.8053  0.6817
19485TIP3   OH279945   5.976   3.143  15.484  0.0634 -0.4321  0.0317
19485TIP3    H179946   6.052   3.109  15.436 -1.1300  1.4985 -3.5485
19485TIP3    H279947   6.013   3.175  15.567  3.1065 -0.1028 -1.3170
19486TIP3   OH279948   6.337   0.858   4.920  0.7945 -0.1691 -0.2413
19486TIP3    H179949   6.267   0.841   4.857  2.3492 -2.2621 -1.5303
19486TIP3    H279950   6.392   0.923   4.878  0.9410 -0.3503 -0.3328
19487TIP3   OH279951   4.470   4.192  13.077  0.3561 -0.5411  0.0989
19487TIP3    H179952   4.498   4.114  13.127  0.2467 -0.3358  0.4813
19487TIP3    H279953   4.396   4.226  13.126  1.2151  0.5696  0.6806
19488TIP3   OH279954   5.124   0.592  11.779  0.0305  0.4764 -0.3410
19488TIP3    H179955   5.029   0.580  11.775 -0.0011 -0.3880  1.9363
19488TIP3    H279956   5.136   0.659  11.847  1.0032  2.3122 -2.1938
19489TIP3   OH279957   1.571   4.103   2.648 -0.2008 -0.1594  0.3868
19489TIP3    H179958   1.508   4.170   2.677 -2.4078 -1.6163 -0.8128
19489TIP3    H279959   1.574   4.040   2.720 -1.7814 -1.1536 -0.3666
19490TIP3   OH279960   0.591   0.392  11.605  0.4737 -0.0832  0.9171
19490TIP3    H179961   0.599   0.328  11.676  1.6150  0.7604  1.5706
19490TIP3    H279962   0.629   0.348  11.529  3.1562  0.5011  1.8339
19491TIP3   OH279963   2.497   5.470   4.811 -0.3551 -0.8475 -0.0618
19491TIP3    H179964   2.519   5.527   4.737 -1.3701  0.0558  0.3072
19491TIP3    H279965   2.573   5.474   4.869 -0.1252 -0.4593 -0.3896
19492TIP3   OH279966   5.301   5.109  14.850  0.1884  0.2407 -0.0056
19492TIP3    H179967   5.269   5.032  14.897 -0.7209 -0.9409 -2.4171
19492TIP3    H279968   5.223   5.147  14.810  0.7692  1.9150  0.3492
19493TIP3   OH279969   1.036   5.127  15.944  0.1824 -0.6037 -0.2214
19493TIP3    H179970   1.018   5.187  15.871 -0.3845 -0.7531 -0.2039
19493TIP3    H279971   0.974   5.153  16.012  0.0781 -1.0832 -0.1349
19494TIP3   OH279972   2.350   1.914   3.684  0.1215 -0.5514  0.0504
19494TIP3    H179973   2.321   2.001   3.714 -1.1776  0.1574 -2.9084
19494TIP3    H279974   2.279   1.856   3.709 -0.3610 -0.2165 -0.5338
19495TIP3   OH279975   3.238   0.221  13.772 -0.4105 -0.3171 -0.1998
19495TIP3    H179976   3.320   0.260  13.742  0.1107 -0.5007  0.9384
19495TIP3    H279977   3.265   0.157  13.838 -1.5504  0.5779  1.1859
19496TIP3   OH279978   2.020   4.503   1.682  0.1786 -0.3120 -0.3330
19496TIP3    H179979   1.971   4.584   1.693  1.4112  0.6508 -1.4826
19496TIP3    H279980   1.957   4.433   1.700 -0.5326  0.8814  2.2090
19497TIP3   OH279981   1.120   5.718  15.866 -0.2421  0.4957 -0.4669
19497TIP3    H179982   1.103   5.657  15.794  1.9410 -0.5660 -0.1776
19497TIP3    H279983   1.205   5.757  15.845 -0.1859  1.1653  0.8747
19498TIP3   OH279984   3.830   5.458  12.155 -0.2344 -0.4009 -0.1307
19498TIP3    H179985   3.866   5.386  12.103  1.0561  1.8699 -2.6290
19498TIP3    H279986   3.901   5.483  12.213  0.3920  0.6318 -1.2926
19499TIP3   OH279987   3.517   3.959  12.866  0.5117  0.6081  0.1965
19499TIP3    H179988   3.460   4.021  12.821  0.5916  0.0048 -0.7624
19499TIP3    H279989   3.457   3.893  12.902  0.5003  0.7385  0.4217
19500TIP3   OH279990   5.817   5.663   1.406  0.5083 -0.1144 -0.0998
19500TIP3    H179991   5.824   5.581   1.358  3.0093  0.2121 -0.4499
19500TIP3    H279992   5.820   5.638   1.498  1.9042 -0.4123 -0.2106
19501TIP3   OH279993   5.253   5.033  16.924 -0.5303 -0.5559  0.5742
19501TIP3    H179994   5.218   5.090  16.992 -0.2265  1.6122 -0.9833
19501TIP3    H279995   5.176   5.000  16.878 -0.6835 -0.4310  0.7425
19502TIP3   OH279996   5.896   2.040  15.079 -0.4495 -0.3606 -0.4425
19502TIP3    H179997   5.912   2.127  15.118 -0.0304 -0.1131 -1.1506
19502TIP3    H279998   5.930   2.048  14.990 -1.5002 -0.8896 -0.8949
19503TIP3   OH279999   2.276   3.874  13.383 -0.0664 -0.7432  0.4811
19503TIP3    H180000   2.371   3.891  13.386 -0.3883  1.2031  0.7818
19503TIP3    H280001   2.266   3.815  13.308  1.3862 -1.0886  0.5100
19504TIP3   OH280002   5.803   6.071   4.456  0.3734 -0.4673  0.3939
19504TIP3    H180003   5.865   6.017   4.504  2.7334  0.7188 -1.1596
19504TIP3    H280004   5.797   6.151   4.509  1.8009  0.2308 -0.4520
19505TIP3   OH280005   6.460   5.275   3.463  0.1660 -0.5469  0.2948
19505TIP3    H180006   6.457   5.192   3.415 -0.4982  1.0802 -2.7178
19505TIP3    H280007   6.544   5.314   3.438 -0.4270  0.5922  0.0311
19506TIP3   OH280008   6.683   1.703  12.747  0.3338  0.6564  0.2039
19506TIP3    H180009   6.736   1.646  12.691 -0.9903 -0.2559 -0.1684
19506TIP3    H280010   6.634   1.642  12.803 -0.0494  1.4825  0.7828
19507TIP3   OH280011   4.356   2.368  14.816  0.4447  0.2385  0.5218
19507TIP3    H180012   4.282   2.386  14.874  1.5965  0.5714  1.9630
19507TIP3    H280013   4.399   2.292  14.855  0.3297 -0.5584 -0.8524
19508TIP3   OH280014   5.356   2.076  13.936  0.1264  0.5621  0.3445
19508TIP3    H180015   5.326   1.985  13.928  0.5178  0.3799  0.8882
19508TIP3    H280016   5.278   2.128  13.917  0.0978  0.1324 -0.7820
19509TIP3   OH280017   1.696   3.490  14.456 -0.1349  0.1001 -0.0731
19509TIP3    H180018   1.631   3.421  14.471 -0.3482  0.5575  1.2192
19509TIP3    H280019   1.732   3.470  14.370 -3.0540  0.6815 -1.5612
19510TIP3   OH280020   1.742   2.889   1.265  0.0772  0.5689 -0.7861
19510TIP3    H180021   1.775   2.961   1.211  0.6449  0.2332 -0.9057
19510TIP3    H280022   1.739   2.814   1.205  1.9235 -0.1284 -0.1011
19511TIP3   OH280023   6.753   0.203   0.683  0.1058 -0.3220 -1.1609
19511TIP3    H180024   6.832   0.200   0.737  0.4471  0.8654 -1.5490
19511TIP3    H280025   6.691   0.256   0.733 -0.0547 -0.3416 -1.3364
19512TIP3   OH280026   5.924   2.871   4.130  0.2284  0.3661 -0.1807
19512TIP3    H180027   5.958   2.787   4.160 -0.8912  0.3736  1.2030
19512TIP3    H280028   5.916   2.923   4.210  0.8022  1.7723 -0.9992
19513TIP3   OH280029   1.171   5.810   3.594  0.5061 -0.0967 -0.0868
19513TIP3    H180030   1.128   5.869   3.533  0.8034 -0.1042 -0.3045
19513TIP3    H280031   1.254   5.788   3.552  0.7836  0.0238  0.3900
19514TIP3   OH280032   0.879   1.759  11.587 -0.0492 -0.2394  0.2674
19514TIP3    H180033   0.899   1.812  11.509  1.9476 -1.2539  0.0221
19514TIP3    H280034   0.847   1.676  11.552 -2.1062  0.3357  0.6362
19515TIP3   OH280035   5.473   3.750   3.966 -0.4522 -0.2279  0.4153
19515TIP3    H180036   5.425   3.739   3.884  1.9931  0.1046 -1.1635
19515TIP3    H280037   5.510   3.838   3.961 -0.1674 -0.2350  1.8471
19516TIP3   OH280038   6.296   2.358  14.279 -0.6144  0.1399  0.0731
19516TIP3    H180039   6.257   2.444  14.264 -0.3980  0.2477  0.1234
19516TIP3    H280040   6.261   2.302  14.210 -3.3131 -0.5719  1.8538
19517TIP3   OH280041   2.986   5.709  11.565  0.0263 -0.2527 -0.1432
19517TIP3    H180042   3.062   5.764  11.584 -1.8104  2.2207  0.6461
19517TIP3    H280043   2.967   5.666  11.649 -0.6717  0.8222  0.2699
19518TIP3   OH280044   0.573   1.541  11.588 -0.1765  0.0913  0.2488
19518TIP3    H180045   0.657   1.526  11.545  0.7943  1.1273  1.6615
19518TIP3    H280046   0.531   1.455  11.592  1.5788 -0.7776  0.9903
19519TIP3   OH280047   1.970   2.439  11.431  0.5167 -0.1738  0.5507
19519TIP3    H180048   1.948   2.419  11.340  1.2807 -1.5880  0.6397
19519TIP3    H280049   1.963   2.534  11.437  0.0988 -0.0817 -0.8884
19520TIP3   OH280050   4.257   3.340   4.382 -0.0236 -0.4213 -0.2140
19520TIP3    H180051   4.219   3.266   4.430  0.1607  0.1007  0.7704
19520TIP3    H280052   4.296   3.300   4.304  0.1559 -1.3845  0.3387
19521TIP3   OH280053   6.228   2.573  13.457 -0.1507  0.2358 -0.0510
19521TIP3    H180054   6.152   2.564  13.399 -0.0280 -1.5513  0.0129
19521TIP3    H280055   6.222   2.663  13.491 -1.9736  0.2793 -0.3969
19522TIP3   OH280056   6.048   6.761   1.756 -0.4936  0.0601 -0.2012
19522TIP3    H180057   5.964   6.806   1.751 -0.2313  0.9457  2.0180
19522TIP3    H280058   6.028   6.670   1.736 -1.6262  0.5680 -1.5496
19523TIP3   OH280059   3.903   0.615   3.890  0.0769  0.2945 -0.6759
19523TIP3    H180060   3.878   0.705   3.910 -1.8628 -0.7767  2.4498
19523TIP3    H280061   3.921   0.575   3.976  3.3178 -1.7309 -2.0591
19524TIP3   OH280062   6.327   4.469  16.726 -0.0287 -0.1840  0.4917
19524TIP3    H180063   6.259   4.417  16.684 -2.1529  2.2701  0.7291
19524TIP3    H280064   6.347   4.539  16.664  0.7810  0.3377  1.3118
19525TIP3   OH280065   5.979   0.095  15.245  0.1755 -0.5374  0.5833
19525TIP3    H180066   6.049   0.148  15.284 -1.2305  0.0111  2.4845
19525TIP3    H280067   6.009   0.079  15.156  1.5894  1.7944  0.5459
19526TIP3   OH280068   3.518   5.462   5.291 -0.1270 -0.5862  0.0452
19526TIP3    H180069   3.424   5.443   5.297 -0.1327 -0.6291 -0.1820
19526TIP3    H280070   3.560   5.390   5.338 -0.2105 -0.5288  0.2100
19527TIP3   OH280071   6.183   6.686  14.468  0.3556  0.2561 -0.7669
19527TIP3    H180072   6.107   6.713  14.521 -0.5698  0.1342 -1.9861
19527TIP3    H280073   6.256   6.737  14.503  0.5980 -2.2547  2.8885
19528TIP3   OH280074   1.671   1.684   4.721  0.6036  0.3805 -0.0452
19528TIP3    H180075   1.624   1.602   4.739  2.5891 -1.0907 -1.2178
19528TIP3    H280076   1.652   1.703   4.629  0.2451  1.2205  0.1857
19529TIP3   OH280077   3.598   2.082   3.568  0.9135  0.1532 -0.4864
19529TIP3    H180078   3.543   2.046   3.497  1.4337 -0.8162 -0.4076
19529TIP3    H280079   3.673   2.023   3.572  1.1956  0.5704  0.4628
19530TIP3   OH280080   4.242   0.989   2.065 -0.5039  0.1011 -0.0635
19530TIP3    H180081   4.276   0.928   2.132 -0.4121  0.2452  0.0215
19530TIP3    H280082   4.284   1.072   2.086 -0.3548  0.1087 -0.3968
19531TIP3   OH280083   3.805   3.889   0.224  0.2348  0.7858  0.3756
19531TIP3    H180084   3.892   3.929   0.221  0.6415 -0.1338 -0.8282
19531TIP3    H280085   3.786   3.865   0.133 -0.3015 -1.0522  0.9344
19532TIP3   OH280086   5.372   0.289  12.563 -0.3397 -0.0445  0.1625
19532TIP3    H180087   5.466   0.269  12.567 -0.5035 -0.9545 -0.3009
19532TIP3    H280088   5.357   0.315  12.472 -0.5024  0.3046  0.2873
19533TIP3   OH280089   3.400   1.604   1.968  0.1413 -0.1914  0.0670
19533TIP3    H180090   3.474   1.559   2.008 -0.6094 -0.6672  0.9526
19533TIP3    H280091   3.434   1.635   1.883  1.7868  0.8926  1.0579
19534TIP3   OH280092   4.249   3.779  11.064 -0.2984  0.5407 -0.0677
19534TIP3    H180093   4.264   3.871  11.086 -1.0638  1.1217 -1.7947
19534TIP3    H280094   4.336   3.745  11.044 -0.0500  0.9930  0.2238
19535TIP3   OH280095   4.596   0.068   5.016 -0.1369 -0.6813  0.5517
19535TIP3    H180096   4.646  -0.009   5.043 -0.4655 -0.4386  1.8977
19535TIP3    H280097   4.651   0.142   5.042  0.9553 -0.3895 -2.1961
19536TIP3   OH280098   1.846   4.087   0.061 -0.1269  0.3006  0.4734
19536TIP3    H180099   1.894   4.168   0.080  0.5123 -0.2144  1.0998
19536TIP3    H280100   1.884   4.022   0.119 -1.1089 -0.3014  0.4665
19537TIP3   OH280101   2.640   5.404  12.732  0.7961  0.0597 -0.2256
19537TIP3    H180102   2.728   5.371  12.717  0.0444 -2.4746  0.4903
19537TIP3    H280103   2.583   5.328  12.720 -1.1115  1.1545  1.2432
19538TIP3   OH280104   3.462   4.236   0.634 -0.0884  0.2051  0.1342
19538TIP3    H180105   3.372   4.241   0.666 -0.3366  0.2969 -0.5679
19538TIP3    H280106   3.507   4.307   0.681  0.2979 -1.5033  2.5523
19539TIP3   OH280107   4.487   0.350  11.936 -0.3838  0.1285 -0.2286
19539TIP3    H180108   4.557   0.334  11.999 -0.9418 -1.0946  0.1010
19539TIP3    H280109   4.437   0.422  11.974 -0.8929 -0.7884  0.8934
19540TIP3   OH280110   5.482   3.026  14.496  0.3705 -0.3043 -0.3572
19540TIP3    H180111   5.406   2.970  14.475  0.7396 -0.6620 -0.7667
19540TIP3    H280112   5.551   2.994  14.438  1.4090 -1.2404  1.3098
19541TIP3   OH280113   5.859   3.261  14.306  0.6299  0.1800  0.1018
19541TIP3    H180114   5.910   3.212  14.371 -0.3540  0.6227  1.2556
19541TIP3    H280115   5.778   3.284  14.352  0.0606  0.8407 -1.1790
19542TIP3   OH280116   0.421   5.869   4.147 -0.3019  0.0175  0.4332
19542TIP3    H180117   0.456   5.914   4.224  2.6027  0.4282 -0.9824
19542TIP3    H280118   0.390   5.939   4.090 -1.9885 -0.2585  0.9518
19543TIP3   OH280119   2.927   4.339   4.277 -0.6572 -0.3839  0.1911
19543TIP3    H180120   2.911   4.310   4.187 -1.0650  0.9324 -0.1804
19543TIP3    H280121   2.900   4.431   4.278 -0.6105 -0.3634  1.6538
19544TIP3   OH280122   6.185   4.393   1.613 -0.4863 -0.0767 -0.0382
19544TIP3    H180123   6.263   4.441   1.642 -0.6840  0.4304 -0.3162
19544TIP3    H280124   6.204   4.368   1.523  0.2110 -1.8294  0.5574
19545TIP3   OH280125   1.638   0.041  13.999  0.2555  0.2306 -0.1809
19545TIP3    H180126   1.687  -0.040  13.985  0.2728 -0.0234  1.1965
19545TIP3    H280127   1.546   0.014  13.993  0.2577  0.4982 -1.6691
19546TIP3   OH280128   1.195   6.085  13.191 -0.1359 -0.9143  0.1090
19546TIP3    H180129   1.195   5.995  13.158  1.5414 -0.3807 -1.4793
19546TIP3    H280130   1.287   6.105  13.207 -0.4292  0.6606 -0.0106
19547TIP3   OH280131   6.560   1.603   5.621 -0.2375 -0.1516 -0.2456
19547TIP3    H180132   6.468   1.628   5.629  0.3833  2.0048  0.9275
19547TIP3    H280133   6.565   1.517   5.663 -1.2237  1.0447  2.5913
19548TIP3   OH280134   3.779   3.186   1.315 -0.5697 -0.0584  0.5634
19548TIP3    H180135   3.689   3.156   1.303 -0.0569 -1.0668 -1.0220
19548TIP3    H280136   3.833   3.113   1.285  0.7764  0.8547  0.6814
19549TIP3   OH280137   3.336   4.636   5.329  0.1749  0.1192  0.0825
19549TIP3    H180138   3.303   4.686   5.254  1.1632 -0.3564 -0.6920
19549TIP3    H280139   3.370   4.702   5.389 -1.4469  0.5675  0.5523
19550TIP3   OH280140   5.066   2.390  16.862  0.3031 -0.1713  0.6002
19550TIP3    H180141   5.101   2.332  16.929  0.7741 -1.3365 -0.5951
19550TIP3    H280142   5.097   2.352  16.779 -1.0218  0.6759 -0.3261
19551TIP3   OH280143   0.256   2.420   6.027 -0.3782 -0.1025 -0.2723
19551TIP3    H180144   0.260   2.325   6.041 -1.7820 -0.2384 -0.6169
19551TIP3    H280145   0.338   2.453   6.062  0.8604 -1.6334 -1.5774
19552TIP3   OH280146   3.522   4.387   3.959 -0.0353 -0.6888 -0.0671
19552TIP3    H180147   3.599   4.436   3.985 -1.1408  2.4258 -2.0973
19552TIP3    H280148   3.556   4.310   3.913  1.7893 -0.2492  0.4694
19553TIP3   OH280149   4.875   5.456  11.124 -0.3343  0.2310  0.0367
19553TIP3    H180150   4.790   5.412  11.130 -0.4075  0.5346  1.4991
19553TIP3    H280151   4.899   5.448  11.031 -2.1261  0.4584 -0.4962
19554TIP3   OH280152   3.419   0.770  12.623 -0.5536 -1.0527 -0.6060
19554TIP3    H180153   3.417   0.764  12.718 -1.8930 -1.0353 -0.6118
19554TIP3    H280154   3.377   0.854  12.603 -0.6462 -1.2376 -1.2204
19555TIP3   OH280155   4.680   5.866  16.772  0.6873 -0.3204 -0.0281
19555TIP3    H180156   4.628   5.817  16.708 -0.1718 -1.8207  1.7272
19555TIP3    H280157   4.747   5.804  16.800 -0.0583 -0.3464  1.8152
19556TIP3   OH280158   4.940   0.919  12.728 -0.0521  0.1080 -0.0654
19556TIP3    H180159   4.955   0.888  12.817 -1.0264 -0.1789  0.0075
19556TIP3    H280160   4.907   0.843  12.680 -2.4636  0.9438  0.1161
19557TIP3   OH280161   5.184   0.561  15.166  0.0476  0.0438 -0.6442
19557TIP3    H180162   5.125   0.590  15.236  0.2049 -1.0157 -0.0424
19557TIP3    H280163   5.233   0.639  15.141  1.0907  0.1548  1.5235
19558TIP3   OH280164   4.285   0.059   2.920  0.1815 -0.3961  0.3314
19558TIP3    H180165   4.347   0.124   2.887  1.6042 -0.8127  2.0274
19558TIP3    H280166   4.319  -0.025   2.888 -0.7116 -0.4701 -0.4635
19559TIP3   OH280167   0.171   2.636   1.837 -0.1370  0.8357 -0.0717
19559TIP3    H180168   0.249   2.689   1.821  0.3790  0.4492  1.0286
19559TIP3    H280169   0.098   2.696   1.826  0.4182  1.6733  0.7204
19560TIP3   OH280170   2.122   0.403   1.225 -0.1486 -0.1740  0.1690
19560TIP3    H180171   2.144   0.424   1.134 -0.2090  1.6418  0.5442
19560TIP3    H280172   2.053   0.337   1.219  0.3884 -0.6469 -1.0779
19561TIP3   OH280173   4.581   5.683  16.602  0.5981  0.5742  0.2259
19561TIP3    H180174   4.669   5.667  16.568  0.1973 -2.2220  0.2950
19561TIP3    H280175   4.530   5.709  16.526  1.0796  0.4943 -0.1302
19562TIP3   OH280176   2.281   4.103  16.150  0.3900 -0.7460  0.6025
19562TIP3    H180177   2.367   4.125  16.116 -0.0049 -0.8127 -0.4748
19562TIP3    H280178   2.276   4.008  16.147 -0.2916 -0.6993 -0.8744
19563TIP3   OH280179   3.441   1.611   6.082 -0.2705 -0.0916  0.0562
19563TIP3    H180180   3.473   1.662   6.007  1.8699 -0.1030  0.9049
19563TIP3    H280181   3.390   1.674   6.133  0.7338  0.7170  0.0924
19564TIP3   OH280182   6.071   0.999  13.824  0.1178 -0.0672  0.0850
19564TIP3    H180183   5.976   1.012  13.832 -0.1852 -1.4040 -0.8477
19564TIP3    H280184   6.087   0.917  13.871  1.2626  1.4532  2.4648
19565TIP3   OH280185   0.605   6.693   3.550  0.1815 -0.1740 -0.2145
19565TIP3    H180186   0.630   6.698   3.642 -0.1289  0.1056 -0.1460
19565TIP3    H280187   0.686   6.669   3.504 -0.1531 -2.8806  0.3984
19566TIP3   OH280188   5.364   5.204   3.750 -0.3768  0.2174 -0.2176
19566TIP3    H180189   5.437   5.143   3.745  1.3265  2.1225  0.1546
19566TIP3    H280190   5.367   5.238   3.839  0.5195  2.8782 -1.1767
19567TIP3   OH280191   1.573   0.682  17.246 -0.2393 -0.3824  0.0037
19567TIP3    H180192   1.655   0.716  17.209 -1.1076  0.5166 -1.1926
19567TIP3    H280193   1.518   0.759  17.256 -0.9892 -0.9936  0.6602
19568TIP3   OH280194   0.401   4.769   1.445 -0.6555 -0.2998 -0.0177
19568TIP3    H180195   0.328   4.713   1.471 -0.1044 -0.5098  1.1412
19568TIP3    H280196   0.390   4.848   1.498  0.7405 -0.9183  1.2850
19569TIP3   OH280197   0.976   6.012   4.115 -0.0986 -0.5888  0.1542
19569TIP3    H180198   0.889   6.034   4.148 -0.9824 -1.0170 -1.7436
19569TIP3    H280199   1.011   5.951   4.179  0.3581  2.2650  2.8706
19570TIP3   OH280200   3.956   3.981   4.639 -0.3726  0.0073 -0.3563
19570TIP3    H180201   3.871   4.014   4.667  0.6547  2.4929  0.1466
19570TIP3    H280202   4.006   3.971   4.720 -0.2167 -1.6129 -0.6222
19571TIP3   OH280203   5.829   2.600   4.438 -0.0199 -0.6890  0.2920
19571TIP3    H180204   5.922   2.622   4.445  0.6174 -3.3517  1.1238
19571TIP3    H280205   5.826   2.526   4.378 -1.5608 -0.8727  0.5476
19572TIP3   OH280206   4.356   4.989  16.291  0.0281 -0.2510  0.3266
19572TIP3    H180207   4.341   4.989  16.386 -1.4512 -0.5835  0.1234
19572TIP3    H280208   4.363   5.082  16.268 -3.2966  0.1128  0.2962
19573TIP3   OH280209   4.884   6.334   3.429  0.3846 -0.0456 -0.6764
19573TIP3    H180210   4.827   6.288   3.491 -1.1584  1.5423 -0.8616
19573TIP3    H280211   4.964   6.351   3.478 -0.3094  0.0152  0.4637
19574TIP3   OH280212   6.387   2.980   6.390  0.2833 -0.1303 -0.0252
19574TIP3    H180213   6.312   3.039   6.396  1.2389  1.0336  1.2010
19574TIP3    H280214   6.352   2.900   6.352 -1.3505  0.7441 -0.4517
19575TIP3   OH280215   0.955   2.272  17.237  0.6028  0.1334 -0.0759
19575TIP3    H180216   0.869   2.233  17.251  0.4030  0.2686 -0.9356
19575TIP3    H280217   1.016   2.201  17.256  0.3285  0.1047  0.7837
19576TIP3   OH280218   6.268   3.005  12.780 -0.5868 -0.7510  0.0311
19576TIP3    H180219   6.176   2.986  12.801 -1.8440  3.9475 -0.2792
19576TIP3    H280220   6.270   3.005  12.684 -0.6433  0.4248  0.0191
19577TIP3   OH280221   0.923   1.529   4.045 -0.3714 -0.0995 -0.1279
19577TIP3    H180222   0.920   1.519   3.950 -2.4485 -1.7461  0.0394
19577TIP3    H280223   0.890   1.446   4.079 -2.1661  1.3390  1.9615
19578TIP3   OH280224   5.185   2.759  15.506 -0.5905  0.2022 -0.1319
19578TIP3    H180225   5.252   2.752  15.575 -0.7882 -0.0275  0.0409
19578TIP3    H280226   5.104   2.732  15.549 -0.7983  0.4907 -0.3376
19579TIP3   OH280227   2.454   5.228   3.019 -0.0973  0.2077  0.0768
19579TIP3    H180228   2.484   5.175   3.093 -1.1418 -0.4672  0.0469
19579TIP3    H280229   2.418   5.164   2.957 -0.0926  0.8415 -0.5981
19580TIP3   OH280230   4.012   2.773   6.072  0.0133 -0.0352  0.0342
19580TIP3    H180231   4.099   2.775   6.111 -0.0099  2.7677  0.1329
19580TIP3    H280232   4.028   2.765   5.978  0.2034 -2.1704  0.1817
19581TIP3   OH280233   3.757   3.555   2.579 -0.6276  0.1630 -0.4915
19581TIP3    H180234   3.720   3.469   2.601  0.8203 -0.4245 -0.2705
19581TIP3    H280235   3.686   3.600   2.533 -1.0925 -1.5113 -1.5026
19582TIP3   OH280236   4.500   4.127   3.732  0.4477  0.2669 -0.6217
19582TIP3    H180237   4.408   4.118   3.706  0.8041 -1.7679 -1.4267
19582TIP3    H280238   4.498   4.133   3.827 -0.6007  2.3872 -0.7182
19583TIP3   OH280239   6.405   1.303  13.521  0.2354  0.4027  0.0848
19583TIP3    H180240   6.495   1.331  13.507  0.5594 -0.9319 -0.6023
19583TIP3    H280241   6.371   1.364  13.587  1.0208  2.1383 -1.0384
19584TIP3   OH280242   6.253   5.153   4.519  0.5318  0.0173 -0.0558
19584TIP3    H180243   6.161   5.160   4.493  0.7791  1.8974 -0.5300
19584TIP3    H280244   6.290   5.239   4.500  2.2878 -0.5645  0.5715
19585TIP3   OH280245   4.408   2.575  16.673  0.4804 -0.1969  0.5662
19585TIP3    H180246   4.433   2.504  16.732  0.7729 -1.1884 -0.6930
19585TIP3    H280247   4.318   2.553  16.648  1.1579 -1.1628 -1.2086
19586TIP3   OH280248   5.513   2.913   1.634 -0.0803 -0.2028  0.3805
19586TIP3    H180249   5.601   2.885   1.607 -0.1268 -0.9700  1.0139
19586TIP3    H280250   5.508   2.892   1.727 -0.2922  1.4837  0.7962
19587TIP3   OH280251   1.975   3.123  12.601 -0.0049  0.1034  0.1391
19587TIP3    H180252   1.976   3.043  12.548 -1.5765  0.0788  0.1067
19587TIP3    H280253   1.939   3.095  12.685 -1.6506  0.9862 -0.2475
19588TIP3   OH280254   1.362   1.419   1.832  0.3000  0.1415 -0.6793
19588TIP3    H180255   1.326   1.498   1.791  0.3134  0.3474 -0.3004
19588TIP3    H280256   1.338   1.427   1.924 -1.6128 -1.3647 -0.9890
19589TIP3   OH280257   3.639   0.344   6.640  0.6280  0.0751  0.8631
19589TIP3    H180258   3.698   0.268   6.636 -0.2774 -0.7627  2.4474
19589TIP3    H280259   3.554   0.306   6.662 -0.0693  1.4668  0.6114
19590TIP3   OH280260   4.680   4.073  13.921 -0.0935  0.4763 -0.5302
19590TIP3    H180261   4.620   4.141  13.951 -2.6316 -1.5729 -0.6774
19590TIP3    H280262   4.681   4.009  13.992  0.3652 -0.4727 -1.3759
19591TIP3   OH280263   1.390   6.274   4.121 -0.2068  0.3657 -0.3996
19591TIP3    H180264   1.480   6.291   4.094 -0.2671 -0.1038 -0.9128
19591TIP3    H280265   1.376   6.182   4.101 -0.7149  0.3633 -0.0620
19592TIP3   OH280266   5.998   1.368  11.114 -0.4598 -0.3037 -0.5341
19592TIP3    H180267   6.019   1.393  11.024 -0.6570  2.3667  0.0711
19592TIP3    H280268   5.922   1.422  11.136  0.2071 -0.1447  1.5466
19593TIP3   OH280269   2.546   0.719  16.699 -0.1991 -0.3595 -0.1885
19593TIP3    H180270   2.518   0.720  16.607 -0.4033 -1.1037 -0.1400
19593TIP3    H280271   2.626   0.773  16.700 -0.9125  0.7320 -0.5519
19594TIP3   OH280272   3.481   6.155  16.858  0.3138 -0.8512  0.2609
19594TIP3    H180273   3.503   6.234  16.908 -0.4638  1.4356 -2.7526
19594TIP3    H280274   3.561   6.102  16.860  0.5323 -0.5874  3.2002
19595TIP3   OH280275   3.272   0.615   0.842  0.2314  0.2356 -0.3832
19595TIP3    H180276   3.364   0.597   0.862 -0.2624 -1.2406  0.7436
19595TIP3    H280277   3.270   0.631   0.748  1.6705  0.5790 -0.3777
19596TIP3   OH280278   0.303   1.415  15.674 -0.1878  0.7187 -0.5433
19596TIP3    H180279   0.239   1.479  15.703  0.6821  1.5859 -0.4860
19596TIP3    H280280   0.373   1.467  15.635  1.4214 -0.0121  1.1738
19597TIP3   OH280281   3.043   1.534   0.429  0.0787 -0.5892 -0.0812
19597TIP3    H180282   3.008   1.491   0.508 -0.8271  0.1571 -0.0558
19597TIP3    H280283   3.133   1.557   0.452  0.5329 -2.2680 -0.0252
19598TIP3   OH280284   4.920   6.682   3.339  0.2899 -0.5410  0.4517
19598TIP3    H180285   4.840   6.665   3.288  0.8388  1.0634 -1.0668
19598TIP3    H280286   4.891   6.682   3.430 -1.3637 -0.4604 -0.0314
19599TIP3   OH280287   4.143   3.695   5.614  0.6017  0.1627 -0.1459
19599TIP3    H180288   4.120   3.616   5.664 -0.3380  0.6021  0.1365
19599TIP3    H280289   4.059   3.729   5.583  0.9153  1.5270  0.4559
19600TIP3   OH280290   2.390   4.584   3.893 -0.9755  0.2183 -0.2777
19600TIP3    H180291   2.307   4.631   3.881 -1.2210  0.2107  1.1841
19600TIP3    H280292   2.365   4.491   3.893 -0.8405  0.1799 -0.6637
19601TIP3   OH280293   4.635   4.542  11.226 -0.0916 -0.4668 -0.4053
19601TIP3    H180294   4.588   4.536  11.143  0.0538 -0.5264 -0.4838
19601TIP3    H280295   4.575   4.587  11.285 -0.1075 -0.2186 -0.6098
19602TIP3   OH280296   2.412   6.127  10.612  0.2651 -0.4212 -0.1459
19602TIP3    H180297   2.490   6.143  10.664  0.4117 -3.8310  0.8593
19602TIP3    H280298   2.440   6.144  10.522  1.5430  0.3356  0.3631
19603TIP3   OH280299   2.399   1.072  17.061  0.5091 -0.3948 -0.3429
19603TIP3    H180300   2.366   1.086  16.972  0.1014 -0.6836 -0.2418
19603TIP3    H280301   2.322   1.079  17.116  0.7442 -0.3265 -0.0227
19604TIP3   OH280302   5.401   4.551  15.241  0.2575 -0.2529 -0.6220
19604TIP3    H180303   5.319   4.595  15.221  0.5814 -0.1781 -1.8456
19604TIP3    H280304   5.385   4.459  15.217  0.5658 -0.2169 -0.9666
19605TIP3   OH280305   6.676   1.407  14.976 -0.3306 -0.0254 -0.4247
19605TIP3    H180306   6.583   1.394  14.996 -0.2491  0.9788  0.7275
19605TIP3    H280307   6.719   1.396  15.061  0.5858 -0.3218 -0.9261
19606TIP3   OH280308   0.445   2.568  14.939 -0.4312 -0.3445  0.2028
19606TIP3    H180309   0.459   2.587  15.032 -0.6898  1.2504 -0.0508
19606TIP3    H280310   0.350   2.577  14.928 -0.1600  2.5119 -0.7555
19607TIP3   OH280311   0.978   2.046   6.460  0.2094 -0.2323  0.1290
19607TIP3    H180312   1.066   2.038   6.423 -0.2419 -2.8836 -0.5874
19607TIP3    H280313   0.990   2.030   6.554  0.5031 -0.5035  0.0469
19608TIP3   OH280314   4.414   5.453  10.436  0.2642 -0.1379  0.2083
19608TIP3    H180315   4.352   5.513  10.477 -0.5645 -0.3077 -0.7398
19608TIP3    H280316   4.500   5.479  10.470 -0.3423 -0.0535  1.7271
19609TIP3   OH280317   1.883   0.425   0.174  0.4455 -0.1763 -0.3825
19609TIP3    H180318   1.897   0.388   0.087  1.3196 -0.4057 -0.1622
19609TIP3    H280319   1.806   0.482   0.165 -1.9239 -3.1651 -0.3701
19610TIP3   OH280320   5.785   5.242   2.661  0.3974 -0.6184  0.6080
19610TIP3    H180321   5.811   5.164   2.611  3.7586  0.6216  0.1923
19610TIP3    H280322   5.795   5.217   2.752  1.6457 -0.6695  0.4722
19611TIP3   OH280323   3.933   4.088   1.130  0.3615 -0.1643  0.8410
19611TIP3    H180324   3.997   4.019   1.146  0.1894 -1.1794 -2.1950
19611TIP3    H280325   3.852   4.042   1.107  0.1687  0.9866 -1.0062
19612TIP3   OH280326   1.681   4.960  16.158 -0.3995  0.0417 -0.3920
19612TIP3    H180327   1.659   5.034  16.215  1.7368  0.5450 -0.1303
19612TIP3    H280328   1.671   4.995  16.069 -0.9565  0.1420 -0.2938
19613TIP3   OH280329   2.184   0.726  14.571  0.1264 -0.0427  0.2161
19613TIP3    H180330   2.278   0.735  14.588 -0.1679  1.2443  1.3396
19613TIP3    H280331   2.155   0.816  14.552 -0.9468 -0.3633  0.2936
19614TIP3   OH280332   4.276   5.996   4.418 -0.6483 -0.0557 -0.7997
19614TIP3    H180333   4.255   6.003   4.511 -1.9634 -0.8153 -1.0131
19614TIP3    H280334   4.357   6.046   4.408 -1.5708  1.7819  0.3789
19615TIP3   OH280335   1.118   6.345  14.116 -0.1142 -0.1932 -0.3397
19615TIP3    H180336   1.053   6.359  14.186 -1.6580 -1.2258 -1.5037
19615TIP3    H280337   1.139   6.252  14.122  1.1794  0.0971 -0.0880
19616TIP3   OH280338   0.161   2.877  11.276 -0.0372  0.2116 -0.4708
19616TIP3    H180339   0.072   2.878  11.243 -0.2363 -0.7857 -0.0031
19616TIP3    H280340   0.201   2.957  11.242 -0.2266 -0.7151 -3.0382
19617TIP3   OH280341   5.745   0.109  15.514  0.2725 -0.5782 -0.3622
19617TIP3    H180342   5.736   0.172  15.586  1.2761  0.3914 -1.0717
19617TIP3    H280343   5.753   0.162  15.436 -1.0777 -1.6244 -1.2721
19618TIP3   OH280344   5.933   0.403   3.563 -0.0715 -0.3825  0.0735
19618TIP3    H180345   5.928   0.497   3.548 -0.3430 -0.4709 -0.4068
19618TIP3    H280346   5.917   0.393   3.657  0.7101  0.1032  0.2688
19619TIP3   OH280347   5.075   3.160  17.146  0.1080 -0.5229  0.4826
19619TIP3    H180348   5.014   3.181  17.076  1.6706  0.3169 -0.6918
19619TIP3    H280349   5.080   3.065  17.146  0.7790 -0.5282 -1.2399
19620TIP3   OH280350   6.466   5.326  14.312  0.0205  0.0803 -0.1404
19620TIP3    H180351   6.383   5.370  14.291 -0.6832 -0.5988  1.0787
19620TIP3    H280352   6.491   5.361  14.397  1.1292  0.4377 -0.5894
19621TIP3   OH280353   1.321   0.242  15.636  0.5242 -0.2953  0.6722
19621TIP3    H180354   1.353   0.287  15.715 -0.7725 -0.3184  1.2349
19621TIP3    H280355   1.342   0.302  15.564 -0.5318  0.9140  1.3285
19622TIP3   OH280356   3.074   2.608   1.313 -0.5017  0.6189 -0.1371
19622TIP3    H180357   3.027   2.579   1.391  1.2798 -1.1437  0.3548
19622TIP3    H280358   3.022   2.574   1.240 -0.6737 -0.2266  0.3647
19623TIP3   OH280359   1.515   0.086  11.001 -0.0943  0.1718 -0.3677
19623TIP3    H180360   1.588   0.142  10.974  1.0908 -1.9938 -1.9903
19623TIP3    H280361   1.452   0.094  10.929 -0.5809  0.5304  0.0957
19624TIP3   OH280362   5.957   2.599   3.499 -0.1827  0.5312  0.4100
19624TIP3    H180363   5.914   2.581   3.415 -1.6086  1.9020  0.7940
19624TIP3    H280364   5.961   2.515   3.543 -1.9655  0.2381  0.0943
19625TIP3   OH280365   5.240   0.883  11.136  0.0792  0.3166  0.4797
19625TIP3    H180366   5.317   0.851  11.183  1.7346  0.7227 -1.7682
19625TIP3    H280367   5.206   0.806  11.090 -0.3158  0.3249  0.7516
19626TIP3   OH280368   4.474   0.425  14.687 -0.4854  0.0601  0.4019
19626TIP3    H180369   4.381   0.425  14.663 -0.5220  0.9075  0.5167
19626TIP3    H280370   4.474   0.449  14.780 -0.0757  1.6756  0.0173
19627TIP3   OH280371   5.130   1.913   5.573 -0.0152 -0.3316  0.3187
19627TIP3    H180372   5.219   1.949   5.577 -0.2364  0.1588  0.8877
19627TIP3    H280373   5.105   1.900   5.664 -1.0984  0.9611  0.2382
19628TIP3   OH280374   5.082   5.339   1.275  0.4458 -0.7653  0.4181
19628TIP3    H180375   5.158   5.289   1.307  2.4106 -0.2482 -2.9725
19628TIP3    H280376   5.110   5.430   1.282 -0.7211 -0.4361  0.9649
19629TIP3   OH280377   1.841   6.418   3.367 -0.8048  0.1850 -0.0748
19629TIP3    H180378   1.780   6.465   3.311 -0.5768 -0.5850 -1.0159
19629TIP3    H280379   1.923   6.466   3.358 -0.2414 -1.0102 -2.0108
19630TIP3   OH280380   4.189   5.566  11.621  0.3433  0.1707  0.3245
19630TIP3    H180381   4.164   5.595  11.709  2.6105  2.3355  0.3532
19630TIP3    H280382   4.269   5.614  11.601 -0.7711  0.7991 -3.4755
19631TIP3   OH280383   0.301   4.723   2.396  0.1938  0.0344  0.8192
19631TIP3    H180384   0.263   4.802   2.434  2.1297  1.1380  0.5728
19631TIP3    H280385   0.260   4.651   2.445 -0.6599  1.2285  1.9374
19632TIP3   OH280386   0.921   1.473   5.075  0.4136  0.2130  0.4392
19632TIP3    H180387   0.887   1.397   5.123 -0.3687 -0.6766 -1.4384
19632TIP3    H280388   0.849   1.500   5.019  1.0155  1.7801  0.3905
19633TIP3   OH280389   3.202   3.257   0.272  0.2129  0.0388  0.3032
19633TIP3    H180390   3.223   3.213   0.190 -1.8712 -1.8587  0.6872
19633TIP3    H280391   3.238   3.199   0.340  0.0025  0.4433  0.7617
19634TIP3   OH280392   1.245   4.923  16.025 -0.6364  0.1568  0.0763
19634TIP3    H180393   1.302   4.962  15.958  0.3613  0.3928  1.0340
19634TIP3    H280394   1.156   4.942  15.995 -0.2050  0.3414 -1.1291
19635TIP3   OH280395   0.496   3.191  16.631 -0.1824  0.1438 -0.0153
19635TIP3    H180396   0.557   3.264  16.623  1.5150 -1.3559 -1.3577
19635TIP3    H280397   0.422   3.216  16.575  0.2179  0.9451 -0.2071
19636TIP3   OH280398   6.239   4.273  13.227 -0.5318 -0.1647  0.1747
19636TIP3    H180399   6.270   4.188  13.196  0.6198  1.0555 -2.2949
19636TIP3    H280400   6.178   4.303  13.159 -2.7310  0.0578  2.1135
19637TIP3   OH280401   5.142   6.113  10.867 -0.3203 -0.4557  0.1521
19637TIP3    H180402   5.146   6.099  10.962  1.0479  3.1604  0.7761
19637TIP3    H280403   5.219   6.068  10.833 -0.9607 -2.0037  0.6489
19638TIP3   OH280404   0.487   2.763  15.876 -0.4221  0.1130 -0.6379
19638TIP3    H180405   0.541   2.794  15.948 -1.5661  0.1868  0.2209
19638TIP3    H280406   0.397   2.777  15.906 -0.9988 -2.6360 -0.7783
19639TIP3   OH280407   1.065   0.314  15.845  0.4032  0.0015  0.0137
19639TIP3    H180408   1.056   0.326  15.750 -1.4897  1.2797  0.2982
19639TIP3    H280409   1.094   0.400  15.877 -1.3857  0.3308  0.8324
19640TIP3   OH280410   4.172   2.146  11.760 -0.2435 -0.1982  0.0936
19640TIP3    H180411   4.230   2.184  11.695  0.3788 -0.6250  0.3921
19640TIP3    H280412   4.098   2.113  11.709 -0.6263  1.0609 -0.2065
19641TIP3   OH280413   3.325   0.303   5.597  0.2485  0.2339  0.2290
19641TIP3    H180414   3.391   0.235   5.608 -0.0061 -0.0975 -0.2614
19641TIP3    H280415   3.354   0.374   5.654  0.9730  0.0517  0.0926
19642TIP3   OH280416   3.501   0.923   2.891  0.2768  1.2525  0.0880
19642TIP3    H180417   3.473   0.836   2.918 -2.0645  1.6868 -0.6724
19642TIP3    H280418   3.557   0.908   2.815 -1.2422  0.4097 -0.9183
19643TIP3   OH280419   2.388   2.873  15.570  0.3357  0.0562  0.1553
19643TIP3    H180420   2.326   2.941  15.541  0.3080 -0.1536 -0.2809
19643TIP3    H280421   2.461   2.880  15.509  0.9211  0.5541  0.8956
19644TIP3   OH280422   5.180   2.233  12.436 -0.4068 -0.2341 -0.7645
19644TIP3    H180423   5.227   2.155  12.466  0.9609  0.7943 -0.1073
19644TIP3    H280424   5.088   2.212  12.448 -0.0280 -1.4148  0.2603
19645TIP3   OH280425   1.325   2.738  12.250 -0.1403  0.4740  0.6233
19645TIP3    H180426   1.239   2.774  12.230  0.1782  0.1167 -1.6804
19645TIP3    H280427   1.383   2.814  12.252  0.1573  0.4059 -2.0540
19646TIP3   OH280428   0.461   0.758   1.081  0.4197 -0.2117  0.2170
19646TIP3    H180429   0.521   0.744   1.008  0.1154 -0.2065 -0.0347
19646TIP3    H280430   0.466   0.677   1.132  0.9553 -0.0478  0.4270
19647TIP3   OH280431   5.138   0.226  13.343 -0.0564  0.2775 -0.2777
19647TIP3    H180432   5.086   0.268  13.412 -1.1441  0.0104 -0.9218
19647TIP3    H280433   5.148   0.135  13.372 -1.4741 -0.1317 -0.9709
19648TIP3   OH280434   2.084   5.549  16.245  0.4277 -0.0627  0.0254
19648TIP3    H180435   2.166   5.582  16.283  1.5373  0.6551 -2.6745
19648TIP3    H280436   2.099   5.456  16.232  1.0089  0.1359 -0.8097
19649TIP3   OH280437   0.125   5.500  13.860 -0.4636  0.6873  0.3172
19649TIP3    H180438   0.102   5.453  13.781  0.2856  0.6923  0.0815
19649TIP3    H280439   0.050   5.557  13.877 -2.9194 -2.7744  2.4492
19650TIP3   OH280440   6.360   6.236  14.921 -0.5286  0.6630  0.1321
19650TIP3    H180441   6.379   6.301  14.989 -0.9433  1.8741 -0.8804
19650TIP3    H280442   6.273   6.203  14.943 -1.3481  2.2114 -0.6618
19651TIP3   OH280443   5.964   5.607   6.517 -0.3562  0.2226 -0.1417
19651TIP3    H180444   6.055   5.636   6.511 -0.2359 -0.2812 -0.9778
19651TIP3    H280445   5.916   5.685   6.544  0.0461  1.0648 -1.7310
19652TIP3   OH280446   6.647   3.326  16.670  0.2725  0.4108 -0.0054
19652TIP3    H180447   6.671   3.233  16.665  0.8031  0.6033 -1.6784
19652TIP3    H280448   6.702   3.368  16.604 -1.3070  1.6171 -0.5952
19653TIP3   OH280449   0.413   4.322   5.125  0.7068  0.1311  0.5353
19653TIP3    H180450   0.432   4.229   5.125  1.7989  0.3407  0.1987
19653TIP3    H280451   0.385   4.340   5.215 -0.6370 -0.7234  0.3023
19654TIP3   OH280452   6.283   6.247  16.713  0.0936 -0.5964 -0.2736
19654TIP3    H180453   6.311   6.339  16.714  0.3183 -0.6147  2.3261
19654TIP3    H280454   6.188   6.252  16.705  0.0180 -0.0491  0.6817
19655TIP3   OH280455   4.537   1.458  11.632 -0.0427 -0.7718  0.0122
19655TIP3    H180456   4.601   1.402  11.587 -0.0907 -0.1858 -0.8031
19655TIP3    H280457   4.546   1.543  11.589 -0.2364 -0.2477  0.9890
19656TIP3   OH280458   3.521   6.118  14.333  0.3599 -0.6122 -0.2235
19656TIP3    H180459   3.545   6.171  14.258 -0.1051 -1.4978 -1.0160
19656TIP3    H280460   3.604   6.086  14.368  0.5801 -0.1307 -0.3086
19657TIP3   OH280461   2.180   6.654   2.038  0.8618  0.1196 -0.3245
19657TIP3    H180462   2.236   6.609   1.973 -0.7569 -0.1129 -1.6110
19657TIP3    H280463   2.216   6.742   2.043  0.1526  0.6140 -2.7023
19658TIP3   OH280464   4.653   0.689  12.500  0.3594 -0.1566 -0.5567
19658TIP3    H180465   4.578   0.671  12.557 -0.1578  0.9851 -0.8621
19658TIP3    H280466   4.729   0.681  12.558 -0.1296  0.5759  0.1983
19659TIP3   OH280467   6.596   6.508   4.431 -0.6211 -0.4054  0.0141
19659TIP3    H180468   6.638   6.431   4.470  0.2685  0.3975  0.6742
19659TIP3    H280469   6.656   6.535   4.361 -0.4954  0.1949  0.3491
19660TIP3   OH280470   6.054   3.209   5.090 -0.1153 -0.4671 -0.2253
19660TIP3    H180471   6.104   3.249   5.019  1.3976  1.1384  1.6301
19660TIP3    H280472   5.963   3.221   5.064  0.3739  0.7317 -1.5567
19661TIP3   OH280473   0.198   1.975  15.126 -0.2540  0.3129 -0.3819
19661TIP3    H180474   0.245   1.911  15.072 -0.6087  1.0713 -1.6447
19661TIP3    H280475   0.195   1.936  15.213  2.3560  0.0586 -0.3215
19662TIP3   OH280476   3.039   3.376   2.087 -0.4021  0.7444 -0.3117
19662TIP3    H180477   3.052   3.296   2.137  0.5561  1.2388  0.2466
19662TIP3    H280478   2.987   3.433   2.144 -0.9916  0.5846 -0.6673
19663TIP3   OH280479   2.541   2.060   2.862  0.0792 -0.5794  0.2181
19663TIP3    H180480   2.562   2.010   2.941  1.1060 -0.4579  0.0297
19663TIP3    H280481   2.528   2.150   2.892  0.0297 -0.6153  0.3031
19664TIP3   OH280482   0.862   3.735  14.284 -0.5974 -0.2976  0.1937
19664TIP3    H180483   0.934   3.676  14.306  0.5816  0.2260 -1.9656
19664TIP3    H280484   0.795   3.678  14.247  0.6413 -0.3615 -2.1281
19665TIP3   OH280485   5.034   1.131  12.947  0.4847 -0.1962  0.0995
19665TIP3    H180486   4.987   1.056  12.985  1.5777 -0.7072  0.4692
19665TIP3    H280487   4.985   1.152  12.868 -0.7385 -0.3106  0.7996
19666TIP3   OH280488   1.604   3.989   5.404  0.2266  0.1218 -0.3355
19666TIP3    H180489   1.661   3.914   5.423 -0.1237 -0.1716 -0.4223
19666TIP3    H280490   1.663   4.057   5.372  0.4918 -0.2947 -0.7529
19667TIP3   OH280491   3.018   3.080   3.618 -0.0706  0.2316 -0.4670
19667TIP3    H180492   3.066   3.078   3.700 -0.0523 -0.5813 -0.4920
19667TIP3    H280493   3.014   2.989   3.590 -1.8025  0.2295 -0.3576
19668TIP3   OH280494   2.121   4.736  15.487 -0.2285 -0.2131 -0.7375
19668TIP3    H180495   2.098   4.695  15.570 -0.0923 -1.4532 -1.2963
19668TIP3    H280496   2.168   4.668  15.439  0.4054  0.7500 -1.5112
19669TIP3   OH280497   2.468   1.776  15.431  0.0062  0.3456  0.2984
19669TIP3    H180498   2.514   1.856  15.404  0.3548 -0.2876 -1.0352
19669TIP3    H280499   2.433   1.740  15.350 -1.3530 -0.1264  1.0795
19670TIP3   OH280500   6.455   1.893   4.893  0.2739  0.5437  0.4638
19670TIP3    H180501   6.550   1.890   4.900  0.3829 -1.2610 -0.9197
19670TIP3    H280502   6.428   1.801   4.887 -1.5448  1.0166  0.5837
19671TIP3   OH280503   6.297   0.080   3.574  0.4777  0.4463  0.2341
19671TIP3    H180504   6.389   0.093   3.597  0.7322 -0.0004 -0.4940
19671TIP3    H280505   6.286   0.126   3.491 -0.1148  1.0078  0.6189
19672TIP3   OH280506   4.057   1.157  13.052 -0.3487  0.5121  0.2377
19672TIP3    H180507   4.100   1.226  13.002  1.4492 -0.5636  0.1860
19672TIP3    H280508   4.039   1.089  12.988 -0.9838  0.4400  0.4927
19673TIP3   OH280509   2.082   5.296   5.052 -0.0859  0.2879  0.3161
19673TIP3    H180510   2.142   5.341   5.112 -0.4623 -2.0806  2.6324
19673TIP3    H280511   2.023   5.246   5.109  0.1242 -2.9126 -2.0145
19674TIP3   OH280512   6.478   0.106  17.223  0.0537 -0.2990  0.3318
19674TIP3    H180513   6.515   0.183  17.266  1.7346  0.0303 -1.6080
19674TIP3    H280514   6.531   0.033  17.255  1.9782  0.0666 -1.7787
19675TIP3   OH280515   4.507   1.852  14.010 -0.4916  0.6674  0.2793
19675TIP3    H180516   4.563   1.799  13.952 -0.0640  2.1701 -0.7284
19675TIP3    H280517   4.560   1.866  14.089  0.2440  1.3657 -0.3246
19676TIP3   OH280518   4.447   2.629   6.874  0.2056 -0.0048 -0.3988
19676TIP3    H180519   4.442   2.656   6.965  0.0865  1.8877 -0.9285
19676TIP3    H280520   4.359   2.599   6.852  0.4590 -1.3948  0.3288
19677TIP3   OH280521   5.750   1.045   0.189 -0.0006  0.2589  0.3922
19677TIP3    H180522   5.664   1.073   0.220 -0.3804  1.3070 -1.4409
19677TIP3    H280523   5.736   1.021   0.097  1.6237  0.2779  0.1026
19678TIP3   OH280524   6.637   1.055  15.159  0.0795  0.3772  0.2449
19678TIP3    H180525   6.576   1.015  15.222  1.0338  0.0787  1.0111
19678TIP3    H280526   6.663   1.137  15.200 -0.8420  1.1688 -0.7126
19679TIP3   OH280527   1.388   3.240   1.120 -0.0256  0.1409  0.3894
19679TIP3    H180528   1.340   3.294   1.057  0.3304 -0.4119 -0.3749
19679TIP3    H280529   1.459   3.296   1.150 -0.8031  0.7706  1.0993
19680TIP3   OH280530   4.851   6.427   5.849  0.4409 -0.3652 -0.1174
19680TIP3    H180531   4.810   6.458   5.768  0.7906 -1.9063 -0.9241
19680TIP3    H280532   4.836   6.498   5.912 -1.8177 -0.0647 -0.8793
19681TIP3   OH280533   3.277   0.973  13.545  0.2258  0.1415 -0.4931
19681TIP3    H180534   3.257   0.892  13.591 -1.4033 -0.3425 -1.9335
19681TIP3    H280535   3.365   0.960  13.509  0.5270 -0.4114  0.4082
19682TIP3   OH280536   3.833   3.211  11.915 -0.3802 -0.2964 -0.4983
19682TIP3    H180537   3.820   3.117  11.904 -0.0835 -0.6607  1.7638
19682TIP3    H280538   3.928   3.224  11.908 -0.3686 -0.2517 -0.2703
19683TIP3   OH280539   2.202   6.535   0.558 -0.0360 -0.4801  0.5866
19683TIP3    H180540   2.192   6.571   0.470  1.3259  0.5353  0.8132
19683TIP3    H280541   2.203   6.611   0.615  3.3492 -0.7139  1.0381
19684TIP3   OH280542   3.668   1.835  13.233 -0.4230  0.6720 -0.0892
19684TIP3    H180543   3.755   1.846  13.271 -0.5209  1.4314 -0.0751
19684TIP3    H280544   3.611   1.817  13.307 -0.0340 -1.4789 -0.2438
19685TIP3   OH280545   0.685   4.458  14.319  0.0333  0.0116 -0.6439
19685TIP3    H180546   0.768   4.425  14.284 -0.7876 -1.4323 -1.2912
19685TIP3    H280547   0.693   4.554  14.314  2.1535 -0.0546  0.4924
19686TIP3   OH280548   2.637   2.495   1.419  0.6092 -0.2176  0.3205
19686TIP3    H180549   2.604   2.580   1.389  0.0848 -0.4347  0.2766
19686TIP3    H280550   2.594   2.482   1.504  0.5245 -0.5350  0.2293
19687TIP3   OH280551   0.172   5.367  12.755 -0.1210  0.0774  0.1241
19687TIP3    H180552   0.138   5.452  12.726  0.9572  0.3509 -0.3913
19687TIP3    H280553   0.249   5.388  12.807  1.5646 -0.6009 -1.9340
19688TIP3   OH280554   2.300   4.286   4.469  0.2165  0.0214  0.6113
19688TIP3    H180555   2.330   4.258   4.383  0.0447 -1.1045  0.8955
19688TIP3    H280556   2.293   4.381   4.463  2.8557  0.2543  0.2306
19689TIP3   OH280557   5.677   0.371  14.450  0.1251  1.0354  0.3782
19689TIP3    H180558   5.722   0.289  14.428 -0.1404  1.1582 -0.6453
19689TIP3    H280559   5.742   0.439  14.434 -0.3306  1.1933 -0.8784
19690TIP3   OH280560   6.041   4.764   1.312  0.4540  0.6233  0.4673
19690TIP3    H180561   6.131   4.765   1.346  1.0740 -0.9868 -0.9541
19690TIP3    H280562   5.987   4.794   1.385  2.1503  1.7913  1.3097
19691TIP3   OH280563   1.428   2.239   1.200 -0.0078 -0.2562 -0.1197
19691TIP3    H180564   1.412   2.193   1.117 -1.2278 -0.4077  0.1767
19691TIP3    H280565   1.505   2.293   1.184  0.2548 -0.9023 -1.0990
19692TIP3   OH280566   6.782   0.104  14.226  0.1850 -0.1265 -0.3221
19692TIP3    H180567   6.812   0.178  14.279 -0.8010  1.1954 -1.5270
19692TIP3    H280568   6.712   0.065  14.278 -1.0119  1.3662 -0.7529
19693TIP3   OH280569   6.399   4.853   3.630 -0.1963  0.1399  0.6771
19693TIP3    H180570   6.400   4.816   3.541 -1.0765  0.5966  0.4606
19693TIP3    H280571   6.485   4.831   3.666  0.9998  1.6418 -1.0000
19694TIP3   OH280572   6.234   3.057  10.572  0.5762 -0.3846 -0.0986
19694TIP3    H180573   6.152   3.044  10.523  1.1153 -2.2330 -0.6213
19694TIP3    H280574   6.214   3.023  10.659  1.3501 -3.0289 -0.8481
19695TIP3   OH280575   2.893   2.595   3.384  0.0566 -0.2250 -0.3039
19695TIP3    H180576   2.889   2.632   3.295 -0.0614  0.9215  0.1629
19695TIP3    H280577   2.803   2.570   3.404 -0.2294  1.0637  0.1110
19696TIP3   OH280578   4.139   5.986   4.194 -0.0423  0.2136 -0.4144
19696TIP3    H180579   4.205   5.983   4.264  0.7259 -0.4766 -1.1561
19696TIP3    H280580   4.152   6.071   4.152  1.1985 -0.4195 -1.3346
19697TIP3   OH280581   0.985   1.130   5.526 -0.1687 -0.2692  0.4460
19697TIP3    H180582   0.941   1.188   5.589 -0.6790 -0.4184  0.2304
19697TIP3    H280583   1.076   1.161   5.525 -0.7925  1.7007 -0.9804
19698TIP3   OH280584   2.045   2.808  14.061 -0.2502 -0.2643 -0.0124
19698TIP3    H180585   2.054   2.713  14.070  0.9708 -0.0155  1.9640
19698TIP3    H280586   2.073   2.843  14.145 -0.7959  1.8630 -0.6573
19699TIP3   OH280587   2.198   0.771   3.238 -0.0496  0.2712 -0.7809
19699TIP3    H180588   2.127   0.750   3.299  0.1106  1.5890 -0.1003
19699TIP3    H280589   2.223   0.686   3.200  0.5263 -0.7796  1.7451
19700TIP3   OH280590   1.408   3.453  16.380 -0.1109  0.2050  0.2618
19700TIP3    H180591   1.351   3.501  16.439 -0.8701 -1.4149  0.9184
19700TIP3    H280592   1.468   3.405  16.438  0.8929  0.6561 -0.3763
19701TIP3   OH280593   3.711   0.443   1.120  0.3267  0.1647  0.0026
19701TIP3    H180594   3.752   0.527   1.142  1.1692 -0.3877  0.6157
19701TIP3    H280595   3.692   0.402   1.204  1.6628 -1.0725 -0.2541
19702TIP3   OH280596   3.747   4.042  15.072  0.0780 -0.5313  0.3754
19702TIP3    H180597   3.678   4.107  15.088  0.3519 -0.6410  2.3284
19702TIP3    H280598   3.711   3.961  15.107  1.2289 -0.5564  1.5663
19703TIP3   OH280599   3.827   3.308   2.394 -0.6610 -0.2004  0.1072
19703TIP3    H180600   3.901   3.346   2.441  0.1499 -0.0271 -1.2589
19703TIP3    H280601   3.782   3.384   2.356 -1.3785 -0.3297  0.6686
19704TIP3   OH280602   3.098   0.677  15.289  0.3137 -0.2856 -0.6047
19704TIP3    H180603   3.033   0.608  15.284  0.0138  0.0188 -1.0124
19704TIP3    H280604   3.179   0.633  15.316  0.0393 -0.7311 -0.5102
19705TIP3   OH280605   5.307   1.845  17.152  0.0047 -0.3321 -0.1927
19705TIP3    H180606   5.336   1.785  17.083 -0.1736  1.4028 -1.8542
19705TIP3    H280607   5.212   1.832  17.156 -0.0080 -0.3158 -0.4072
19706TIP3   OH280608   1.585   0.868   4.654 -0.3153 -0.2349 -0.8094
19706TIP3    H180609   1.511   0.810   4.637 -0.8120 -0.4719  1.8014
19706TIP3    H280610   1.545   0.948   4.688  0.5595  0.2399 -0.8681
19707TIP3   OH280611   3.277   1.779  11.223  0.2876 -0.0378  0.1756
19707TIP3    H180612   3.336   1.706  11.203 -1.0041 -0.7694 -1.1523
19707TIP3    H280613   3.312   1.853  11.173 -0.2585 -0.6373 -1.1287
19708TIP3   OH280614   6.491   1.555  12.849 -0.1798 -0.2554 -1.2781
19708TIP3    H180615   6.495   1.517  12.762 -1.9709 -1.2784 -0.9566
19708TIP3    H280616   6.456   1.486  12.905 -1.2157  1.0592 -0.2003
19709TIP3   OH280617   4.538   3.675   2.992  0.2915 -0.0123 -0.6089
19709TIP3    H180618   4.499   3.592   3.019 -2.0227  1.4569  0.9470
19709TIP3    H280619   4.559   3.662   2.899  0.3419 -2.4033 -0.3296
19710TIP3   OH280620   3.336   5.268  16.877  0.0191 -0.6080  0.2393
19710TIP3    H180621   3.389   5.302  16.949 -2.0656  0.5653  1.3412
19710TIP3    H280622   3.328   5.342  16.816 -0.2482 -0.8094  0.0253
19711TIP3   OH280623   3.009   1.409   5.079 -0.0182 -0.3156 -0.4856
19711TIP3    H180624   3.053   1.363   5.008 -1.5616  0.2581 -1.8890
19711TIP3    H280625   3.071   1.475   5.108  0.7191 -0.7038 -1.1572
19712TIP3   OH280626   0.170   2.544  16.636  0.3928 -0.0120  0.0409
19712TIP3    H180627   0.236   2.536  16.567  0.0883  0.8096 -0.3568
19712TIP3    H280628   0.086   2.546  16.589  0.0811 -0.9722  0.5348
19713TIP3   OH280629   1.866   3.197  15.721 -0.5518  0.3465 -0.2827
19713TIP3    H180630   1.863   3.112  15.677  1.3036 -1.0084  1.9833
19713TIP3    H280631   1.799   3.192  15.789  1.7976 -0.8128  2.1276
19714TIP3   OH280632   2.875   2.805  12.956  0.1985 -0.1860 -0.0367
19714TIP3    H180633   2.902   2.761  12.876  0.5674  0.7493 -0.4368
19714TIP3    H280634   2.907   2.895  12.947  2.5544 -0.6832  2.2807
19715TIP3   OH280635   5.756   1.141  12.208 -0.3593 -0.5214  0.3074
19715TIP3    H180636   5.821   1.071  12.218  0.6753 -0.1371 -2.8044
19715TIP3    H280637   5.757   1.162  12.115 -4.1109  0.4039  0.3303
19716TIP3   OH280638   2.359   2.253  12.097 -0.2078 -0.1074  0.4231
19716TIP3    H180639   2.358   2.206  12.180  0.5599  0.9881  1.0774
19716TIP3    H280640   2.422   2.324  12.110 -1.9803  1.6867 -0.1937
19717TIP3   OH280641   5.581   4.059  13.584  0.5416  1.1447 -0.0185
19717TIP3    H180642   5.522   4.087  13.654  2.4498 -0.3155  2.3116
19717TIP3    H280643   5.668   4.088  13.612  1.6930 -1.4097 -0.6124
19718TIP3   OH280644   1.949   0.422   5.899  0.1430  0.3185 -0.2044
19718TIP3    H180645   1.859   0.423   5.932  0.0884  2.9093 -0.1812
19718TIP3    H280646   1.964   0.332   5.870 -2.1472 -0.3755  0.5751
19719TIP3   OH280647   1.569   0.158  14.469 -0.0001  0.4778 -0.2984
19719TIP3    H180648   1.495   0.217  14.457  0.6904  1.3258 -0.4951
19719TIP3    H280649   1.634   0.189  14.405 -0.2582 -1.5578 -1.6448
19720TIP3   OH280650   4.373   6.411   1.163  0.4160  0.5706 -0.0107
19720TIP3    H180651   4.349   6.319   1.175 -0.7615  0.9246  0.5454
19720TIP3    H280652   4.435   6.410   1.090  0.5701 -0.6786  0.1104
19721TIP3   OH280653   5.423   4.118  13.068 -0.0560  0.2076  0.1276
19721TIP3    H180654   5.428   4.072  13.151 -1.8436 -0.4259 -0.0643
19721TIP3    H280655   5.377   4.057  13.009 -2.7715  2.2227 -0.0548
19722TIP3   OH280656   4.720   3.438  16.068 -0.4247 -0.2405 -0.5575
19722TIP3    H180657   4.697   3.484  15.987 -0.4359  1.1633  0.2226
19722TIP3    H280658   4.767   3.503  16.120  0.4423 -1.4151  0.1756
19723TIP3   OH280659   3.386   6.237   6.112  1.0318  0.1198  0.0601
19723TIP3    H180660   3.436   6.202   6.186 -0.6178 -1.5861  0.4356
19723TIP3    H280661   3.311   6.280   6.152  0.3973 -0.3584 -0.5902
19724TIP3   OH280662   0.036   6.142   4.053 -0.0311  0.6212 -0.0867
19724TIP3    H180663  -0.022   6.174   4.121 -1.0252 -0.9504 -0.1281
19724TIP3    H280664  -0.002   6.176   3.971 -0.2767  0.4840 -0.0314
19725TIP3   OH280665   1.292   1.660   4.438 -0.0651 -0.1866  0.2613
19725TIP3    H180666   1.319   1.691   4.524  0.1781 -1.1218  0.5347
19725TIP3    H280667   1.229   1.725   4.408 -0.6962 -0.2199  1.4603
19726TIP3   OH280668   1.672   2.941  14.820 -0.4160  0.1889 -0.2281
19726TIP3    H180669   1.609   2.993  14.769  0.6301  0.9253 -0.7958
19726TIP3    H280670   1.716   2.886  14.755 -0.1763 -0.0239  0.1099
19727TIP3   OH280671   3.307   0.900  14.362  0.0391 -0.0371  0.2988
19727TIP3    H180672   3.242   0.964  14.335  0.8970  1.2555  1.1926
19727TIP3    H280673   3.271   0.860  14.441  0.8047  1.5635  1.5224
19728TIP3   OH280674   4.273   3.122  15.858  0.2665 -0.4248 -0.0377
19728TIP3    H180675   4.313   3.079  15.782 -0.8789 -0.7164 -0.4902
19728TIP3    H280676   4.342   3.122  15.924 -0.0070 -4.0874  0.4272
19729TIP3   OH280677   5.042   1.236   5.062 -0.3646 -0.3540 -0.2852
19729TIP3    H180678   5.001   1.171   5.119 -0.2993 -1.2782 -1.2652
19729TIP3    H280679   5.121   1.193   5.029  0.8161  0.9871  0.6562
19730TIP3   OH280680   5.755   2.766   3.522  0.4336 -0.3560  0.0190
19730TIP3    H180681   5.702   2.737   3.448  0.8709  0.4708 -0.6379
19730TIP3    H280682   5.833   2.710   3.518  0.8737  0.2908 -0.7104
19731TIP3   OH280683   6.390   2.755  11.136 -0.0023  0.4844  0.0441
19731TIP3    H180684   6.346   2.825  11.185 -1.0108 -0.2873  0.2778
19731TIP3    H280685   6.327   2.731  11.068 -0.2156 -1.0324  0.7350
19732TIP3   OH280686   2.524   2.229  16.807 -1.0684  0.3763 -0.7914
19732TIP3    H180687   2.488   2.169  16.872 -1.1750  0.2492 -0.9650
19732TIP3    H280688   2.448   2.280  16.776 -1.2597 -0.4659 -1.7670
19733TIP3   OH280689   4.938   5.772   0.605  0.1111 -0.1860 -0.1403
19733TIP3    H180690   4.902   5.685   0.589 -1.6851  0.5644 -0.4080
19733TIP3    H280691   5.001   5.759   0.677 -0.3455 -1.6355  0.0317
19734TIP3   OH280692   1.505   1.899  16.586  0.3867 -0.0400 -0.1203
19734TIP3    H180693   1.568   1.828  16.571  1.2016  0.4483  0.8109
19734TIP3    H280694   1.555   1.978  16.567 -1.0362  0.2828 -2.9511
19735TIP3   OH280695   4.769   5.221  14.640 -0.1573  0.2336 -0.2138
19735TIP3    H180696   4.753   5.187  14.728 -0.5984 -1.0945 -0.7883
19735TIP3    H280697   4.716   5.300  14.634 -0.9547 -0.2526  0.3496
19736TIP3   OH280698   3.570   0.378  10.786 -0.4587 -0.1188 -0.1199
19736TIP3    H180699   3.512   0.417  10.720 -0.8307 -0.0225  0.2537
19736TIP3    H280700   3.656   0.413  10.767 -0.5408 -0.1882 -0.6291
19737TIP3   OH280701   0.550   2.808   2.956 -0.1464  0.1413 -0.5050
19737TIP3    H180702   0.490   2.835   2.887 -0.0924 -0.7024 -0.9081
19737TIP3    H280703   0.632   2.853   2.936 -0.1583 -0.0309 -0.9445
19738TIP3   OH280704   5.165   2.049   6.863 -0.2852 -0.0231 -0.1504
19738TIP3    H180705   5.174   2.118   6.798 -3.1583 -0.1063 -0.7419
19738TIP3    H280706   5.079   2.063   6.903 -0.5368 -2.6052  0.4487
19739TIP3   OH280707   3.981   2.570  13.573 -0.7751 -0.7880  0.4019
19739TIP3    H180708   4.042   2.518  13.625  2.6512  2.4690  0.0245
19739TIP3    H280709   4.007   2.552  13.482  0.5195  1.4509  0.2703
19740TIP3   OH280710   1.613   4.528   3.489  0.6729  0.3478  0.1454
19740TIP3    H180711   1.562   4.466   3.437  0.1688  0.9902 -0.1460
19740TIP3    H280712   1.644   4.477   3.563 -1.2505  0.1355  0.8842
19741TIP3   OH280713   1.118   5.094  14.285 -0.0345  0.2349 -0.2680
19741TIP3    H180714   1.122   5.188  14.306  0.5002  0.2481 -0.4027
19741TIP3    H280715   1.082   5.091  14.196  0.4962  0.3528 -0.4934
19742TIP3   OH280716   2.311   5.112   5.349  0.1039 -0.2875  0.1664
19742TIP3    H180717   2.377   5.045   5.333 -0.0783 -0.3271 -0.4508
19742TIP3    H280718   2.259   5.114   5.268  0.1875  0.6849  0.1301
19743TIP3   OH280719   1.006   3.225  13.148 -0.4294  0.1141  0.2806
19743TIP3    H180720   1.020   3.286  13.221 -0.8839  0.0966  0.3826
19743TIP3    H280721   0.917   3.242  13.119 -0.3794 -0.1447 -0.0267
19744TIP3   OH280722   4.951   1.769   6.396  0.5363  0.6539 -0.5569
19744TIP3    H180723   4.925   1.682   6.365 -1.1955  1.0494 -0.3001
19744TIP3    H280724   4.946   1.763   6.492  1.6980  0.6868 -0.4711
19745TIP3   OH280725   5.810   0.061   0.428  0.0632 -0.7056  0.4147
19745TIP3    H180726   5.743   0.129   0.420  2.1751  1.7225  1.7815
19745TIP3    H280727   5.762  -0.021   0.422 -2.8255  0.8978 -0.0127
19746TIP3   OH280728   0.333   3.874  17.189  0.6205  1.0297  0.0133
19746TIP3    H180729   0.400   3.825  17.142 -0.2818  0.4781 -0.7302
19746TIP3    H280730   0.300   3.938  17.125  1.0318  1.8964  0.6388
19747TIP3   OH280731   3.557   1.281  11.878 -0.1757  0.0610 -0.3854
19747TIP3    H180732   3.607   1.326  11.946 -0.4982 -0.2650  0.0742
19747TIP3    H280733   3.621   1.263  11.809  0.4832 -0.8210  0.4172
19748TIP3   OH280734   5.333   3.222   2.034  1.0579 -0.1890 -0.4861
19748TIP3    H180735   5.297   3.232   2.122  0.3267 -0.8355 -0.6997
19748TIP3    H280736   5.423   3.194   2.047  1.3707  1.0345  0.0600
19749TIP3   OH280737   5.444   6.144  10.694 -0.3218  0.3260 -0.3201
19749TIP3    H180738   5.426   6.074  10.757 -0.6044  1.9966  1.5219
19749TIP3    H280739   5.539   6.141  10.682 -0.2019  0.3017  0.5638
19750TIP3   OH280740   2.272   1.716  14.617 -0.3457 -0.1453 -0.3977
19750TIP3    H180741   2.260   1.637  14.563 -1.7650  0.9396 -1.7658
19750TIP3    H280742   2.205   1.708  14.685 -0.6430 -0.0107 -0.6737
19751TIP3   OH280743   3.779   2.304   2.200 -0.3894 -0.1900 -0.5650
19751TIP3    H180744   3.715   2.375   2.209  1.4267  1.4355 -0.0484
19751TIP3    H280745   3.803   2.306   2.107  0.9640  1.0983 -0.2198
19752TIP3   OH280746   1.957   5.552  16.685 -0.1112  0.3681 -0.4916
19752TIP3    H180747   1.926   5.594  16.765  0.1508  0.2119 -0.3054
19752TIP3    H280748   1.910   5.469  16.682 -0.2307  0.4392 -0.5765
19753TIP3   OH280749   0.386   4.212  16.862  0.1971  0.1253 -0.4610
19753TIP3    H180750   0.351   4.123  16.859 -0.0214  0.2294 -2.3687
19753TIP3    H280751   0.386   4.235  16.955 -2.7919 -0.6750 -0.1599
19754TIP3   OH280752   4.878   3.347  12.913 -0.1559  0.4162  0.1151
19754TIP3    H180753   4.950   3.360  12.851  0.1218 -1.6765 -0.0755
19754TIP3    H280754   4.838   3.433  12.922  0.2621  0.9585 -2.4016
19755TIP3   OH280755   2.458   3.555  17.100 -0.4863 -0.1128  0.2959
19755TIP3    H180756   2.552   3.557  17.079  0.0448 -0.6692  2.2890
19755TIP3    H280757   2.453   3.598  17.186 -2.1166  0.2026  0.0605
19756TIP3   OH280758   4.767   1.893   3.964  0.3036 -0.1121 -0.3421
19756TIP3    H180759   4.680   1.930   3.980  1.2081  1.7418  0.5481
19756TIP3    H280760   4.809   1.890   4.050  1.2819 -0.5957 -0.8107
19757TIP3   OH280761   3.284   0.831  10.684 -0.1654  0.0645 -0.3503
19757TIP3    H180762   3.260   0.919  10.654  0.9201  0.2351 -0.7450
19757TIP3    H280763   3.364   0.810  10.635  0.2764 -0.6405  0.6572
19758TIP3   OH280764   2.842   6.208  15.334 -0.0241 -0.1599  0.1101
19758TIP3    H180765   2.759   6.226  15.290 -0.5542 -0.1148  1.0930
19758TIP3    H280766   2.835   6.254  15.418  1.7692  1.4663 -0.5360
19759TIP3   OH280767   2.032   1.153  13.272 -0.1533  0.2411  0.2543
19759TIP3    H180768   2.072   1.153  13.185 -1.3041  0.0806 -0.2940
19759TIP3    H280769   2.063   1.072  13.313 -0.1587 -0.0322 -0.2780
19760TIP3   OH280770   5.040   1.764  17.242  0.1139  0.4690 -0.2495
19760TIP3    H180771   5.082   1.808  17.315  0.0702  0.4916 -0.2375
19760TIP3    H280772   4.961   1.817  17.224 -1.3958 -1.0718  1.4939
19761TIP3   OH280773   2.704   2.464   5.031  0.2570  0.5400  0.0992
19761TIP3    H180774   2.684   2.407   4.956 -0.3027 -0.7635  1.1981
19761TIP3    H280775   2.633   2.529   5.031 -1.3799 -1.1582  1.1171
19762TIP3   OH280776   3.063   2.546  14.612  0.4618  0.1852 -0.1891
19762TIP3    H180777   3.065   2.589  14.527 -0.1986  1.4802  0.4153
19762TIP3    H280778   3.128   2.593  14.664  2.3864 -1.9177 -0.5156
19763TIP3   OH280779   3.216   1.416   6.190  0.4168  0.0680  0.1527
19763TIP3    H180780   3.214   1.447   6.099 -2.8718  0.4987  0.2710
19763TIP3    H280781   3.306   1.435   6.219  1.1449  1.2451 -2.5403
19764TIP3   OH280782   5.685   3.869   2.566 -0.0989  0.1243  0.1811
19764TIP3    H180783   5.667   3.929   2.638 -0.9926 -0.0207  0.0802
19764TIP3    H280784   5.620   3.799   2.574 -0.5852  0.4013 -1.1018
19765TIP3   OH280785   0.088   6.554  11.137  0.1716  0.1320 -0.7764
19765TIP3    H180786  -0.005   6.562  11.116 -0.3541  0.9946  1.6105
19765TIP3    H280787   0.114   6.642  11.166  1.4843 -0.3433 -0.4317
19766TIP3   OH280788   1.910   4.848   5.522 -0.3092  0.2359  0.1194
19766TIP3    H180789   1.958   4.927   5.498 -0.4503  0.8669  1.7446
19766TIP3    H280790   1.979   4.787   5.552 -0.1005 -0.6607 -1.9979
19767TIP3   OH280791   6.792   5.289   0.685 -0.6271 -0.4047  0.3681
19767TIP3    H180792   6.827   5.205   0.714 -0.7832 -0.2844  0.9338
19767TIP3    H280793   6.857   5.353   0.715 -0.4566 -0.3306 -0.1521
19768TIP3   OH280794   5.101   3.150   5.147  0.5419  0.1156 -0.6591
19768TIP3    H180795   5.118   3.075   5.204  0.8125  0.5499 -0.1610
19768TIP3    H280796   5.029   3.121   5.091  0.1568 -0.2580  0.0141
19769TIP3   OH280797   1.230   6.585  14.081 -0.8017  0.1264  0.4267
19769TIP3    H180798   1.215   6.491  14.080 -3.3508  0.4707 -1.0473
19769TIP3    H280799   1.154   6.621  14.127 -0.2652  1.5104  0.2804
19770TIP3   OH280800   1.482   6.061   0.082 -0.0197 -0.1271  0.8924
19770TIP3    H180801   1.496   6.101   0.168  1.8145  0.7971  0.2045
19770TIP3    H280802   1.442   6.131   0.030  0.5162 -0.1020  0.5059
19771TIP3   OH280803   3.219   2.072  14.379  0.2121  0.1052 -0.2204
19771TIP3    H180804   3.302   2.120  14.380 -0.0458  0.6123 -1.4696
19771TIP3    H280805   3.168   2.111  14.450  0.7614  0.3083  0.0622
19772TIP3   OH280806   2.185   4.620  17.054 -0.0046 -0.0489 -0.0245
19772TIP3    H180807   2.112   4.632  16.993  0.5784 -0.9948 -0.9278
19772TIP3    H280808   2.257   4.669  17.015  0.4728 -0.9494 -0.2897
19773TIP3   OH280809   3.280   1.551   2.882  0.1115  0.5627 -0.0359
19773TIP3    H180810   3.235   1.618   2.830 -0.2756  0.9320  0.7516
19773TIP3    H280811   3.365   1.590   2.903  0.2160  0.4662 -0.2760
19774TIP3   OH280812   6.470   6.507  13.453 -0.1425  0.4717 -0.5193
19774TIP3    H180813   6.440   6.416  13.461 -0.6206  0.7261  0.8740
19774TIP3    H280814   6.488   6.534  13.543  1.8581  1.1607 -1.0799
19775TIP3   OH280815   0.519   5.831   3.429 -0.2529 -0.0788  0.2093
19775TIP3    H180816   0.530   5.776   3.506 -3.6389 -0.8871  0.2814
19775TIP3    H280817   0.557   5.915   3.454 -1.2256 -0.3115  2.8126
19776TIP3   OH280818   3.581   2.726   3.340 -0.2445 -0.1381  0.2011
19776TIP3    H180819   3.583   2.630   3.332  0.9146 -0.1062  0.0155
19776TIP3    H280820   3.499   2.744   3.386 -1.3723 -1.0961 -1.3252
19777TIP3   OH280821   1.922   5.767  15.872  0.0770 -0.1927  0.4293
19777TIP3    H180822   1.861   5.693  15.863 -0.8659  0.6156 -0.0099
19777TIP3    H280823   1.901   5.824  15.799  0.8880  0.4605  0.6907
19778TIP3   OH280824   2.207   0.225   6.039 -0.2831  0.2932 -0.4833
19778TIP3    H180825   2.210   0.165   6.113  0.2893  0.7621 -0.1159
19778TIP3    H280826   2.120   0.211   6.000  0.3491 -1.7387 -1.2459
19779TIP3   OH280827   4.697   0.468   1.379  0.2123 -0.3044  0.1406
19779TIP3    H180828   4.781   0.465   1.425  0.3389 -0.4619 -0.1012
19779TIP3    H280829   4.721   0.477   1.287 -0.0329  1.7993  0.2290
19780TIP3   OH280830   4.679   0.986   4.206 -0.1161 -0.0787 -0.2372
19780TIP3    H180831   4.690   0.891   4.205 -0.5663 -0.1324 -0.1565
19780TIP3    H280832   4.692   1.011   4.297  0.0289 -0.0579 -0.2629
19781TIP3   OH280833   2.558   6.124   6.499  0.0332 -0.9169  0.0303
19781TIP3    H180834   2.642   6.078   6.498  0.4945 -0.1524 -2.4616
19781TIP3    H280835   2.563   6.185   6.426 -0.6060  3.0411  2.9258
19782TIP3   OH280836   5.702   2.200  12.835  0.2205  0.0431 -0.1888
19782TIP3    H180837   5.787   2.241  12.853  1.1055 -1.2927 -1.1557
19782TIP3    H280838   5.687   2.143  12.911 -0.1486  0.8002  0.3086
19783TIP3   OH280839   0.741   0.839  17.170 -0.0943  0.2397 -0.0849
19783TIP3    H180840   0.691   0.908  17.127 -1.5484 -0.0314  1.0965
19783TIP3    H280841   0.817   0.884  17.207 -0.5793  1.0495 -0.0577
19784TIP3   OH280842   3.343   1.075   5.754  0.1949  0.0723  0.0357
19784TIP3    H180843   3.379   1.126   5.827  1.1595  1.1827 -1.1565
19784TIP3    H280844   3.420   1.046   5.704 -0.4505 -0.2241 -0.8204
19785TIP3   OH280845   6.258   0.454   2.943 -0.5496  0.2587  0.0574
19785TIP3    H180846   6.165   0.432   2.947 -0.6505  0.3898 -1.0859
19785TIP3    H280847   6.291   0.440   3.032 -1.0641 -2.4507 -0.0762
19786TIP3   OH280848   0.461   3.009  12.259 -0.7929  0.0350 -0.0381
19786TIP3    H180849   0.539   3.062  12.274  0.1546 -1.1158 -0.7331
19786TIP3    H280850   0.487   2.920  12.282 -1.7288 -0.4591 -0.7994
19787TIP3   OH280851   2.021   5.931   5.422  0.2963 -0.3891 -0.0387
19787TIP3    H180852   1.953   5.951   5.358  0.1007 -1.6894 -0.2676
19787TIP3    H280853   2.091   5.993   5.404 -0.0765 -0.2401 -0.9973
19788TIP3   OH280854   2.348   3.068   0.825  0.1664  0.2619  1.2154
19788TIP3    H180855   2.327   3.148   0.775  1.8459  0.7173  1.1623
19788TIP3    H280856   2.265   3.023   0.834 -0.0845 -1.0070 -3.9623
19789TIP3   OH280857   0.653   0.579   1.870  0.3892  0.2763  0.1984
19789TIP3    H180858   0.590   0.553   1.937 -0.5836  2.0973  0.0687
19789TIP3    H280859   0.702   0.650   1.911 -1.5936  2.8702 -1.5711
19790TIP3   OH280860   4.882   3.008   6.044 -0.1115 -0.1226 -0.3418
19790TIP3    H180861   4.794   2.997   6.008 -0.8950  1.3098  1.0299
19790TIP3    H280862   4.934   3.039   5.970 -0.8877 -0.4508 -1.0415
19791TIP3   OH280863   4.282   1.840   6.211 -0.3038 -0.0432  0.0690
19791TIP3    H180864   4.296   1.777   6.140  2.0595 -0.5650  0.9270
19791TIP3    H280865   4.294   1.926   6.170 -0.7705 -0.2441 -0.5123
19792TIP3   OH280866   1.340   3.533   3.434 -0.0518  1.2186 -0.1737
19792TIP3    H180867   1.288   3.546   3.514  0.6958 -1.0865  0.7664
19792TIP3    H280868   1.319   3.444   3.405  1.2642  1.2529 -1.3544
19793TIP3   OH280869   6.251   4.129   2.037  0.3429  0.3165  1.0117
19793TIP3    H180870   6.304   4.136   1.957 -2.4590 -0.9272 -1.1341
19793TIP3    H280871   6.237   4.219   2.065  1.7658  0.7603  0.3848
19794TIP3   OH280872   0.583   1.394   4.389 -0.7025 -0.3505 -0.1008
19794TIP3    H180873   0.593   1.301   4.371  0.1543  0.1687 -2.6395
19794TIP3    H280874   0.488   1.408   4.392 -0.8396 -1.3121  0.5178
19795TIP3   OH280875   4.287   0.510  14.313  0.1901  0.5235  0.1467
19795TIP3    H180876   4.347   0.543  14.380 -0.9298  0.8957  0.9896
19795TIP3    H280877   4.213   0.570  14.315 -0.6453 -0.4601 -0.2114
19796TIP3   OH280878   6.029   4.537  14.938  0.8282 -0.5421 -0.2476
19796TIP3    H180879   6.002   4.604  15.000  1.3331 -0.8620  0.3307
19796TIP3    H280880   6.043   4.459  14.992 -0.6641 -1.3880 -1.0192
19797TIP3   OH280881   2.620   4.021  13.236  0.1560  0.6257 -0.0174
19797TIP3    H180882   2.592   4.058  13.320 -1.7928  2.4722 -1.3630
19797TIP3    H280883   2.664   4.093  13.192 -0.0861  0.1107 -1.1234
19798TIP3   OH280884   4.673   6.051   1.600 -0.7334 -0.0780  0.7215
19798TIP3    H180885   4.722   6.066   1.681 -2.2433  0.3174  1.6021
19798TIP3    H280886   4.581   6.051   1.627 -1.2009 -2.6012 -0.5729
19799TIP3   OH280887   4.062   6.381   3.156  0.0146  0.2487 -0.0290
19799TIP3    H180888   4.005   6.452   3.186 -0.5132 -0.2473  0.1645
19799TIP3    H280889   4.144   6.394   3.204 -0.8340 -0.5807  1.7501
19800TIP3   OH280890   1.662   4.417  17.186  0.5404 -0.4502  0.2704
19800TIP3    H180891   1.617   4.361  17.123 -0.7467 -0.1150  0.8588
19800TIP3    H280892   1.754   4.417  17.157 -0.0365 -0.1208 -1.7493
19801TIP3   OH280893   3.973   1.480  11.729  0.5378  0.3174 -0.1275
19801TIP3    H180894   3.943   1.571  11.721 -0.2184  0.2003  1.0602
19801TIP3    H280895   4.069   1.487  11.727  0.5406  1.3386  1.5150
19802TIP3   OH280896   4.608   4.747  16.948  0.6756  0.2368  0.0024
19802TIP3    H180897   4.663   4.816  16.984 -0.6527  0.6796  1.2695
19802TIP3    H280898   4.538   4.793  16.902 -0.1221 -0.2277  0.7036
19803TIP3   OH280899   4.583   0.853  11.760 -0.3918  0.0388 -0.6112
19803TIP3    H180900   4.608   0.762  11.773  2.8261  0.5761 -2.0178
19803TIP3    H280901   4.588   0.892  11.847  1.8782 -0.4347 -0.4568
19804TIP3   OH280902   5.916   3.347  14.739 -0.5539 -0.1304 -0.1819
19804TIP3    H180903   5.904   3.394  14.821  0.6369 -0.7483  0.3755
19804TIP3    H280904   5.904   3.255  14.762  1.1107 -0.4352 -0.3882
19805TIP3   OH280905   3.047   5.514   4.887 -0.6297  0.5859  0.1349
19805TIP3    H180906   3.119   5.513   4.823 -0.1410  1.0729  0.6590
19805TIP3    H280907   2.997   5.592   4.865 -0.8102  0.4233 -0.0297
19806TIP3   OH280908   0.674   1.741   0.959  0.2054  0.0252  0.3694
19806TIP3    H180909   0.701   1.649   0.957  0.0205 -0.0813  1.8794
19806TIP3    H280910   0.651   1.760   0.868 -0.8663 -1.7763  0.1882
19807TIP3   OH280911   0.863   2.606  13.991  0.1659  0.2916  0.1662
19807TIP3    H180912   0.928   2.588  13.924  1.2322  2.6453  0.4746
19807TIP3    H280913   0.779   2.589  13.948  0.8632  0.6343 -1.4097
19808TIP3   OH280914   4.157   6.382  14.968  0.1498  0.7156  0.1388
19808TIP3    H180915   4.178   6.475  14.982  1.8404  0.2601  0.7789
19808TIP3    H280916   4.108   6.357  15.047  0.8097  0.7385  0.5582
19809TIP3   OH280917   4.162   4.200   1.042  0.2309 -0.4671  0.4140
19809TIP3    H180918   4.149   4.198   0.947  1.4413 -3.7227  0.1655
19809TIP3    H280919   4.075   4.182   1.078 -0.1575  0.3783 -0.0734
19810TIP3   OH280920   1.554   4.427   5.547  0.0108 -0.4989  0.4297
19810TIP3    H180921   1.485   4.485   5.578  0.1320 -0.0219 -0.1596
19810TIP3    H280922   1.635   4.464   5.581  0.1039 -0.2168 -0.0816
19811TIP3   OH280923   1.524   1.062   3.856 -0.7914  0.0767  0.3415
19811TIP3    H180924   1.610   1.028   3.833  0.4027  0.9530  3.1018
19811TIP3    H280925   1.527   1.154   3.830 -1.6324 -0.3234 -1.2611
19812TIP3   OH280926   6.187   4.690   4.182  0.7900 -0.1994 -0.1063
19812TIP3    H180927   6.096   4.662   4.181  0.3896  0.9894  0.8584
19812TIP3    H280928   6.237   4.608   4.179 -0.3062 -0.8882 -0.1137
19813TIP3   OH280929   4.885   2.079   4.199 -0.1434 -0.1385  0.9187
19813TIP3    H180930   4.897   2.144   4.129 -0.2603 -1.0693  0.0086
19813TIP3    H280931   4.807   2.109   4.245  0.3778  0.9187  1.1624
19814TIP3   OH280932   5.601   0.611   1.341  0.0300 -0.4985 -0.3583
19814TIP3    H180933   5.524   0.636   1.392  0.4006 -1.1896  0.5750
19814TIP3    H280934   5.592   0.658   1.259 -1.7741 -1.1290 -0.5709
19815TIP3   OH280935   4.912   4.158   4.444  0.3722 -0.3523  0.4884
19815TIP3    H180936   4.841   4.176   4.382  0.9763  1.8429  0.3588
19815TIP3    H280937   4.878   4.187   4.529  0.6823 -0.3950  0.6268
19816TIP3   OH280938   4.042   1.882   1.097  0.2345  0.4299 -0.1337
19816TIP3    H180939   4.097   1.917   1.167  0.1944  1.1487 -0.4518
19816TIP3    H280940   3.975   1.949   1.084 -0.2663 -0.0966 -0.2672
19817TIP3   OH280941   2.220   1.810  12.548  0.2575 -0.0276  0.6065
19817TIP3    H180942   2.248   1.851  12.466  0.9963 -1.7133 -0.0325
19817TIP3    H280943   2.284   1.740  12.563 -0.6366 -0.6109  1.9346
19818TIP3   OH280944   5.637   2.095  13.924  0.3986  0.0474  0.1124
19818TIP3    H180945   5.546   2.123  13.937  0.9711  2.6380 -0.9047
19818TIP3    H280946   5.637   2.002  13.949 -2.0431  0.4909  2.2035
19819TIP3   OH280947   1.597   4.849  13.442  0.2710  0.9109  0.5243
19819TIP3    H180948   1.543   4.921  13.409 -0.8616 -0.5385 -0.9087
19819TIP3    H280949   1.537   4.776  13.453  1.6469 -0.2805  0.4649
19820TIP3   OH280950   4.167   3.739   2.499  0.1901  0.3378 -1.1786
19820TIP3    H180951   4.138   3.811   2.444 -1.5378  0.5762 -0.0413
19820TIP3    H280952   4.095   3.676   2.498 -0.1378  0.5676  1.1064
19821TIP3   OH280953   4.859   4.358  16.988 -0.2247 -0.4998 -0.2397
19821TIP3    H180954   4.893   4.399  17.068 -2.1991  0.2540  0.2537
19821TIP3    H280955   4.829   4.432  16.935  0.9295 -1.0046 -1.6646
19822TIP3   OH280956   3.284   2.296   1.913  0.2005  0.8112 -0.0290
19822TIP3    H180957   3.291   2.224   1.975  1.2403  1.2602  0.3919
19822TIP3    H280958   3.339   2.270   1.839  0.5184  1.1329  0.0906
19823TIP3   OH280959   0.103   4.338   5.417  0.9515 -0.1594  0.6197
19823TIP3    H180960   0.088   4.401   5.346 -0.3790 -1.3497 -0.2193
19823TIP3    H280961   0.183   4.368   5.460  0.5024  1.9296  0.0933
19824TIP3   OH280962   2.001   5.484  13.822  0.0822 -0.1923  0.3605
19824TIP3    H180963   2.051   5.445  13.894  2.0709  3.0226  0.9134
19824TIP3    H280964   2.066   5.498  13.752 -0.9008  0.5078 -0.4443
19825TIP3   OH280965   1.787   4.430   0.307 -0.6685 -0.6820  0.1912
19825TIP3    H180966   1.781   4.452   0.400  2.0099  0.6086  0.1625
19825TIP3    H280967   1.759   4.339   0.302 -0.8125 -0.8022  2.2561
19826TIP3   OH280968   1.098   2.417   3.930  0.0055  0.1854 -0.1764
19826TIP3    H180969   1.136   2.505   3.934 -0.3868  0.3862 -0.7720
19826TIP3    H280970   1.147   2.374   3.861  1.5088 -0.7176  1.3684
19827TIP3   OH280971   3.211   6.266  11.364 -0.2045  0.4325 -0.2855
19827TIP3    H180972   3.287   6.236  11.415 -0.5152  0.7962  0.4060
19827TIP3    H280973   3.224   6.361  11.357 -1.2666  0.7127  1.0143
19828TIP3   OH280974   1.040   0.047   1.559  0.2794 -0.2682  0.0340
19828TIP3    H180975   1.046  -0.038   1.603 -2.2670 -0.1825  0.6894
19828TIP3    H280976   1.103   0.102   1.605  1.7751 -1.6984 -0.2180
19829TIP3   OH280977   3.628   4.746   0.968  0.0417 -0.5232 -0.1303
19829TIP3    H180978   3.638   4.815   0.902  1.2066  1.6210  2.1320
19829TIP3    H280979   3.643   4.665   0.920 -0.2197  0.8522 -2.7002
19830TIP3   OH280980   1.866   4.211   2.044 -0.7250  0.2705  0.1692
19830TIP3    H180981   1.926   4.173   1.979  0.2471  2.0925 -0.0742
19830TIP3    H280982   1.853   4.141   2.108  0.5546 -0.6474 -0.5212
19831TIP3   OH280983   5.341   2.524  13.723 -0.3243  0.4817 -0.9030
19831TIP3    H180984   5.340   2.583  13.648  0.9910  0.1151 -1.2332
19831TIP3    H280985   5.268   2.463  13.706 -1.6627  1.9377 -0.5757
19832TIP3   OH280986   0.155   3.710  17.022  0.5466 -0.5461  0.1232
19832TIP3    H180987   0.183   3.731  17.111 -0.3231 -0.8448  0.4775
19832TIP3    H280988   0.191   3.781  16.968 -0.6934  0.8009  1.0043
19833TIP3   OH280989   2.438   0.724   5.268 -0.0932 -0.2839 -0.3449
19833TIP3    H180990   2.429   0.712   5.174  1.0122 -2.8158 -0.2074
19833TIP3    H280991   2.351   0.705   5.303 -0.0078 -1.4627 -0.7250
19834TIP3   OH280992   1.914   3.725  17.249  0.4982 -0.2654 -0.2769
19834TIP3    H180993   1.857   3.758  17.178 -0.5626 -1.6994 -0.1358
19834TIP3    H280994   1.890   3.779  17.325 -0.9847 -1.0613 -0.1296
19835TIP3   OH280995   5.276   5.370   0.851  0.2995 -0.2067  0.5244
19835TIP3    H180996   5.234   5.284   0.859 -2.3510  0.8406 -0.8445
19835TIP3    H280997   5.255   5.414   0.933  1.1584 -0.6226  0.9830
19836TIP3   OH280998   5.723   6.129   3.547  0.0525 -0.5965 -0.4225
19836TIP3    H180999   5.818   6.118   3.542  0.5409  2.9573 -1.8861
19836TIP3    H281000   5.695   6.135   3.455 -1.2705  0.4317  0.0224
19837TIP3   OH281001   6.509   6.081  12.310  0.0240  0.3422  0.0494
19837TIP3    H181002   6.421   6.096  12.275  0.7449  2.4660 -0.9971
19837TIP3    H281003   6.532   5.993  12.281 -1.1193  0.4030 -1.1074
19838TIP3   OH281004   4.934   4.266   3.511 -0.7475  0.0417  0.2303
19838TIP3    H181005   4.940   4.362   3.507 -1.3449  0.0547 -1.5327
19838TIP3    H281006   4.847   4.249   3.547  0.3019  0.0926  2.9706
19839TIP3   OH281007   0.278   2.706   4.858  0.2364 -0.6511  0.4364
19839TIP3    H181008   0.364   2.745   4.870 -0.5812  0.8501  1.7416
19839TIP3    H281009   0.270   2.644   4.930 -0.1872  0.0164  0.9751
19840TIP3   OH281010   6.115   2.092   5.096  0.5806 -0.4808 -0.2427
19840TIP3    H181011   6.153   2.105   5.009  0.9100  0.3035  0.0169
19840TIP3    H281012   6.162   2.152   5.153 -1.1568  0.6903  0.0548
19841TIP3   OH281013   4.300   3.886   4.681 -0.5808 -0.1123 -0.2632
19841TIP3    H181014   4.234   3.937   4.729  1.1540  2.7187 -0.6827
19841TIP3    H281015   4.383   3.909   4.722  0.6430  0.1080 -2.6866
19842TIP3   OH281016   0.743   4.551  16.600  0.4090  0.2806  0.3363
19842TIP3    H181017   0.826   4.569  16.645  2.1999  0.1060 -2.6502
19842TIP3    H281018   0.716   4.636  16.565  0.2208  0.0313 -0.1274
19843TIP3   OH281019   4.538   0.032  13.805 -0.2151  0.2747  0.0628
19843TIP3    H181020   4.520  -0.019  13.884  2.3676  0.5357  0.9202
19843TIP3    H281021   4.470   0.099  13.804 -0.5506  0.0148  1.8334
19844TIP3   OH281022   1.630   6.461   1.577 -0.5147 -0.0394 -0.1176
19844TIP3    H181023   1.691   6.399   1.616  1.2162  1.1304 -0.8361
19844TIP3    H281024   1.586   6.413   1.508 -1.1986 -1.1879  1.0706
19845TIP3   OH281025   3.650   5.627  10.167 -0.5387 -0.5723  0.2935
19845TIP3    H181026   3.693   5.639  10.251  0.5485 -0.7125 -0.2241
19845TIP3    H281027   3.683   5.543  10.135 -0.6623 -0.3546 -0.4267
19846TIP3   OH281028   4.023   0.070  14.356  0.2154  0.4647  0.1520
19846TIP3    H181029   4.037  -0.021  14.331  1.5257  0.7206 -0.1280
19846TIP3    H281030   4.082   0.120  14.299 -1.1977  1.5916 -0.3865
19847TIP3   OH281031   0.156   1.979  16.342 -0.2708 -0.4247 -0.0986
19847TIP3    H181032   0.074   2.016  16.373 -0.3861 -0.9457  0.2263
19847TIP3    H281033   0.159   1.891  16.380  1.2271  0.1800  1.3052
19848TIP3   OH281034   2.940   4.056   2.182  0.1966 -0.5058 -0.7555
19848TIP3    H181035   3.011   3.996   2.158 -0.2908 -0.7537 -1.6182
19848TIP3    H281036   2.984   4.130   2.225  0.8476 -1.2417 -0.1230
19849TIP3   OH281037   2.012   1.497   5.537 -0.1097 -0.6217 -0.1908
19849TIP3    H181038   1.983   1.494   5.446 -2.2837  0.5136  0.4074
19849TIP3    H281039   1.950   1.441   5.584 -1.1335  1.4808  1.0679
19850TIP3   OH281040   5.621   0.552   3.604  0.0284 -0.7685  0.0045
19850TIP3    H181041   5.667   0.521   3.526  1.8333 -1.6284  1.3568
19850TIP3    H281042   5.675   0.623   3.637 -0.5448 -0.6259  0.6544
19851TIP3   OH281043   5.994   0.863  12.752  0.2867 -0.2722 -0.3483
19851TIP3    H181044   5.959   0.848  12.664 -0.0078 -0.3722 -0.2149
19851TIP3    H281045   6.069   0.920  12.739  1.0374 -1.3354 -0.8086
19852TIP3   OH281046   0.539   1.978  12.000  0.0637 -0.1571  0.0862
19852TIP3    H181047   0.467   1.923  11.968  0.8200 -1.1274  0.0282
19852TIP3    H281048   0.514   1.999  12.090 -0.5524 -0.0337 -0.1051
19853TIP3   OH281049   4.021   1.931  13.058  0.2903 -0.1011 -0.1733
19853TIP3    H181050   4.095   1.962  13.006 -1.1408  2.5860 -0.7691
19853TIP3    H281051   3.974   2.010  13.083 -1.3113 -1.5898  1.8773
19854TIP3   OH281052   2.873   3.731   0.163  0.5065  0.2850  0.6709
19854TIP3    H181053   2.842   3.689   0.244  0.7242 -1.8518 -0.2732
19854TIP3    H281054   2.793   3.762   0.120  0.3978  1.5384  1.7075
19855TIP3   OH281055   1.072   6.397  13.861  0.2089 -0.2054  0.1471
19855TIP3    H181056   1.127   6.471  13.836  2.2243 -1.6155  0.0843
19855TIP3    H281057   1.093   6.381  13.953 -1.0008 -0.0827  0.4642
19856TIP3   OH281058   5.700   4.460   1.717 -0.2786  0.5281 -0.0793
19856TIP3    H181059   5.676   4.379   1.761  0.7568  0.3574  0.1998
19856TIP3    H281060   5.794   4.470   1.735 -0.3873  1.7710 -0.1305
19857TIP3   OH281061   5.787   2.174  11.674  0.2033  0.3059  0.1721
19857TIP3    H181062   5.774   2.268  11.669  0.4779  0.2733 -2.0047
19857TIP3    H281063   5.734   2.138  11.603  1.3378 -1.0230 -0.0518
19858TIP3   OH281064   2.952   1.151  16.270  0.0274  0.0711 -0.4718
19858TIP3    H181065   2.961   1.235  16.315  2.3972 -0.2322 -0.2515
19858TIP3    H281066   2.947   1.173  16.177  1.1665  0.4818 -0.4572
19859TIP3   OH281067   6.577   1.881   3.663  0.2027 -0.9714 -0.1770
19859TIP3    H181068   6.646   1.932   3.622 -0.0295 -0.4754  0.0339
19859TIP3    H281069   6.611   1.791   3.666  1.9609 -0.3162  2.2978
19860TIP3   OH281070   0.620   6.803  11.842 -0.5082  0.1567 -0.8556
19860TIP3    H181071   0.542   6.824  11.893 -0.6908 -1.0042 -0.6346
19860TIP3    H281072   0.689   6.858  11.879 -0.3091 -1.6106  1.5718
19861TIP3   OH281073   6.567   0.116   0.291  0.6365  0.0432 -0.1445
19861TIP3    H181074   6.562   0.020   0.290  1.3069 -0.0628 -2.7236
19861TIP3    H281075   6.475   0.144   0.286  0.2296 -0.2968  3.2350
19862TIP3   OH281076   2.640   3.678   2.111 -0.0844  0.2966 -0.2005
19862TIP3    H181077   2.699   3.753   2.115  0.1383  0.1806 -1.0501
19862TIP3    H281078   2.638   3.654   2.018 -1.9978  0.7206 -0.3153
19863TIP3   OH281079   4.783   2.422  15.919  0.7418  0.1865 -0.6810
19863TIP3    H181080   4.799   2.507  15.960  1.2219  0.5843 -1.6581
19863TIP3    H281081   4.702   2.434  15.869  0.9767  0.1724 -1.0691
19864TIP3   OH281082   5.936   5.726   3.553 -0.5437 -0.3802  0.6665
19864TIP3    H181083   5.939   5.817   3.523 -0.0298 -0.5837  0.0961
19864TIP3    H281084   6.028   5.701   3.562 -0.6828 -0.5936  1.5939
19865TIP3   OH281085   1.257   6.571  17.283 -0.1162  0.3606 -0.3739
19865TIP3    H181086   1.352   6.584  17.283 -0.0316 -0.1013  0.9553
19865TIP3    H281087   1.240   6.520  17.204  0.9094 -0.6313  0.0219
19866TIP3   OH281088   2.364   6.343  11.892 -0.1960 -0.7372 -0.2126
19866TIP3    H181089   2.378   6.346  11.797 -1.0669 -1.0281 -0.3637
19866TIP3    H281090   2.303   6.270  11.904  0.4546 -1.1595  0.6470
19867TIP3   OH281091   2.180   1.824   3.451  0.4720 -0.7463 -0.1971
19867TIP3    H181092   2.276   1.823   3.460  0.4590  0.4342  0.1842
19867TIP3    H281093   2.153   1.736   3.476  1.3196 -0.5983  1.3724
19868TIP3   OH281094   2.138   4.408  16.667  0.1174  0.6843  0.7099
19868TIP3    H181095   2.187   4.328  16.681  0.5470  0.8969  0.4448
19868TIP3    H281096   2.085   4.391  16.588  0.3399  0.7213  0.5523
19869TIP3   OH281097   2.660   5.153   3.616  0.1414  0.1564 -0.0145
19869TIP3    H181098   2.750   5.170   3.646 -0.2850  0.3682  1.1769
19869TIP3    H281099   2.605   5.189   3.685 -0.8939  1.0011 -1.2346
19870TIP3   OH281100   4.169   5.491   5.712  0.1884  0.0189  0.2027
19870TIP3    H181101   4.146   5.485   5.805 -1.0943 -0.8088 -0.1466
19870TIP3    H281102   4.092   5.458   5.666  0.9201  0.1439 -1.1559
19871TIP3   OH281103   2.064   5.233  16.464 -0.2347 -0.1305 -0.0344
19871TIP3    H181104   2.063   5.256  16.556  1.6091 -1.7788  0.4700
19871TIP3    H281105   1.991   5.281  16.426  0.4703  2.5919  1.7685
19872TIP3   OH281106   0.608   6.035   2.795  0.1886 -0.2821  0.2194
19872TIP3    H181107   0.578   5.962   2.741  0.6745  0.2107 -0.7458
19872TIP3    H281108   0.642   5.993   2.875 -1.5167 -0.9475  0.6386
19873TIP3   OH281109   1.683   5.532  14.525  0.0609  0.0140 -0.0425
19873TIP3    H181110   1.674   5.603  14.461 -1.2795 -1.9043 -2.1350
19873TIP3    H281111   1.691   5.577  14.610  1.8541  2.6708 -1.4817
19874TIP3   OH281112   2.943   4.458  15.466 -0.5441  0.0666  0.6156
19874TIP3    H181113   2.960   4.498  15.551 -1.9129  1.0418  0.4584
19874TIP3    H281114   2.971   4.524  15.402  0.8656 -0.8230  0.2737
19875TIP3   OH281115   5.681   1.133   1.785  0.0423  0.2759  0.3032
19875TIP3    H181116   5.765   1.129   1.739 -0.8046  0.7193 -1.3676
19875TIP3    H281117   5.623   1.075   1.735 -0.4197 -0.8082  2.0060
19876TIP3   OH281118   0.788   3.728  16.993  0.6711 -0.7542 -0.2382
19876TIP3    H181119   0.757   3.792  16.929 -1.0127 -0.7827  0.4903
19876TIP3    H281120   0.827   3.658  16.941 -1.0754 -0.9976 -1.2936
19877TIP3   OH281121   6.691   3.752   4.410 -0.6277  0.0178 -0.2409
19877TIP3    H181122   6.680   3.838   4.369  0.3720  0.4631  0.3814
19877TIP3    H281123   6.742   3.702   4.346 -0.1701  0.2927 -0.0998
19878TIP3   OH281124   6.748   0.752   0.528  0.1966  0.8176 -0.5273
19878TIP3    H181125   6.773   0.669   0.569 -1.8986  0.9953  1.3221
19878TIP3    H281126   6.742   0.814   0.601 -1.8855  1.6430 -1.3191
19879TIP3   OH281127   5.657   4.242  12.638 -0.5372  0.2284  0.8098
19879TIP3    H181128   5.599   4.258  12.564 -2.9027 -0.5098  2.3998
19879TIP3    H281129   5.608   4.271  12.715  2.4497  2.4846  2.0646
19880TIP3   OH281130   0.890   2.965  16.254 -0.3969  0.3011 -0.2918
19880TIP3    H181131   0.942   2.897  16.298  1.2971  2.2228  0.8106
19880TIP3    H281132   0.803   2.958  16.295  0.1995 -0.1709  0.9455
19881TIP3   OH281133   6.661   3.789  11.685 -0.0784  0.7595  0.1517
19881TIP3    H181134   6.752   3.760  11.681 -0.5386 -0.5987 -1.5542
19881TIP3    H281135   6.633   3.794  11.593 -1.2264  2.8686  0.5400
19882TIP3   OH281136   2.448   5.136   6.116 -0.2670  0.2503 -0.1633
19882TIP3    H181137   2.385   5.208   6.120  0.8321  1.3224 -1.3602
19882TIP3    H281138   2.503   5.156   6.041  0.7044 -1.3369  0.0776
19883TIP3   OH281139   0.989   1.808   1.125 -0.2656  0.1222  0.5069
19883TIP3    H181140   0.907   1.775   1.087 -0.0490  0.4937 -0.3206
19883TIP3    H281141   0.970   1.899   1.145  0.5323  0.8203 -1.6284
19884TIP3   OH281142   2.414   3.974  12.778  0.1253 -0.2194 -0.0168
19884TIP3    H181143   2.380   4.061  12.758 -0.5515 -0.2250  1.0243
19884TIP3    H281144   2.379   3.954  12.865  1.6187 -0.8492  0.4693
19885TIP3   OH281145   2.617   1.148  11.718  0.3174 -0.7997  0.7292
19885TIP3    H181146   2.703   1.188  11.726 -0.0564  0.1316  0.2431
19885TIP3    H281147   2.632   1.055  11.735  1.2802 -0.5329  1.4152
19886TIP3   OH281148   4.672   6.476  13.318 -0.5081  0.0691 -0.0200
19886TIP3    H181149   4.728   6.506  13.246 -0.8866  1.6031  0.2813
19886TIP3    H281150   4.718   6.402  13.356  0.7336  0.5554 -0.5351
19887TIP3   OH281151   6.476   1.102  14.687 -0.0289 -0.0931 -0.7012
19887TIP3    H181152   6.565   1.128  14.665  0.4144 -1.7803 -1.0271
19887TIP3    H281153   6.484   1.049  14.766 -0.4408 -1.9225 -1.8089
19888TIP3   OH281154   6.170   5.280   4.158  0.3831 -0.1678 -0.4226
19888TIP3    H181155   6.121   5.256   4.236 -0.7145  1.3059 -0.6200
19888TIP3    H281156   6.258   5.300   4.190 -0.0217  0.3025  0.4102
19889TIP3   OH281157   3.332   3.498   5.170 -0.2830  0.0203 -0.5637
19889TIP3    H181158   3.357   3.442   5.096  0.8280  0.9709 -0.9332
19889TIP3    H281159   3.318   3.436   5.242  2.9173 -0.6898 -0.3934
19890TIP3   OH281160   2.200   4.969  16.986 -0.1321  0.0248 -0.8070
19890TIP3    H181161   2.166   5.029  17.052 -1.8502 -1.7408  0.0398
19890TIP3    H281162   2.291   4.954  17.011 -0.2080  0.8521  0.0232
19891TIP3   OH281163   2.528   5.704   5.218  0.2916 -0.2286  0.3199
19891TIP3    H181164   2.593   5.636   5.201  0.2779 -0.0028 -0.6778
19891TIP3    H281165   2.530   5.716   5.313  1.9985  0.0624  0.2688
19892TIP3   OH281166   2.424   2.733  14.214 -0.3397  0.4120  0.8550
19892TIP3    H181167   2.442   2.645  14.181  0.7128 -0.0702  2.5737
19892TIP3    H281168   2.334   2.751  14.185 -0.5337 -1.1612  0.3531
19893TIP3   OH281169   2.180   3.972   4.062 -0.0022  0.0705 -0.1399
19893TIP3    H181170   2.207   4.056   4.096 -0.5527  0.0140  0.4571
19893TIP3    H281171   2.238   3.956   3.987 -1.1233  1.8547 -1.4720
19894TIP3   OH281172   0.909   4.215  14.351 -0.6834 -0.4778  0.4433
19894TIP3    H181173   0.927   4.251  14.438  1.6921 -1.3659  0.3895
19894TIP3    H281174   0.871   4.129  14.368  0.8394 -1.1441  0.6794
19895TIP3   OH281175   3.107   3.792   2.898  0.1028 -0.4828  0.5439
19895TIP3    H181176   3.039   3.735   2.865 -0.6224  0.7213 -0.1014
19895TIP3    H281177   3.077   3.881   2.879  1.6182  0.1074  0.6793
19896TIP3   OH281178   0.418   2.596  15.221 -0.0036 -0.3336  0.2515
19896TIP3    H181179   0.438   2.588  15.314  3.0707  2.2026 -0.0372
19896TIP3    H281180   0.340   2.651  15.217 -0.5998 -1.0718  1.2919
19897TIP3   OH281181   6.401   2.490  16.277 -0.5154  0.2415  0.3324
19897TIP3    H181182   6.485   2.530  16.253 -0.6771  0.6271  0.4089
19897TIP3    H281183   6.354   2.482  16.194 -0.0096 -0.9032  0.1423
19898TIP3   OH281184   5.063   4.507   4.490 -0.4675 -0.3023 -0.7874
19898TIP3    H181185   5.095   4.422   4.462  1.4428 -0.8197  2.4722
19898TIP3    H281186   5.055   4.558   4.409  0.9807 -2.7046 -2.5668
19899TIP3   OH281187   5.729   3.033  14.614  0.4890 -0.7456  0.2244
19899TIP3    H181188   5.652   3.061  14.563  0.5881 -0.8054  0.0418
19899TIP3    H281189   5.708   2.944  14.642 -0.6535  0.1538  2.4161
19900TIP3   OH281190   6.663   3.299   3.115 -0.2466  0.3909  0.1571
19900TIP3    H181191   6.611   3.244   3.173 -0.9454 -0.0991 -0.8958
19900TIP3    H281192   6.599   3.349   3.065  0.3121  0.3793 -0.5944
19901TIP3   OH281193   5.146   5.316   5.349 -0.7634 -0.2658  0.4852
19901TIP3    H181194   5.101   5.356   5.275 -0.5552  0.0460  0.5255
19901TIP3    H281195   5.137   5.381   5.420  1.4080  0.6869 -0.0379
19902TIP3   OH281196   0.086   4.006  16.440 -0.4467  0.5885 -0.2342
19902TIP3    H181197   0.085   4.056  16.358 -0.2946  0.0825 -0.5429
19902TIP3    H281198   0.017   4.047  16.493 -1.9011 -0.3273 -1.3654
19903TIP3   OH281199   1.438   4.856  16.808 -0.6645 -0.3926 -0.6148
19903TIP3    H181200   1.490   4.786  16.848 -1.4231 -0.4845  0.2387
19903TIP3    H281201   1.369   4.810  16.761 -1.5873 -0.2326  0.5334
19904TIP3   OH281202   6.537   3.263   3.481  0.5331  0.0491  0.1542
19904TIP3    H181203   6.530   3.317   3.559 -1.1004 -1.4536  1.1272
19904TIP3    H281204   6.612   3.206   3.498 -0.4747 -1.0285  1.1822
19905TIP3   OH281205   3.095   5.183   2.166  0.3803 -0.1199  0.4167
19905TIP3    H181206   3.069   5.093   2.150  1.3434  0.0243 -2.5337
19905TIP3    H281207   3.020   5.236   2.139  1.1367  0.0384 -1.5232
19906TIP3   OH281208   2.207   2.329   3.631  0.6937 -0.2570 -0.3385
19906TIP3    H181209   2.296   2.301   3.651  0.9066 -0.1590 -1.1121
19906TIP3    H281210   2.178   2.374   3.710  1.6852  0.5697 -0.4164
19907TIP3   OH281211   1.568   3.157  12.398 -0.5445  0.0385 -0.3177
19907TIP3    H181212   1.488   3.169  12.347 -0.1231 -0.9175 -1.2274
19907TIP3    H281213   1.577   3.062  12.407 -0.5338  0.1636  1.4456
19908TIP3   OH281214   2.255   4.509  13.718  0.3290  0.5731 -0.2516
19908TIP3    H181215   2.314   4.496  13.792 -0.1081  1.4909  0.2759
19908TIP3    H281216   2.168   4.499  13.755  0.0457 -3.1476 -1.4463
19909TIP3   OH281217   5.491   2.575  11.566 -0.3043 -0.7140 -0.2247
19909TIP3    H181218   5.586   2.579  11.554 -0.1627 -1.0186  0.7116
19909TIP3    H281219   5.479   2.531  11.650 -1.2011  1.7627  1.0484
19910TIP3   OH281220   5.916   4.651   4.474  0.4918  0.4719 -0.3173
19910TIP3    H181221   6.008   4.626   4.479  0.9529  2.2451  0.6445
19910TIP3    H281222   5.902   4.710   4.548 -1.6186 -0.2877 -0.0071
19911TIP3   OH281223   2.641   2.898   5.180 -0.0372 -0.0543 -0.7214
19911TIP3    H181224   2.647   2.908   5.275 -0.1741 -1.0170 -0.5961
19911TIP3    H281225   2.558   2.852   5.166  1.6488 -3.3327 -0.9628
19912TIP3   OH281226   3.905   3.146  13.895  0.2876  0.1096 -0.2947
19912TIP3    H181227   3.936   3.215  13.836 -0.8520 -0.8191 -2.0791
19912TIP3    H281228   3.836   3.187  13.947  1.3631  0.9658  0.5038
19913TIP3   OH281229   2.220   6.079  13.385 -0.0372 -0.1236 -0.5940
19913TIP3    H181230   2.162   6.008  13.413  1.5133 -1.0766  0.3601
19913TIP3    H281231   2.161   6.153  13.369 -1.7907 -1.7249 -2.1502
19914TIP3   OH281232   3.339   1.747  12.436 -0.0462 -0.3855 -0.1194
19914TIP3    H181233   3.286   1.684  12.387 -0.7396  0.3228 -0.3058
19914TIP3    H281234   3.343   1.824  12.380  2.1102 -0.7780 -0.5971
19915TIP3   OH281235   4.247   1.397   4.830 -0.1729  0.2326  0.3013
19915TIP3    H181236   4.336   1.419   4.856  0.2173 -1.8164  0.9059
19915TIP3    H281237   4.237   1.434   4.743  1.9306 -1.0203 -0.5294
19916TIP3   OH281238   4.373   2.022  17.094 -0.5764 -0.2999 -0.0689
19916TIP3    H181239   4.361   1.927  17.090  1.5771 -0.6374  0.1049
19916TIP3    H281240   4.396   2.047  17.005  0.3101 -0.1964  0.1797
19917TIP3   OH281241   6.405   6.608   1.950  0.0057 -0.0126  0.1614
19917TIP3    H181242   6.447   6.527   1.976  2.0730  0.8520 -0.2819
19917TIP3    H281243   6.368   6.590   1.864 -0.8528 -0.8856  0.6991
19918TIP3   OH281244   1.363   4.951  14.326 -0.3310  0.8179 -0.0933
19918TIP3    H181245   1.301   5.016  14.291 -1.2257  0.3184  0.5140
19918TIP3    H281246   1.418   4.928  14.251 -1.6964  0.3594 -0.9996
19919TIP3   OH281247   5.230   4.378  11.925 -0.2021  0.3646  0.3972
19919TIP3    H181248   5.207   4.406  12.013 -0.6902 -3.5102  1.6700
19919TIP3    H281249   5.326   4.375  11.925 -0.2198 -0.8117  1.2787
19920TIP3   OH281250   4.778   1.509  11.769  0.0866  0.5357  0.3316
19920TIP3    H181251   4.817   1.451  11.704 -1.4346  0.4811 -0.5891
19920TIP3    H281252   4.684   1.507  11.749 -0.4155  0.6459  2.4265
19921TIP3   OH281253   4.576   3.864   1.861  0.5385 -0.0116  0.2022
19921TIP3    H181254   4.629   3.908   1.795 -0.9664  0.0834 -1.0103
19921TIP3    H281255   4.590   3.915   1.941  2.4520 -0.1717  0.0228
19922TIP3   OH281256   4.941   2.610   3.052  0.2155  0.3310 -0.3863
19922TIP3    H181257   4.998   2.635   2.980 -1.3214  3.2243 -0.7618
19922TIP3    H281258   4.862   2.577   3.009 -0.6106  1.8416 -0.1200
19923TIP3   OH281259   5.169   5.799   4.396  0.3726 -0.1877  0.3591
19923TIP3    H181260   5.124   5.884   4.399  1.1902  0.3149 -1.0680
19923TIP3    H281261   5.104   5.739   4.360  0.5393  0.3586 -0.8994
19924TIP3   OH281262   5.075   0.640   2.944 -0.4331  0.1181 -0.3887
19924TIP3    H181263   5.104   0.726   2.974  0.8967 -0.2622 -0.5059
19924TIP3    H281264   4.992   0.657   2.898  0.0944  1.4169 -0.9113
19925TIP3   OH281265   3.962   6.505   0.581  0.5309 -0.4968  0.6069
19925TIP3    H181266   4.056   6.506   0.595  0.9011  0.4824 -1.4832
19925TIP3    H281267   3.931   6.587   0.618  1.4860  2.0576 -3.6459
19926TIP3   OH281268   3.008   6.327  17.209 -0.2538 -0.2885 -0.0716
19926TIP3    H181269   2.992   6.368  17.294  1.5715 -0.4210  0.3783
19926TIP3    H281270   3.009   6.233  17.227  1.4524 -0.2798  0.0606
19927TIP3   OH281271   2.142   0.214   4.578  0.0934 -0.6439 -0.5287
19927TIP3    H181272   2.181   0.267   4.647  1.1952 -0.8554 -0.9755
19927TIP3    H281273   2.146   0.270   4.500 -1.1437 -0.4033 -0.4405
19928TIP3   OH281274   2.518   5.681  14.399 -0.3382  0.1397  0.4499
19928TIP3    H181275   2.600   5.658  14.444 -0.2951  1.2735  0.9820
19928TIP3    H281276   2.465   5.724  14.466 -2.4973 -2.8525  0.8956
19929TIP3   OH281277   5.711   5.585  15.165  0.8565 -0.2756  0.1611
19929TIP3    H181278   5.660   5.538  15.098  0.3469  0.7677 -0.2055
19929TIP3    H281279   5.649   5.598  15.237  1.5631 -1.9024  1.1184
19930TIP3   OH281280   2.499   6.196  10.369 -0.0395 -0.4770 -0.7155
19930TIP3    H181281   2.517   6.201  10.276  1.0105  0.2231 -0.4953
19930TIP3    H281282   2.551   6.267  10.408 -0.0266 -1.0928  0.4540
19931TIP3   OH281283   3.591   0.961   4.952  0.1478 -0.6949 -0.6090
19931TIP3    H181284   3.573   1.052   4.926 -2.2238 -0.9275  0.0051
19931TIP3    H281285   3.567   0.958   5.045 -0.2007 -2.0318 -0.7237
19932TIP3   OH281286   0.120   5.816   1.686  0.0949  0.3342 -0.0554
19932TIP3    H181287   0.077   5.891   1.726  0.3630  1.6040 -1.9913
19932TIP3    H281288   0.049   5.760   1.656 -0.1066 -0.5918  1.9906
19933TIP3   OH281289   2.600   4.737  14.114 -0.1989  0.0746  0.6509
19933TIP3    H181290   2.650   4.750  14.194 -0.4059 -1.4907  1.0848
19933TIP3    H281291   2.512   4.769  14.135  0.4733  2.6012 -0.0348
19934TIP3   OH281292   3.395   2.539  16.298 -0.0845  0.4367 -0.3785
19934TIP3    H181293   3.306   2.512  16.322  0.4418 -1.0966 -0.0322
19934TIP3    H281294   3.446   2.527  16.378  0.6621  0.1645 -0.8825
19935TIP3   OH281295   6.516   1.905  14.649 -0.2268 -0.4263  0.4968
19935TIP3    H181296   6.528   1.829  14.593  2.1942 -0.2590  0.7037
19935TIP3    H281297   6.520   1.869  14.738 -1.3937 -0.3330  0.6013
19936TIP3   OH281298   4.962   2.164   1.795 -0.3483 -0.4281 -0.2987
19936TIP3    H181299   4.961   2.082   1.845  0.0543 -0.2146  0.0661
19936TIP3    H281300   5.046   2.162   1.748 -0.3052 -0.1860 -0.2299
19937TIP3   OH281301   3.137   3.129   4.773  0.7422  0.2224  0.2394
19937TIP3    H181302   3.051   3.087   4.779  1.7821 -1.9405  0.9242
19937TIP3    H281303   3.143   3.158   4.681 -0.5857  0.1659  0.1177
19938TIP3   OH281304   6.794   5.585  12.718 -0.5232 -0.0853  0.0224
19938TIP3    H181305   6.794   5.654  12.652 -0.6515  0.8553  0.9873
19938TIP3    H281306   6.831   5.625  12.796  0.3661 -1.4063  0.3222
19939TIP3   OH281307   1.626   2.443  14.668 -1.1919  0.0655 -0.0584
19939TIP3    H181308   1.708   2.487  14.687 -0.7211 -1.5276  2.0800
19939TIP3    H281309   1.627   2.428  14.574  0.4345  1.0833 -0.2344
19940TIP3   OH281310   3.842   2.309  12.596 -0.1893  0.8245  0.5362
19940TIP3    H181311   3.776   2.376  12.610  0.5980  1.8084 -0.2938
19940TIP3    H281312   3.814   2.235  12.650 -1.6393  1.4279  0.6379
19941TIP3   OH281313   5.847   5.280   5.866 -0.8118  0.2126  0.1090
19941TIP3    H181314   5.900   5.349   5.825 -1.3788  0.0252 -0.9856
19941TIP3    H281315   5.868   5.286   5.959 -0.7120  1.7469  0.0163
19942TIP3   OH281316   0.360   5.661  15.675  0.0109 -0.3154 -0.0145
19942TIP3    H181317   0.454   5.667  15.687  0.0252  0.0702 -0.3022
19942TIP3    H281318   0.328   5.750  15.688 -0.4525 -0.6352  1.1883
19943TIP3   OH281319   5.111   1.733  16.309  0.5033  0.1231  0.4688
19943TIP3    H181320   5.025   1.694  16.323  0.5505  0.0144  0.4605
19943TIP3    H281321   5.100   1.825  16.332  0.4913  0.0190  0.8744
19944TIP3   OH281322   4.245   3.560   1.291 -0.6031  0.2241  0.7202
19944TIP3    H181323   4.166   3.512   1.265 -0.0460 -0.2216 -0.2213
19944TIP3    H281324   4.248   3.552   1.386 -1.5641  0.0485  0.7444
19945TIP3   OH281325   5.036   3.277  14.432  0.1593 -0.1179  0.4171
19945TIP3    H181326   5.053   3.358  14.481 -0.2035 -0.1228  0.5530
19945TIP3    H281327   4.941   3.265  14.439 -0.0101  0.2827 -0.8897
19946TIP3   OH281328   0.482   3.992   2.490 -0.1389 -0.0570  0.3612
19946TIP3    H181329   0.400   4.018   2.447  1.2636  2.3672 -1.0721
19946TIP3    H281330   0.480   4.036   2.575 -0.2983  0.0534  0.3001
19947TIP3   OH281331   5.311   4.300   2.465 -0.1214  0.3125  0.2287
19947TIP3    H181332   5.236   4.297   2.525  1.2761 -1.0793  2.0503
19947TIP3    H281333   5.336   4.392   2.462 -0.7625  0.5266  1.0948
19948TIP3   OH281334   2.513   3.640   0.062 -0.6298  0.0177 -0.4437
19948TIP3    H181335   2.528   3.548   0.083 -0.2592  0.1000 -0.3431
19948TIP3    H281336   2.443   3.667   0.122 -0.7272 -0.1891 -0.4611
19949TIP3   OH281337   3.419   0.955  11.590  0.0138  0.2503  0.2948
19949TIP3    H181338   3.472   1.034  11.595 -0.8071  0.7266  2.8334
19949TIP3    H281339   3.455   0.897  11.656 -2.4031  0.5124  1.9846
19950TIP3   OH281340   2.932   5.953  13.487  0.1980  0.0865  0.4113
19950TIP3    H181341   2.861   5.952  13.422 -0.9747 -2.5281  1.5901
19950TIP3    H281342   2.888   5.960  13.571  1.4090 -0.5429  1.1306
19951TIP3   OH281343   1.416   2.863   4.766 -0.0003 -0.0527 -0.1082
19951TIP3    H181344   1.376   2.783   4.732 -0.8580  0.5283 -0.5040
19951TIP3    H281345   1.392   2.865   4.858  0.9069 -0.7659  0.1689
19952TIP3   OH281346   5.051   3.983   3.202  0.3462  0.1306 -0.0955
19952TIP3    H181347   5.001   3.969   3.122  1.6561 -1.2607 -0.7130
19952TIP3    H281348   5.123   4.040   3.177  1.0877 -0.7728 -0.0633
19953TIP3   OH281349   5.269   3.240  16.686 -0.0738 -0.0880 -0.6083
19953TIP3    H181350   5.281   3.196  16.602  1.7936 -0.0407 -0.3984
19953TIP3    H281351   5.248   3.169  16.747  3.8154 -1.0121 -0.0770
19954TIP3   OH281352   6.146   4.050  16.670  0.6741  0.2269 -0.2067
19954TIP3    H181353   6.219   4.078  16.615  1.5740  0.5078  1.0826
19954TIP3    H281354   6.104   4.132  16.698 -0.7078  0.0544 -1.6250
19955TIP3   OH281355   1.723   6.714  11.807 -0.3867 -0.1509  0.5387
19955TIP3    H181356   1.644   6.660  11.799  0.0701 -1.0165  1.6265
19955TIP3    H281357   1.790   6.655  11.840  0.5409  0.7407  0.3124
19956TIP3   OH281358   3.059   4.211  17.016  0.0850  0.1453 -0.3445
19956TIP3    H181359   3.124   4.153  16.978 -0.6967 -0.1652 -1.2467
19956TIP3    H281360   3.015   4.252  16.941 -0.8362  0.2573  0.2310
19957TIP3   OH281361   5.123   5.160   0.136 -0.2815 -0.3973  0.0225
19957TIP3    H181362   5.084   5.115   0.212 -1.0112 -0.9593 -0.6721
19957TIP3    H281363   5.203   5.110   0.119  1.8887  1.8644  2.6107
19958TIP3   OH281364   0.412   3.770  12.390  0.0188 -0.4294  0.6843
19958TIP3    H181365   0.363   3.705  12.339 -2.2554  1.5697  0.1562
19958TIP3    H281366   0.406   3.737  12.480 -1.2164 -0.9281  0.4548
19959TIP3   OH281367   5.345   0.475   2.925  0.3070 -0.4866 -0.4646
19959TIP3    H181368   5.286   0.550   2.926  1.4707  0.4428 -0.2573
19959TIP3    H281369   5.286   0.399   2.927 -0.8500  0.3935  1.2886
19960TIP3   OH281370   5.532   0.768  16.574  0.2652 -0.2701  0.2979
19960TIP3    H181371   5.545   0.674  16.568 -0.5515 -0.3959  0.4554
19960TIP3    H281372   5.437   0.780  16.581  0.4499  0.4261  2.4680
19961TIP3   OH281373   4.389   6.351   0.362  0.1296  0.3891  0.2621
19961TIP3    H181374   4.394   6.294   0.285 -0.5913  0.8321 -0.1198
19961TIP3    H281375   4.341   6.301   0.427  0.5617  0.0931  0.3558
19962TIP3   OH281376   4.609   3.769  11.638  0.4928  0.1001  0.2539
19962TIP3    H181377   4.651   3.840  11.589 -0.2924  0.4041  0.0046
19962TIP3    H281378   4.627   3.691  11.585 -1.9918  0.6785 -1.6791
19963TIP3   OH281379   1.526   6.388  12.685 -0.9604 -0.5696 -0.0516
19963TIP3    H181380   1.547   6.403  12.778 -1.2675 -1.4624  0.1704
19963TIP3    H281381   1.575   6.456  12.639 -1.7182  0.6486  0.8379
19964TIP3   OH281382   0.372   6.393  14.848 -0.1879 -0.4323 -0.0383
19964TIP3    H181383   0.334   6.357  14.768 -2.0069 -0.9658  1.0176
19964TIP3    H281384   0.365   6.488  14.838 -1.6392 -0.5110  0.0168
19965TIP3   OH281385   0.364   6.027   2.084 -0.4851  0.0514  0.2504
19965TIP3    H181386   0.396   6.091   2.021  0.4724  0.4782  1.1319
19965TIP3    H281387   0.311   5.966   2.033 -0.1596  0.6793 -0.8579
19966TIP3   OH281388   0.924   5.900  13.183  0.2189 -0.1491 -0.5861
19966TIP3    H181389   1.017   5.882  13.176  0.4552  1.1830 -1.1212
19966TIP3    H281390   0.903   5.884  13.276  1.1545  0.3232 -0.2851
19967TIP3   OH281391   0.246   4.508   4.996 -0.0862 -0.3849 -0.1649
19967TIP3    H181392   0.310   4.438   5.002  1.1688  0.7877  1.1468
19967TIP3    H281393   0.271   4.569   5.066 -1.7208  0.8698 -0.6023
19968TIP3   OH281394   3.027   6.379  16.918  0.1357  0.0714 -0.1911
19968TIP3    H181395   2.976   6.448  16.876  1.7288  1.3757 -0.0973
19968TIP3    H281396   2.989   6.369  17.005  0.1060  1.1121 -0.0786
19969TIP3   OH281397   6.552   5.953  15.040  0.5562  0.1577  0.2873
19969TIP3    H181398   6.634   5.932  15.086  0.4325 -0.9604  0.0070
19969TIP3    H281399   6.581   5.994  14.958  0.8862 -1.1549 -0.2784
19970TIP3   OH281400   6.151   0.518  13.172  0.1022 -0.0696 -0.3001
19970TIP3    H181401   6.072   0.529  13.119  0.7039 -1.4469 -1.5469
19970TIP3    H281402   6.136   0.436  13.220 -0.2627  0.9526  1.4176
19971TIP3   OH281403   5.056   2.432   1.568 -0.0319  0.1354  0.5884
19971TIP3    H181404   5.080   2.347   1.532 -1.8591 -0.4849  0.6961
19971TIP3    H281405   5.097   2.495   1.510 -0.3258 -0.8391 -0.7196
19972TIP3   OH281406   4.212   6.128   5.365 -0.2502  0.4770 -0.2509
19972TIP3    H181407   4.199   6.034   5.356 -0.4770  0.6597 -2.1935
19972TIP3    H281408   4.162   6.152   5.443  0.2765 -1.0744  0.5993
19973TIP3   OH281409   1.163   4.922  15.436 -0.5222 -0.1461 -0.4285
19973TIP3    H181410   1.143   4.942  15.528 -0.9683 -1.5782 -0.1765
19973TIP3    H281411   1.258   4.930  15.431 -0.6652  2.2101 -0.4617
19974TIP3   OH281412   4.821   2.572   1.431 -0.0521 -0.7025 -0.2931
19974TIP3    H181413   4.865   2.640   1.379  0.0964 -0.8132 -0.3148
19974TIP3    H281414   4.891   2.534   1.484  0.0204 -1.3515 -0.8309
19975TIP3   OH281415   2.153   1.908  13.822  0.1207 -0.2703  0.1832
19975TIP3    H181416   2.057   1.899  13.824 -0.0363  1.0619  0.0287
19975TIP3    H281417   2.170   1.989  13.871  0.7751  1.9030 -3.2499
19976TIP3   OH281418   1.621   3.286  15.501 -0.5798  0.4116  0.0539
19976TIP3    H181419   1.670   3.366  15.485  0.0146 -0.1374 -1.0957
19976TIP3    H281420   1.681   3.216  15.473 -0.7544 -0.4985  1.8169
19977TIP3   OH281421   4.092   2.951   0.113 -0.2256 -0.8210 -0.1367
19977TIP3    H181422   4.150   3.014   0.070  0.4498 -0.2482  1.5309
19977TIP3    H281423   4.061   2.997   0.192 -0.4514 -2.2444  0.6300
19978TIP3   OH281424   3.388   5.641  17.107  0.1128 -0.1022  0.1374
19978TIP3    H181425   3.294   5.651  17.091 -0.1776 -0.5093  1.4498
19978TIP3    H281426   3.400   5.546  17.115  0.9529 -0.1911 -1.6698
19979TIP3   OH281427   6.671   1.587  11.271  0.1547 -0.5745 -0.3282
19979TIP3    H181428   6.679   1.509  11.326 -1.0182  0.1389  0.9092
19979TIP3    H281429   6.600   1.567  11.211  0.2068 -0.6589 -0.3618
19980TIP3   OH281430   2.222   1.014   6.169  0.4526  1.0989 -0.4073
19980TIP3    H181431   2.251   1.036   6.258 -1.1931 -0.3955  0.5632
19980TIP3    H281432   2.127   1.025   6.172  0.3070  0.3517 -1.7852
19981TIP3   OH281433   6.078   5.628   4.307  0.3484  0.1985 -0.0854
19981TIP3    H181434   6.029   5.600   4.384 -2.5483 -2.2120 -2.5276
19981TIP3    H281435   6.031   5.705   4.275  1.8709  1.5328  0.7718
19982TIP3   OH281436   4.140   6.397  11.897 -0.0924 -0.1667 -0.4296
19982TIP3    H181437   4.130   6.476  11.950 -0.8963  0.3559 -1.3274
19982TIP3    H281438   4.101   6.420  11.813  0.6534 -1.1620 -1.0662
19983TIP3   OH281439   0.138   2.021  15.518  0.6488 -0.2470  0.8648
19983TIP3    H181440   0.218   1.983  15.555  1.3578  0.3959  0.0207
19983TIP3    H281441   0.168   2.098  15.470 -0.8331  1.9291  3.1995
19984TIP3   OH281442   3.201   4.247   2.776 -0.4465  0.2466 -0.3744
19984TIP3    H181443   3.145   4.196   2.835  0.8995 -2.7350 -1.5106
19984TIP3    H281444   3.147   4.262   2.699 -1.4849  2.3518  0.6484
19985TIP3   OH281445   0.872   6.706  11.482 -0.0940  0.2289  0.0562
19985TIP3    H181446   0.842   6.617  11.500 -2.7067  0.6717 -1.4768
19985TIP3    H281447   0.940   6.723  11.547  0.5629 -2.8757  0.3451
19986TIP3   OH281448   4.710   5.423  15.878 -0.0683 -0.3314 -0.0888
19986TIP3    H181449   4.791   5.373  15.866  0.9082  1.0832  0.2426
19986TIP3    H281450   4.675   5.434  15.789  0.4409 -0.4480 -0.3088
19987TIP3   OH281451   3.962   0.373   2.037  0.2408 -0.1157 -0.0639
19987TIP3    H181452   4.050   0.370   1.999  0.4485 -3.2357  0.3291
19987TIP3    H281453   3.970   0.427   2.115  1.7209 -0.0313 -0.2592
19988TIP3   OH281454   0.532   0.622  13.437  0.3621 -0.4251 -0.3629
19988TIP3    H181455   0.480   0.601  13.359  1.1850 -0.4869 -0.9011
19988TIP3    H281456   0.494   0.566  13.505 -0.8490  0.1708 -0.5189
19989TIP3   OH281457   0.742   1.913  12.556  1.2858 -0.2094  0.2046
19989TIP3    H181458   0.657   1.898  12.596  1.1719 -1.0285 -0.3323
19989TIP3    H281459   0.766   2.002  12.584 -0.7522  0.9408 -1.4648
19990TIP3   OH281460   2.195   1.003  16.008  0.1445  0.2250 -0.0929
19990TIP3    H181461   2.240   0.956  16.079 -0.9353  2.9764  2.6130
19990TIP3    H281462   2.244   1.084  15.997 -0.3757  0.3593 -1.7891
19991TIP3   OH281463   2.421   1.099   3.641 -0.1390 -0.1516 -0.6746
19991TIP3    H181464   2.481   1.173   3.638 -0.0238 -0.1726  0.4951
19991TIP3    H281465   2.340   1.134   3.678 -0.6935 -0.2311 -1.7845
19992TIP3   OH281466   5.953   3.197  12.218 -0.3731  0.3439  0.4877
19992TIP3    H181467   5.875   3.154  12.255 -0.8709 -0.5407 -1.4825
19992TIP3    H281468   5.921   3.242  12.140  1.0473  0.1491 -0.2393
19993TIP3   OH281469   2.950   0.468  14.750  0.2250  0.2242  0.5192
19993TIP3    H181470   3.029   0.433  14.710 -0.4310  0.3702 -0.9721
19993TIP3    H281471   2.884   0.463  14.681 -0.5852  1.8330  1.1203
19994TIP3   OH281472   6.487   3.458  12.093  0.3232  0.6510  0.3694
19994TIP3    H181473   6.581   3.453  12.110  0.4152 -1.0562 -0.4731
19994TIP3    H281474   6.467   3.380  12.042 -1.6532  0.7324  0.9335
19995TIP3   OH281475   6.092   0.899   2.397 -0.1110 -0.1835  0.4498
19995TIP3    H181476   6.065   0.847   2.474  0.4166  1.2048  1.6176
19995TIP3    H281477   6.032   0.973   2.396 -0.2993 -0.3437 -0.6874
19996TIP3   OH281478   6.424   2.340  11.441  0.7346 -0.4004 -0.2195
19996TIP3    H181479   6.406   2.384  11.358  1.6276  1.0848  0.3391
19996TIP3    H281480   6.517   2.318  11.437  0.4331 -1.7367 -0.2369
19997TIP3   OH281481   0.147   0.325  13.537  0.2060  0.4598 -0.1507
19997TIP3    H181482   0.108   0.407  13.567 -0.6422  0.3405 -0.8574
19997TIP3    H281483   0.118   0.260  13.601 -2.0786  0.0969 -1.4075
19998TIP3   OH281484   0.481   2.626  14.509 -0.4555  0.1490 -0.3008
19998TIP3    H181485   0.557   2.630  14.450  0.8133  1.6805  1.3441
19998TIP3    H281486   0.410   2.665  14.458  0.1761 -0.0900 -1.4120
19999TIP3   OH281487   5.375   2.897  13.323 -0.0136 -0.0049 -0.4981
19999TIP3    H181488   5.416   2.911  13.237  0.2552  0.7997 -0.2522
19999TIP3    H281489   5.449   2.891  13.383 -0.1558 -1.6419 -0.4491
20000TIP3   OH281490   6.531   1.642   4.574  0.0260 -0.4586 -0.1902
20000TIP3    H181491   6.466   1.587   4.618  0.1469 -0.1528  0.3778
20000TIP3    H281492   6.493   1.730   4.574 -0.0127 -0.4703 -0.7849
20001TIP3   OH281493   4.457   1.655  12.279  0.2875 -0.0852  0.4995
20001TIP3    H181494   4.500   1.736  12.305 -1.9032  0.4904  2.7927
20001TIP3    H281495   4.366   1.681  12.261  0.2651 -1.5532 -1.9910
20002TIP3   OH281496   6.599   6.434  15.456  0.3049 -0.1103  0.4229
20002TIP3    H181497   6.647   6.415  15.375 -0.5179 -0.5905  0.0387
20002TIP3    H281498   6.649   6.389  15.524  0.2006 -0.9493 -0.0312
20003TIP3   OH281499   1.684   5.769  16.145 -0.1280  0.2466 -0.2687
20003TIP3    H181500   1.719   5.842  16.093  1.9907  0.0363  0.7451
20003TIP3    H281501   1.613   5.808  16.196 -0.2908  1.1393 -1.1468
20004TIP3   OH281502   6.271   4.057  16.148 -0.2104  1.1341 -0.3972
20004TIP3    H181503   6.176   4.058  16.138  0.0061  1.0830 -3.2402
20004TIP3    H281504   6.298   4.148  16.133  0.1485  1.5056  2.0194
20005TIP3   OH281505   4.856   2.250  12.495 -0.1271 -0.0891 -0.0759
20005TIP3    H181506   4.873   2.228  12.586  0.0858  0.3402 -0.0102
20005TIP3    H281507   4.761   2.264  12.491 -0.2128 -0.6274 -0.0393
20006TIP3   OH281508   2.852   5.258  15.534  0.3865  0.4184 -0.5182
20006TIP3    H181509   2.807   5.202  15.471 -0.0711  0.5277 -0.2902
20006TIP3    H281510   2.838   5.347  15.501 -0.8283  0.5686  0.3332
20007TIP3   OH281511   0.962   0.180  10.671  0.8146  0.3248 -0.5539
20007TIP3    H181512   0.977   0.268  10.706 -0.4154 -0.2502  1.6258
20007TIP3    H281513   0.919   0.133  10.742 -1.2902 -1.1739 -2.6479
20008TIP3   OH281514   5.794   6.675  13.691  0.9476  0.1279 -0.0732
20008TIP3    H181515   5.719   6.735  13.699  0.1944 -0.8044  0.0286
20008TIP3    H281516   5.793   6.625  13.773  1.6980  0.1075 -0.0683
20009TIP3   OH281517   1.518   3.173  14.246 -0.7507  0.0379 -0.6978
20009TIP3    H181518   1.585   3.105  14.250 -0.9056 -0.1645 -1.4610
20009TIP3    H281519   1.539   3.232  14.319 -1.2146 -1.3648  0.6375
20010TIP3   OH281520   1.206   4.643   2.497  0.0523 -0.2696 -0.3131
20010TIP3    H181521   1.116   4.628   2.527  0.3510  0.1656  0.8580
20010TIP3    H281522   1.233   4.723   2.541  0.1112  1.1741 -2.7676
20011TIP3   OH281523   2.752   3.910  12.990  0.2004  0.2624 -0.1810
20011TIP3    H181524   2.835   3.945  12.956  0.2250  0.3967  0.0180
20011TIP3    H281525   2.685   3.945  12.931  0.4725 -1.5480 -1.6321
20012TIP3   OH281526   5.755   0.928  16.884  0.0442 -0.0225 -0.0055
20012TIP3    H181527   5.847   0.926  16.859  0.0513 -0.1531  0.0334
20012TIP3    H281528   5.731   0.837  16.898 -0.1659 -0.0122 -0.2796
20013TIP3   OH281529   6.303   2.060   2.182 -0.2692 -0.6784  0.0357
20013TIP3    H181530   6.297   2.037   2.089  2.4224  0.6288 -0.5649
20013TIP3    H281531   6.360   1.994   2.219 -1.4712 -1.2921  0.8543
20014TIP3   OH281532   2.886   4.647   0.913  0.8993 -0.3202 -0.6292
20014TIP3    H181533   2.876   4.685   0.826  3.1255  0.0083 -0.8159
20014TIP3    H281534   2.901   4.722   0.970 -1.0609 -0.4898  0.1713
20015TIP3   OH281535   6.150   0.785   3.942 -0.5215  0.4513  0.4533
20015TIP3    H181536   6.216   0.729   3.982  0.5142  1.1322 -0.2566
20015TIP3    H281537   6.155   0.867   3.991 -0.3886  0.7277 -0.0201
20016TIP3   OH281538   5.433   0.368  15.817  0.2005  0.2298  0.0333
20016TIP3    H181539   5.477   0.283  15.820  0.8071  0.4671 -1.3281
20016TIP3    H281540   5.358   0.353  15.759  0.3068  0.6055 -0.2045
20017TIP3   OH281541   2.847   3.581  16.243  0.7398  0.7624  0.5627
20017TIP3    H181542   2.759   3.552  16.269  0.6935 -0.8125 -1.1476
20017TIP3    H281543   2.905   3.550  16.313  0.3786 -1.5069 -0.0706
20018TIP3   OH281544   2.434   6.501  12.081 -0.2647 -0.5378 -0.8195
20018TIP3    H181545   2.518   6.464  12.107  0.0838  0.0066 -1.1526
20018TIP3    H281546   2.406   6.448  12.007 -0.9059 -1.6229  0.1639
20019TIP3   OH281547   3.348   2.246  16.834  0.4804 -0.4458 -0.0379
20019TIP3    H181548   3.407   2.174  16.859  2.0275 -0.2205 -2.6529
20019TIP3    H281549   3.327   2.289  16.917  2.0835 -1.9977  1.2688
20020TIP3   OH281550   3.176   1.268  12.150  0.0242  0.4207  0.7750
20020TIP3    H181551   3.109   1.228  12.206  0.6705 -0.7582  0.7292
20020TIP3    H281552   3.130   1.339  12.105 -1.1861 -0.3289  0.7761
20021TIP3   OH281553   0.587   0.031   4.239  0.1659  0.7240  0.0957
20021TIP3    H181554   0.654   0.089   4.203  1.8884 -2.4124 -2.1656
20021TIP3    H281555   0.627  -0.006   4.318  1.0067 -0.7710 -0.9838
20022TIP3   OH281556   3.135   3.248  14.654 -0.0266 -0.1423  0.1111
20022TIP3    H181557   3.178   3.286  14.577 -0.2449 -0.5659 -0.2251
20022TIP3    H281558   3.204   3.238  14.718  0.2765 -0.3459 -0.2454
20023TIP3   OH281559   0.258   2.758  13.290 -0.0374 -0.0200  0.1708
20023TIP3    H181560   0.222   2.670  13.299  0.8410 -0.2888  1.2834
20023TIP3    H281561   0.205   2.812  13.349 -0.6162  0.2221 -0.5580
20024TIP3   OH281562   0.325   3.218   4.452  0.8108 -0.4755 -0.2649
20024TIP3    H181563   0.294   3.182   4.536  0.1493  1.8760  0.5656
20024TIP3    H281564   0.420   3.214   4.458  0.7717 -0.0669  0.7192
20025TIP3   OH281565   6.093   1.801   6.011 -0.3610  0.5341 -0.1640
20025TIP3    H181566   6.053   1.714   6.003  1.6166 -0.2787 -2.7267
20025TIP3    H281567   6.019   1.862   6.001 -1.3653 -0.8901 -2.5279
20026TIP3   OH281568   1.518   0.085   3.007 -0.3655  0.1265  0.1365
20026TIP3    H181569   1.453   0.155   3.005 -0.9981 -0.3962 -2.9198
20026TIP3    H281570   1.474   0.012   3.050 -1.6584 -0.0516 -1.4187
20027TIP3   OH281571   4.270   6.040   2.475 -0.2745  0.0010 -0.1013
20027TIP3    H181572   4.308   5.985   2.406 -1.1744 -0.9401  0.1377
20027TIP3    H281573   4.178   6.013   2.479 -0.7588  1.5486  0.0004
20028TIP3   OH281574   0.725   5.599  15.851 -0.6227 -0.3335 -0.4862
20028TIP3    H181575   0.643   5.626  15.892  0.3754  1.2963  0.5594
20028TIP3    H281576   0.781   5.677  15.856  0.4186 -0.8601 -2.7258
20029TIP3   OH281577   1.975   0.919  14.107 -0.3381  0.7445 -0.6102
20029TIP3    H181578   2.031   0.945  14.180 -1.7321  0.7454  0.4944
20029TIP3    H281579   1.982   0.824  14.105  0.7933  0.8320 -1.3912
20030TIP3   OH281580   3.600   4.466   4.385  0.1039  0.1380  0.1441
20030TIP3    H181581   3.513   4.453   4.421 -0.7036  1.0015 -1.3963
20030TIP3    H281582   3.634   4.377   4.371 -0.7904 -0.2176  0.1691
20031TIP3   OH281583   5.192   4.754  12.931 -0.1410 -0.2137  0.8652
20031TIP3    H181584   5.272   4.709  12.956  0.3149 -0.7453 -1.2968
20031TIP3    H281585   5.156   4.789  13.013  1.0589 -1.9512  2.1881
20032TIP3   OH281586   6.126   4.287  14.784  0.2163  0.1115  0.2788
20032TIP3    H181587   6.035   4.310  14.801  0.6445  1.9156  0.4405
20032TIP3    H281588   6.167   4.285  14.871  0.2987 -0.8847  0.2233
20033TIP3   OH281589   5.915   4.050  12.983 -0.8379  0.2854  0.0927
20033TIP3    H181590   5.895   4.044  13.077  0.2798 -1.3788  0.2671
20033TIP3    H281591   5.834   4.024  12.940 -0.6246 -1.4846  0.6804
20034TIP3   OH281592   6.051   5.122  11.330 -0.3758  0.3194 -0.2135
20034TIP3    H181593   6.079   5.059  11.264 -0.7083 -0.1245  0.0716
20034TIP3    H281594   6.128   5.134  11.386 -0.3515  0.0786 -0.1961
20035TIP3   OH281595   1.379   6.066   0.372  0.3608 -0.6108 -0.3126
20035TIP3    H181596   1.302   6.106   0.332  0.2228  0.3904  0.8955
20035TIP3    H281597   1.355   5.973   0.380 -1.3869 -0.0845  1.4215
20036TIP3   OH281598   1.116   3.974   4.375 -0.2062 -0.3342 -0.2405
20036TIP3    H181599   1.120   3.891   4.328  0.6417 -1.3295  1.4719
20036TIP3    H281600   1.066   3.955   4.454 -1.5792  1.2802 -0.6649
20037TIP3   OH281601   5.882   6.162  11.356 -0.5196  1.0472  0.0709
20037TIP3    H181602   5.960   6.116  11.326 -0.5132 -0.2091  1.8573
20037TIP3    H281603   5.870   6.233  11.293 -0.0516 -0.8820 -2.3392
20038TIP3   OH281604   1.119   6.735  10.976  0.3730 -0.5266  0.0639
20038TIP3    H181605   1.182   6.787  10.926 -1.5391 -0.3817 -2.3735
20038TIP3    H281606   1.170   6.660  11.007  1.5696 -1.0613 -2.8190
20039TIP3   OH281607   5.229   1.493  15.020 -0.0688 -0.1451  0.7119
20039TIP3    H181608   5.231   1.565  14.958 -0.1103 -0.9557 -0.2541
20039TIP3    H281609   5.300   1.512  15.082  1.2224 -0.2728 -0.6759
20040TIP3   OH281610   2.127   1.329   2.745 -0.0037 -0.1748  0.0896
20040TIP3    H181611   2.202   1.269   2.744 -0.4320 -0.7447 -1.8539
20040TIP3    H281612   2.059   1.284   2.695 -1.3691  0.7079  1.0807
20041TIP3   OH281613   1.624   4.504  12.287 -0.5058  0.5234 -0.5496
20041TIP3    H181614   1.711   4.525  12.321 -0.2604 -0.2686 -0.6735
20041TIP3    H281615   1.581   4.457  12.358 -0.1997 -0.6290 -1.1134
20042TIP3   OH281616   0.666   6.712  13.768 -0.6218  0.6565 -0.2526
20042TIP3    H181617   0.641   6.793  13.725 -0.6187  0.7844 -0.0181
20042TIP3    H281618   0.602   6.702  13.839 -0.7097  0.3790 -0.3702
20043TIP3   OH281619   5.081   1.001  14.961  0.3742  0.2036 -0.1092
20043TIP3    H181620   5.069   1.060  15.035  0.5085  1.1225 -0.8097
20043TIP3    H281621   4.998   1.003  14.914  0.4636  0.0394 -0.2791
20044TIP3   OH281622   5.696   4.550  14.906 -0.0743  0.4833  0.8146
20044TIP3    H181623   5.638   4.619  14.872  0.1885 -1.0839 -3.5457
20044TIP3    H281624   5.784   4.578  14.879  0.5351  0.1714  2.3903
20045TIP3   OH281625   0.206   3.468  14.893 -0.0695  0.2640  0.2615
20045TIP3    H181626   0.213   3.465  14.989  1.4176  2.4766  0.2986
20045TIP3    H281627   0.116   3.439  14.875 -0.9377  1.3253  2.4726
20046TIP3   OH281628   5.688   2.798  16.783 -0.2904  0.1469  0.4652
20046TIP3    H181629   5.674   2.879  16.734  0.9174  1.1450  1.7006
20046TIP3    H281630   5.775   2.808  16.822 -0.4751 -1.3745  1.3544
20047TIP3   OH281631   0.020   0.069   5.829  0.2926 -0.2722 -0.1919
20047TIP3    H181632   0.009   0.062   5.924 -0.2758  2.2658 -0.0088
20047TIP3    H281633   0.114   0.084   5.817  0.3324 -0.3783 -0.0222
20048TIP3   OH281634   0.533   4.846  14.764 -0.1016  0.2896 -0.4407
20048TIP3    H181635   0.445   4.815  14.787 -0.5577  0.6294 -1.6697
20048TIP3    H281636   0.520   4.903  14.689  1.2621 -0.3319 -1.1982
20049TIP3   OH281637   2.718   3.862  11.970 -0.6633 -0.2390  0.0470
20049TIP3    H181638   2.789   3.892  11.913 -0.8341 -0.0973 -0.0918
20049TIP3    H281639   2.739   3.771  11.989 -0.1432 -0.0347  0.4655
20050TIP3   OH281640   3.790   3.948  16.954 -0.0771  0.0511  0.0161
20050TIP3    H181641   3.878   3.947  16.993 -0.5063 -0.5598  1.0136
20050TIP3    H281642   3.797   3.891  16.878 -0.3020 -2.4371  1.7537
20051TIP3   OH281643   5.485   0.225   1.958  0.1253 -0.4987 -0.0802
20051TIP3    H181644   5.503   0.172   1.880 -0.8393  2.4471 -2.5474
20051TIP3    H281645   5.543   0.301   1.949 -0.0321 -0.0686  2.1202
20052TIP3   OH281646   6.274   1.909   6.184 -0.0777 -0.1577  0.0374
20052TIP3    H181647   6.332   1.917   6.109  1.1038 -0.2103  0.9035
20052TIP3    H281648   6.190   1.879   6.148  0.4723 -0.2147 -1.2284
20053TIP3   OH281649   2.513   1.268   1.080  0.4834 -0.2500 -0.3885
20053TIP3    H181650   2.453   1.330   1.039 -1.0242 -2.4239 -1.6461
20053TIP3    H281651   2.593   1.274   1.027  1.2051  2.1064  0.8347
20054TIP3   OH281652   5.878   2.895   0.164  0.4643 -0.0753  0.3051
20054TIP3    H181653   5.793   2.926   0.195 -0.4996 -1.6849 -0.5914
20054TIP3    H281654   5.942   2.935   0.223 -0.9532  0.7843  1.2913
20055TIP3   OH281655   1.291   1.517   4.951  0.0909  0.4811 -0.2920
20055TIP3    H181656   1.217   1.525   4.891 -0.2819 -0.2602  0.0591
20055TIP3    H281657   1.361   1.481   4.897 -0.7556 -1.8801  0.0649
20056TIP3   OH281658   1.405   4.827  13.137 -0.5585  0.3935  0.5881
20056TIP3    H181659   1.343   4.830  13.065 -0.1020 -1.4962  0.0589
20056TIP3    H281660   1.382   4.902  13.192 -2.4683  0.4737 -0.2470
20057TIP3   OH281661   0.040   6.375  13.153 -0.2540  0.2557 -0.2943
20057TIP3    H181662   0.088   6.305  13.198 -3.3766 -0.0412  2.9682
20057TIP3    H281663   0.081   6.456  13.185 -0.9930 -0.0186  1.4693
20058TIP3   OH281664   5.530   5.290   1.876  0.4288  0.1364  0.1645
20058TIP3    H181665   5.572   5.352   1.816 -1.0437  0.2169 -0.8186
20058TIP3    H281666   5.469   5.343   1.927 -0.8864 -0.4894 -0.7214
20059TIP3   OH281667   3.925   0.731   0.982  0.1127 -0.2478  0.1941
20059TIP3    H181668   3.841   0.752   1.023  0.0595  1.0040 -0.5099
20059TIP3    H281669   3.987   0.729   1.055 -0.3646 -0.2650  0.6074
20060TIP3   OH281670   1.553   3.393   5.708 -0.5060 -0.3369 -0.4863
20060TIP3    H181671   1.606   3.468   5.681 -0.5335  0.2936  1.1060
20060TIP3    H281672   1.531   3.411   5.800 -1.3479 -1.8198 -0.3686
20061TIP3   OH281673   3.936   2.038  15.332 -0.5110  0.3229 -0.1014
20061TIP3    H181674   3.844   2.057  15.312 -1.3015 -1.2539  1.7967
20061TIP3    H281675   3.981   2.051  15.249 -2.0883  3.0735 -0.6603
20062TIP3   OH281676   0.959   0.131  12.230 -0.0526  0.1074  0.0361
20062TIP3    H181677   0.869   0.103  12.247  0.3624 -0.0035  2.3275
20062TIP3    H281678   0.983   0.182  12.307  0.8202  2.8822 -1.9195
20063TIP3   OH281679   4.469   3.369  12.146 -0.5085  0.0604  0.2221
20063TIP3    H181680   4.510   3.287  12.173  0.4803  0.6857  0.6785
20063TIP3    H281681   4.386   3.370  12.192 -1.0447 -1.1836 -0.6382
20064TIP3   OH281682   2.783   2.383  11.734 -0.4501 -0.1097  0.0795
20064TIP3    H181683   2.846   2.389  11.663 -1.2824 -0.4505 -0.7132
20064TIP3    H281684   2.702   2.419  11.698 -0.4116  1.5401  1.4919
20065TIP3   OH281685   5.192   0.196   2.076 -0.4052  0.0501  0.0843
20065TIP3    H181686   5.150   0.282   2.077  0.2038  0.4103  2.5276
20065TIP3    H281687   5.282   0.213   2.050 -0.5072  0.0256 -0.2827
20066TIP3   OH281688   6.769   5.725  13.920 -0.0453  0.2108  0.3885
20066TIP3    H181689   6.744   5.811  13.954 -2.9104 -0.5948  0.5927
20066TIP3    H281690   6.766   5.735  13.825 -0.5477  0.3153  0.4099
20067TIP3   OH281691   1.081   4.472  16.929  0.7940  0.7126  0.0280
20067TIP3    H181692   1.093   4.478  17.024  0.1700  0.2427  0.1467
20067TIP3    H281693   1.000   4.521  16.912  0.7076  0.4912 -0.2085
20068TIP3   OH281694   0.430   2.693  16.223 -0.2089  0.0755  0.1754
20068TIP3    H181695   0.526   2.687  16.219 -0.2228 -1.0971  1.0583
20068TIP3    H281696   0.406   2.641  16.300 -1.5390  0.6434  0.1738
20069TIP3   OH281697   6.536   1.443   0.269 -0.3038  1.1391  0.1288
20069TIP3    H181698   6.572   1.531   0.257 -1.0991  1.3938 -0.4944
20069TIP3    H281699   6.583   1.388   0.207 -1.8165  1.7229 -1.6366
20070TIP3   OH281700   6.514   5.098   3.691 -0.0322  0.0844  0.2418
20070TIP3    H181701   6.487   5.180   3.649 -2.2403 -1.4547 -1.5913
20070TIP3    H281702   6.527   5.037   3.618  0.4144 -1.5250  1.6115
20071TIP3   OH281703   1.344   1.778   0.888 -0.2226  0.0617  0.1627
20071TIP3    H181704   1.402   1.705   0.910 -0.3151  0.0914  0.5131
20071TIP3    H281705   1.381   1.814   0.807  1.0752  0.9494  1.1067
20072TIP3   OH281706   2.552   4.191   0.844 -0.3121 -0.4806  0.1912
20072TIP3    H181707   2.538   4.280   0.877  4.0997  0.0408  1.2782
20072TIP3    H281708   2.542   4.135   0.921 -0.4064 -0.5581  0.1215
20073TIP3   OH281709   4.658   5.079  14.243  0.6097 -0.1155 -0.0189
20073TIP3    H181710   4.721   5.030  14.190  0.1525 -1.8815  0.9872
20073TIP3    H281711   4.627   5.016  14.308 -0.1875  1.4736  1.2152
20074TIP3   OH281712   4.305   3.463   2.697  0.0116 -0.1479 -0.1574
20074TIP3    H181713   4.218   3.497   2.719 -0.8222 -1.3231 -1.4641
20074TIP3    H281714   4.312   3.475   2.603  0.9755 -0.7302 -0.1712
20075TIP3   OH281715   2.717   0.119   5.515 -0.1623  0.3721  0.2218
20075TIP3    H181716   2.763   0.099   5.433 -0.9935 -0.1248 -0.1357
20075TIP3    H281717   2.787   0.122   5.580  0.2526 -2.2450  0.0360
20076TIP3   OH281718   2.293   2.259   1.614  0.3440  0.0868 -0.3478
20076TIP3    H181719   2.203   2.259   1.582  0.7399  0.2557 -1.5010
20076TIP3    H281720   2.343   2.304   1.546  1.2654  0.2190  0.3959
20077TIP3   OH281721   2.978   5.544  12.413  0.1586  0.2952 -0.1083
20077TIP3    H181722   2.956   5.498  12.494  2.0411  1.4706  1.1630
20077TIP3    H281723   3.059   5.591  12.433  0.9337  0.3009 -2.8409
20078TIP3   OH281724   0.792   6.417  13.623 -0.3046 -0.6897  0.3923
20078TIP3    H181725   0.887   6.431  13.625 -0.5360  0.9762  0.9467
20078TIP3    H281726   0.763   6.440  13.711 -1.3626 -0.0508 -0.1094
20079TIP3   OH281727   2.279   1.497   5.268  0.1596 -0.1013  0.3490
20079TIP3    H181728   2.266   1.443   5.190  1.4515 -2.2339  1.5225
20079TIP3    H281729   2.201   1.481   5.321  1.3744 -2.5313  1.5721
20080TIP3   OH281730   3.612   0.733   1.078 -0.0885  0.1445 -0.3249
20080TIP3    H181731   3.539   0.706   1.134  0.3007 -0.7675 -0.2403
20080TIP3    H281732   3.604   0.828   1.072 -0.8316  0.1301  0.3107
20081TIP3   OH281733   6.190   3.170   4.469  0.2118 -0.4859  0.4932
20081TIP3    H181734   6.164   3.102   4.531  0.2559 -0.9531  0.0105
20081TIP3    H281735   6.279   3.146   4.443  1.1294  1.0232  2.0223
20082TIP3   OH281736   5.099   2.584   5.220 -0.0354  0.4877  0.1447
20082TIP3    H181737   5.033   2.539   5.273  1.7177 -0.4738  1.6257
20082TIP3    H281738   5.180   2.576   5.270  0.8304  3.4674 -0.5975
20083TIP3   OH281739   6.314   4.738   4.811  0.0593  0.7490 -0.2210
20083TIP3    H181740   6.285   4.803   4.747 -2.2908 -0.3654 -0.4226
20083TIP3    H281741   6.324   4.787   4.892  1.3854  1.8773 -1.0214
20084TIP3   OH281742   0.157   2.804  10.559  0.3198 -0.5600  0.3877
20084TIP3    H181743   0.119   2.839  10.639 -0.9027 -2.8220  0.8871
20084TIP3    H281744   0.084   2.764  10.512  0.5814  2.3226 -2.9426
20085TIP3   OH281745   6.803   0.756   4.926 -0.6137 -0.1218  0.3168
20085TIP3    H181746   6.837   0.750   5.015  1.9398 -0.1354 -0.5830
20085TIP3    H281747   6.835   0.677   4.882  0.9199  1.3547 -1.4117
20086TIP3   OH281748   5.076   1.962  14.198  0.5501 -0.4245 -0.3151
20086TIP3    H181749   4.996   1.933  14.154  1.3914  0.8278 -2.8506
20086TIP3    H281750   5.138   1.890  14.183  0.9697  0.1956 -1.6199
20087TIP3   OH281751   2.418   0.025  11.376  0.2433  0.4432 -0.0691
20087TIP3    H181752   2.418   0.121  11.382  0.5857  0.6122 -2.1543
20087TIP3    H281753   2.461  -0.004  11.457  0.4417  2.0513  0.4361
20088TIP3   OH281754   4.848   3.076   4.390 -0.0430  0.7704 -0.5065
20088TIP3    H181755   4.788   3.133   4.437 -0.1910  0.1203  0.1127
20088TIP3    H281756   4.931   3.084   4.438 -0.6226 -1.1775  0.9576
20089TIP3   OH281757   3.249   2.791   4.691 -0.5891 -0.6522  0.2200
20089TIP3    H181758   3.254   2.809   4.597 -0.8487 -2.3899 -0.1578
20089TIP3    H281759   3.160   2.813   4.715 -0.2010  0.8971  0.3270
20090TIP3   OH281760   4.499   1.738  13.385 -0.3432 -0.4679 -0.0630
20090TIP3    H181761   4.589   1.710  13.372 -0.4130 -1.0338  0.5579
20090TIP3    H281762   4.447   1.660  13.367 -0.6856 -0.2255 -0.1348
20091TIP3   OH281763   2.347   2.199  11.636  0.0304 -0.2996  1.0144
20091TIP3    H181764   2.317   2.288  11.655  1.3383  0.5144 -0.4245
20091TIP3    H281765   2.435   2.211  11.600 -0.2434 -2.0591 -0.3938
20092TIP3   OH281766   1.994   1.061   1.667 -0.9697  0.7680 -0.0950
20092TIP3    H181767   2.005   1.015   1.751 -0.0219  1.8288  0.3882
20092TIP3    H281768   1.903   1.042   1.642 -1.5079  1.0020  1.5211
20093TIP3   OH281769   0.400   0.992   0.479 -0.2253  0.5695 -0.4060
20093TIP3    H181770   0.316   0.946   0.479 -0.4217  0.8908  1.0646
20093TIP3    H281771   0.454   0.943   0.417 -1.1051 -0.3867 -0.4412
20094TIP3   OH281772   3.840   4.703  14.437 -0.3786  0.0477  0.0246
20094TIP3    H181773   3.919   4.652  14.419  0.2543 -0.3949  3.3862
20094TIP3    H281774   3.849   4.731  14.529 -3.2495  1.6143 -0.0278
20095TIP3   OH281775   2.831   0.245  16.731  0.3360  0.0613 -0.3144
20095TIP3    H181776   2.786   0.325  16.703 -1.4385 -1.3664 -1.8117
20095TIP3    H281777   2.906   0.237  16.673  1.1013  1.1328  0.5015
20096TIP3   OH281778   2.628   0.373  15.291  0.0281  0.1632 -0.4511
20096TIP3    H181779   2.583   0.445  15.247 -1.2171  0.4287  1.1703
20096TIP3    H281780   2.594   0.294  15.249  0.2876  0.4616 -1.2321
20097TIP3   OH281781   3.244   2.199  12.346 -0.7701 -0.3252  0.0432
20097TIP3    H181782   3.260   2.289  12.374  0.4730  0.4840 -2.9003
20097TIP3    H281783   3.242   2.148  12.428  1.6818  1.8833  1.6235
20098TIP3   OH281784   1.711   6.649  11.053 -0.4664  0.1707  0.0175
20098TIP3    H181785   1.659   6.672  10.976  2.3712  0.5094 -1.9535
20098TIP3    H281786   1.764   6.727  11.069  0.3692 -0.6076  1.1429
20099TIP3   OH281787   1.669   1.221   5.248  0.0248  0.0984  0.4982
20099TIP3    H181788   1.637   1.220   5.338 -2.2120 -1.1957 -0.2205
20099TIP3    H281789   1.758   1.185   5.253  0.1023  0.4589  2.2046
20100TIP3   OH281790   3.956   3.963  15.648  0.3047 -0.1624  0.4798
20100TIP3    H181791   4.031   3.971  15.589  0.4472  2.1312  0.8571
20100TIP3    H281792   3.968   3.879  15.692  1.6043 -0.7104 -0.8336
20101TIP3   OH281793   4.556   1.654  16.983  0.4135 -0.3250 -0.0980
20101TIP3    H181794   4.576   1.723  16.921 -2.8006  1.5531  0.7232
20101TIP3    H281795   4.620   1.666  17.054  1.5821  0.0292 -1.1679
20102TIP3   OH281796   3.223   3.928   2.168  0.3295  0.1335  0.2411
20102TIP3    H181797   3.245   3.842   2.135 -0.5291 -0.0245  0.0758
20102TIP3    H281798   3.223   3.918   2.264  1.4068  0.2488  0.2614
20103TIP3   OH281799   5.235   2.113   3.443  0.0140 -0.1938  0.3741
20103TIP3    H181800   5.300   2.183   3.455 -0.4168  0.2624  0.0700
20103TIP3    H281801   5.164   2.135   3.504 -1.2295  0.9878 -1.4055
20104TIP3   OH281802   3.939   2.015  12.156  0.8532  0.4938 -0.0906
20104TIP3    H181803   3.921   2.078  12.226  0.4120  1.8133 -1.3473
20104TIP3    H281804   3.942   1.930  12.201 -1.2568  1.0661  1.2841
20105TIP3   OH281805   1.458   4.198  11.113 -0.0216  0.2294 -0.4676
20105TIP3    H181806   1.373   4.210  11.156  0.7498  0.7154  0.9945
20105TIP3    H281807   1.444   4.229  11.024 -2.0801 -2.1714 -1.0943
20106TIP3   OH281808   6.416   4.943   0.277 -0.0890  0.5057 -0.3364
20106TIP3    H181809   6.479   4.959   0.207 -1.5991 -0.0608 -1.8714
20106TIP3    H281810   6.364   4.869   0.247 -0.4059 -0.1426  1.6605
20107TIP3   OH281811   2.462   0.646   2.685  0.1108  0.3931  0.1147
20107TIP3    H181812   2.404   0.686   2.620 -1.7708 -1.1909  0.7247
20107TIP3    H281813   2.544   0.631   2.638 -0.0623  2.3150 -0.9088
20108TIP3   OH281814   5.782   2.653  12.552 -0.2465  0.5638  0.5337
20108TIP3    H181815   5.719   2.609  12.496  1.3543  0.7089 -1.5166
20108TIP3    H281816   5.849   2.587  12.569  0.4098  1.1806  0.3817
20109TIP3   OH281817   0.271   2.695  17.270 -0.3767 -0.5277 -0.6195
20109TIP3    H181818   0.283   2.666  17.179 -0.6498 -0.8587 -0.5496
20109TIP3    H281819   0.357   2.682  17.311 -0.1099  0.1087 -0.9645
20110TIP3   OH281820   5.522   5.419  13.404 -0.2805  0.3870 -0.2546
20110TIP3    H181821   5.454   5.450  13.345 -0.8247  0.4476  0.3913
20110TIP3    H281822   5.477   5.354  13.459  0.5445 -0.6968 -0.8118
20111TIP3   OH281823   5.265   1.569  12.223 -0.6346 -0.4135 -0.1456
20111TIP3    H181824   5.190   1.526  12.264  0.4443 -1.2292  1.0583
20111TIP3    H281825   5.243   1.662  12.225 -1.2722 -0.5709  0.9446
20112TIP3   OH281826   6.313   5.680   3.052 -0.5323  0.4481  0.3068
20112TIP3    H181827   6.273   5.766   3.070  2.2089  2.1748 -1.1265
20112TIP3    H281828   6.305   5.669   2.957  1.9095  0.7085  0.0162
20113TIP3   OH281829   0.988   5.704   2.441  0.4199 -0.2270 -0.1896
20113TIP3    H181830   1.026   5.766   2.379  3.6504  0.0132  1.8415
20113TIP3    H281831   0.995   5.747   2.526 -3.1451 -0.8776  0.6265
20114TIP3   OH281832   5.917   0.512  12.988  0.1616 -0.2768  0.4400
20114TIP3    H181833   5.952   0.446  12.929  1.4708  1.5846 -0.9977
20114TIP3    H281834   5.834   0.538  12.948 -0.4110 -1.0903  1.0685
20115TIP3   OH281835   0.004   4.281   4.606  0.0162  0.4537 -0.1513
20115TIP3    H181836   0.019   4.254   4.696 -2.0177 -1.0837 -0.2015
20115TIP3    H281837   0.010   4.201   4.554 -1.9480  0.7180 -0.9071
20116TIP3   OH281838   3.085   0.628  17.119 -0.3377  0.1657 -0.0415
20116TIP3    H181839   3.005   0.613  17.171 -0.3670  0.9133  0.1466
20116TIP3    H281840   3.108   0.719  17.137 -0.2246  0.3750 -1.1873
20117TIP3   OH281841   0.624   0.870   5.736  0.2494  0.0327  0.0681
20117TIP3    H181842   0.546   0.856   5.681  0.2462  0.0059  0.0800
20117TIP3    H281843   0.596   0.846   5.824 -0.0362  0.9867  0.2544
20118TIP3   OH281844   4.354   3.896  13.918 -0.6725 -0.1415  0.1625
20118TIP3    H181845   4.356   3.978  13.869 -0.2699  0.2140  0.7586
20118TIP3    H281846   4.413   3.911  13.992 -0.9198 -0.8236  0.5048
20119TIP3   OH281847   1.895   4.066   3.479 -0.1781  0.4270 -0.0750
20119TIP3    H181848   1.874   3.973   3.487 -2.6304  0.9274  0.0309
20119TIP3    H281849   1.952   4.071   3.401 -1.2207 -1.0000 -0.9801
20120TIP3   OH281850   4.274   5.673  13.487  1.0216 -0.0390 -0.0322
20120TIP3    H181851   4.272   5.682  13.392  1.2688 -0.1081 -0.0454
20120TIP3    H281852   4.348   5.727  13.515  0.5912  0.4552  0.1792
20121TIP3   OH281853   1.408   4.522  14.725 -0.3603  0.0226 -0.0059
20121TIP3    H181854   1.349   4.596  14.742 -1.2867 -0.7195  0.0891
20121TIP3    H281855   1.458   4.549  14.648  0.2755  1.2951  0.8268
20122TIP3   OH281856   6.489   1.552   4.982  0.5892 -0.0031  0.1503
20122TIP3    H181857   6.561   1.526   4.924  0.9917  0.5748  0.3730
20122TIP3    H281858   6.419   1.579   4.923  0.7173 -0.1479 -0.0696
20123TIP3   OH281859   6.391   1.517  11.448 -0.0440  0.1054  0.2697
20123TIP3    H181860   6.394   1.517  11.544 -0.1838 -0.0930  0.2770
20123TIP3    H281861   6.475   1.480  11.421 -0.0306  0.1001  0.3174
20124TIP3   OH281862   5.401   5.139  12.050  0.0086 -0.4688  0.5931
20124TIP3    H181863   5.488   5.109  12.024 -0.1603  0.1870 -0.7713
20124TIP3    H281864   5.414   5.229  12.080 -0.1327 -0.5158  0.7974
20125TIP3   OH281865   6.575   0.470  13.392  0.5739  0.2407 -0.8425
20125TIP3    H181866   6.668   0.494  13.402  1.1518 -1.9837 -0.3193
20125TIP3    H281867   6.573   0.417  13.312 -0.2539  0.2791 -0.8480
20126TIP3   OH281868   1.047   0.254  15.347  0.1806 -0.4634 -0.2440
20126TIP3    H181869   1.074   0.328  15.292  0.1090 -0.5187 -0.3547
20126TIP3    H281870   1.127   0.228  15.394  0.4534 -0.9605 -0.9561
20127TIP3   OH281871   4.728   6.787   0.613 -0.8293  0.2051  0.5965
20127TIP3    H181872   4.761   6.850   0.677  2.3695  0.8360 -1.4498
20127TIP3    H281873   4.760   6.702   0.643  0.4482  0.4675  0.0334
20128TIP3   OH281874   5.744   4.573   5.148  0.0967  1.1512  0.0209
20128TIP3    H181875   5.655   4.579   5.114 -0.0389  0.6635  0.2659
20128TIP3    H281876   5.792   4.526   5.080 -0.0209  0.7389  0.2187
20129TIP3   OH281877   6.763   4.912  11.991 -0.0073  0.2134  0.7476
20129TIP3    H181878   6.832   4.938  12.052 -0.0011 -0.8692  1.2358
20129TIP3    H281879   6.722   4.835  12.032 -1.3598  0.6932  0.3645
20130TIP3   OH281880   2.163   0.700   1.960  0.0961  0.5599 -0.3416
20130TIP3    H181881   2.162   0.623   1.903  1.0505  0.8642 -0.7894
20130TIP3    H281882   2.123   0.670   2.041 -1.4407  0.1490 -1.1913
20131TIP3   OH281883   2.125   5.715   6.255  0.0660 -0.3156  0.4264
20131TIP3    H181884   2.219   5.698   6.257  0.0665 -0.2354  1.9597
20131TIP3    H281885   2.094   5.667   6.178  1.3021 -0.6493  0.1143
20132TIP3   OH281886   0.406   4.326  15.285  0.2808 -0.0776  0.0529
20132TIP3    H181887   0.412   4.304  15.378 -1.2918 -1.2080 -0.0720
20132TIP3    H281888   0.477   4.276  15.244  0.2845 -0.4474  0.5054
20133TIP3   OH281889   2.035   6.164   2.033 -0.2770  0.0793 -0.1365
20133TIP3    H181890   2.003   6.249   2.005 -2.2824 -0.4524  0.3828
20133TIP3    H281891   2.031   6.166   2.128 -0.4830 -0.6157 -0.1184
20134TIP3   OH281892   0.271   5.217  17.252 -0.9084  0.1078 -0.3632
20134TIP3    H181893   0.195   5.221  17.194 -0.6549  0.1897 -0.6920
20134TIP3    H281894   0.237   5.176  17.332 -0.9212 -1.4110 -1.1008
20135TIP3   OH281895   6.253   0.637  15.797  0.0255 -0.1014  0.0006
20135TIP3    H181896   6.296   0.669  15.877 -0.5563  0.4461  0.1052
20135TIP3    H281897   6.201   0.562  15.825 -1.1320  0.8152  0.3911
20136TIP3   OH281898   3.237   5.353   2.832  0.3873  0.1583  0.0154
20136TIP3    H181899   3.307   5.292   2.809  0.7563  0.5667  0.0182
20136TIP3    H281900   3.158   5.300   2.835  0.8624 -0.5109  1.0535
20137TIP3   OH281901   4.377   0.767  12.386 -0.3962  0.6116 -0.3433
20137TIP3    H181902   4.293   0.779  12.430  0.8924 -0.6047  2.7389
20137TIP3    H281903   4.418   0.853  12.389 -1.0044  0.9318 -0.8048
20138TIP3   OH281904   3.119   1.383   2.067  0.2671 -0.1563 -0.3390
20138TIP3    H181905   3.059   1.455   2.089 -0.0254 -0.1894 -1.0082
20138TIP3    H281906   3.151   1.405   1.980  0.3794 -0.7051 -0.4371
20139TIP3   OH281907   1.945   4.496   5.995  0.2891  0.1291  0.1352
20139TIP3    H181908   1.941   4.428   6.061 -1.3270  0.7497  0.7346
20139TIP3    H281909   2.012   4.557   6.026  0.0290  0.0574  0.8416
20140TIP3   OH281910   5.455   3.177   1.239  0.5381  0.0023  0.4771
20140TIP3    H181911   5.405   3.230   1.177 -0.4550 -0.6673  0.6816
20140TIP3    H281912   5.543   3.215   1.239  0.0685  1.1084 -0.0086
20141TIP3   OH281913   4.694   5.773  14.118  0.4825  0.3528 -0.9104
20141TIP3    H181914   4.733   5.713  14.182 -0.7043  1.7720  1.2646
20141TIP3    H281915   4.715   5.861  14.151 -1.1993  1.1360 -1.7638
20142TIP3   OH281916   5.268   2.136  11.676  0.3223  0.1231 -0.3049
20142TIP3    H181917   5.186   2.178  11.702  0.8657  0.9161  0.1660
20142TIP3    H281918   5.250   2.042  11.683 -0.3822  0.2945  0.3064
20143TIP3   OH281919   3.782   0.173   3.442  0.0473  0.3322 -0.2821
20143TIP3    H181920   3.696   0.212   3.461  0.3722  0.0391  2.1784
20143TIP3    H281921   3.764   0.080   3.433 -0.0048  0.3679 -0.5345
20144TIP3   OH281922   0.518   6.300  17.281 -0.3469 -0.3171  0.3240
20144TIP3    H181923   0.422   6.310  17.282 -0.1319  2.3785  0.6326
20144TIP3    H281924   0.546   6.335  17.366  0.9654 -0.4495 -0.0346
20145TIP3   OH281925   6.561   1.492   4.332  0.4911  0.0783  0.0816
20145TIP3    H181926   6.470   1.514   4.314  0.9163  0.2743 -2.1100
20145TIP3    H281927   6.580   1.532   4.416 -0.8841  1.7721 -0.3707
20146TIP3   OH281928   0.128   6.501  16.838 -0.6891 -0.5311 -0.2244
20146TIP3    H181929   0.134   6.440  16.912 -1.5689  0.6651  0.8895
20146TIP3    H281930   0.034   6.514  16.825 -0.5256  0.7578 -0.2743
20147TIP3   OH281931   6.542   0.326   5.101  0.1322 -0.3111 -0.0030
20147TIP3    H181932   6.474   0.393   5.095  1.1835  0.7804  0.0345
20147TIP3    H281933   6.493   0.243   5.105 -1.1609  0.3636 -1.0305
20148TIP3   OH281934   0.356   0.134  13.856  0.1751  0.2231  0.0272
20148TIP3    H181935   0.317   0.081  13.787  0.8831  1.2336 -1.1878
20148TIP3    H281936   0.376   0.218  13.814  0.9102  0.7613  1.3747
20149TIP3   OH281937   0.769   3.150   0.171 -0.2617  0.3177 -0.0847
20149TIP3    H181938   0.712   3.143   0.094  0.0227  1.7030 -0.4467
20149TIP3    H281939   0.709   3.150   0.245 -0.5830 -0.3416 -0.3353
20150TIP3   OH281940   3.544   4.830  15.119 -0.0387 -0.0651  0.1812
20150TIP3    H181941   3.616   4.868  15.169  1.2893  0.6499 -2.0854
20150TIP3    H281942   3.588   4.781  15.049 -1.7584 -0.2846 -0.8007
20151TIP3   OH281943   1.907   3.154  10.790 -0.7121  0.0660  0.2721
20151TIP3    H181944   1.970   3.198  10.734 -1.2740  0.7795  0.1904
20151TIP3    H281945   1.846   3.111  10.729  0.6757 -2.1302  0.3254
20152TIP3   OH281946   4.403   5.957  12.827  0.3229 -0.0674 -0.0241
20152TIP3    H181947   4.394   5.863  12.843 -0.8704  0.1071  0.4386
20152TIP3    H281948   4.414   5.964  12.732  0.7270 -0.6887 -0.0301
20153TIP3   OH281949   3.560   6.313   4.403 -0.2231 -0.4036  0.3115
20153TIP3    H181950   3.630   6.274   4.350  2.5663  0.1394  3.2373
20153TIP3    H281951   3.566   6.407   4.387  0.2840 -0.2860  1.1284
20154TIP3   OH281952   3.827   1.216  13.881  0.0096 -0.7268 -0.4434
20154TIP3    H181953   3.758   1.254  13.936  0.2223 -0.6968 -0.1966
20154TIP3    H281954   3.908   1.256  13.913  0.1110 -0.5295 -0.9360
20155TIP3   OH281955   4.257   6.290  13.971 -0.7150 -0.1940 -0.4464
20155TIP3    H181956   4.245   6.383  13.993 -0.3313 -0.2422 -0.0235
20155TIP3    H281957   4.243   6.286  13.877 -1.0463  0.2450 -0.4210
20156TIP3   OH281958   2.772   4.177   4.865 -0.4178 -0.0050  0.0737
20156TIP3    H181959   2.744   4.178   4.957 -1.4487  1.8718 -0.1892
20156TIP3    H281960   2.855   4.131   4.865 -1.3324 -1.7725  1.6427
20157TIP3   OH281961   2.142   0.524   0.972 -0.2670 -0.5244 -0.0832
20157TIP3    H181962   2.095   0.606   0.959  1.9575  0.4147 -3.5659
20157TIP3    H281963   2.115   0.469   0.899  0.8121 -1.5838  0.2734
20158TIP3   OH281964   6.435   6.581   6.733  0.1004 -0.2772  0.3328
20158TIP3    H181965   6.505   6.549   6.677  1.8011 -1.0286  2.7262
20158TIP3    H281966   6.453   6.675   6.742  1.7265 -0.6800  1.9988
20159TIP3   OH281967   4.165   1.241   5.065  0.3289 -0.2144  0.4620
20159TIP3    H181968   4.072   1.227   5.047  0.8675 -2.6128 -1.0865
20159TIP3    H281969   4.194   1.300   4.995  0.5509 -2.1889 -1.2423
20160TIP3   OH281970   2.878   6.700   4.550  0.1813 -0.1419 -0.2616
20160TIP3    H181971   2.783   6.694   4.562  0.2768 -1.0260  0.1136
20160TIP3    H281972   2.913   6.625   4.598  1.1252  0.5720  0.1901
20161TIP3   OH281973   5.234   6.397   2.382 -0.4709  0.1679 -0.2728
20161TIP3    H181974   5.295   6.329   2.353 -1.1403 -0.8556  0.6214
20161TIP3    H281975   5.183   6.418   2.303  0.2324  0.1621 -0.7326
20162TIP3   OH281976   2.983   4.219   0.006 -0.5202  0.0545 -0.2824
20162TIP3    H181977   2.996   4.135   0.051 -1.5259 -0.4179 -0.8178
20162TIP3    H281978   3.008   4.201  -0.085  0.3014  0.6460 -0.1761
20163TIP3   OH281979   1.862   2.529   1.471 -0.3575 -0.5509 -1.0852
20163TIP3    H181980   1.904   2.445   1.489 -0.7728 -0.2892  1.4983
20163TIP3    H281981   1.934   2.587   1.447  0.1707 -1.1859 -1.0675
20164TIP3   OH281982   3.715   2.701  11.961 -0.4364  0.8842  0.6866
20164TIP3    H181983   3.625   2.669  11.970 -0.9773  1.9672 -0.5729
20164TIP3    H281984   3.767   2.622  11.946 -1.1121  0.2090  1.7781
20165TIP3   OH281985   3.333   4.068  14.048  0.5578 -0.0873  0.3603
20165TIP3    H181986   3.267   4.001  14.066  1.4252 -1.0008  0.2417
20165TIP3    H281987   3.287   4.133  13.996 -0.0309 -1.1531 -0.4987
20166TIP3   OH281988   2.410   5.678  15.056 -0.0848  0.2368  0.5149
20166TIP3    H181989   2.381   5.769  15.054 -1.6327 -0.2459 -0.6691
20166TIP3    H281990   2.339   5.630  15.099 -0.7865 -0.8460 -1.6993
20167TIP3   OH281991   6.004   0.431   0.487  0.2619  0.1712 -0.2192
20167TIP3    H181992   5.968   0.459   0.403  1.7316 -0.1415 -0.9902
20167TIP3    H281993   6.099   0.432   0.474  0.4752 -1.7253  0.8204
20168TIP3   OH281994   3.771   1.737  13.922 -0.4078 -0.0068  0.4113
20168TIP3    H181995   3.739   1.661  13.969 -1.9661 -0.4398 -1.2150
20168TIP3    H281996   3.820   1.701  13.848 -4.1733  0.2304 -2.5193
20169TIP3   OH281997   0.459   4.038   5.090  0.8307 -0.1317  0.7458
20169TIP3    H181998   0.487   4.004   5.005 -0.5122  0.0415  0.2134
20169TIP3    H281999   0.364   4.025   5.091  0.8956 -0.5828  2.4340
20170TIP3   OH282000   4.532   3.215   3.560  0.0650  0.0094 -0.0640
20170TIP3    H182001   4.494   3.258   3.637 -1.8643  0.5345 -1.2102
20170TIP3    H282002   4.625   3.233   3.565 -0.2599  1.5176  1.2460
20171TIP3   OH282003   6.558   3.451   1.981  0.5715 -0.0357  0.1661
20171TIP3    H182004   6.504   3.519   2.021  0.5936  0.1963 -0.1994
20171TIP3    H282005   6.496   3.383   1.956  0.6442 -0.5697  1.3614
20172TIP3   OH282006   1.883   0.050  10.317  0.2581 -0.7458  0.4433
20172TIP3    H182007   1.794   0.081  10.328  0.4223 -0.5916  1.4849
20172TIP3    H282008   1.929   0.121  10.272  0.1758 -0.2706  1.1049
20173TIP3   OH282009   1.047   0.986   4.199  0.2930 -0.0315 -0.1878
20173TIP3    H182010   1.007   0.900   4.211  0.0442  0.2154  0.8003
20173TIP3    H282011   0.995   1.026   4.129  0.2411 -0.5773 -0.4693
20174TIP3   OH282012   2.548   4.480  17.175 -0.1907 -0.6188  0.2519
20174TIP3    H182013   2.585   4.492  17.088  0.5976 -0.0497  0.6526
20174TIP3    H282014   2.590   4.401  17.209  0.2839 -0.2537  0.5158
20175TIP3   OH282015   3.771   1.289  16.654  0.2810  0.1162 -0.2022
20175TIP3    H182016   3.684   1.306  16.689  1.1868 -1.3393  3.1933
20175TIP3    H282017   3.758   1.278  16.560 -3.0753  0.5223  0.1125
20176TIP3   OH282018   2.501   4.110   0.271  0.1797  0.3485 -0.0403
20176TIP3    H182019   2.566   4.146   0.331  0.1745 -0.1042  0.2376
20176TIP3    H282020   2.417   4.139   0.306  0.0757 -1.1404  1.0313
20177TIP3   OH282021   3.345   3.290   4.050 -0.5578 -0.3830 -0.1086
20177TIP3    H182022   3.417   3.228   4.048 -0.2261  0.0183 -1.4423
20177TIP3    H282023   3.380   3.370   4.012 -2.2128 -0.7947 -2.7672
20178TIP3   OH282024   2.562   0.115   6.057  0.9586 -0.2490 -0.0441
20178TIP3    H182025   2.595   0.200   6.086  1.4130 -0.6234  0.5424
20178TIP3    H282026   2.484   0.100   6.110  0.9253 -0.2438 -0.0908
20179TIP3   OH282027   2.433   6.673   2.912 -0.0633 -0.0862  0.3151
20179TIP3    H182028   2.357   6.722   2.880 -0.7599  0.4686  2.6674
20179TIP3    H282029   2.472   6.729   2.979  1.7330 -0.9068  0.0271
20180TIP3   OH282030   3.299   6.644  15.512  0.0701 -0.0949  0.4790
20180TIP3    H182031   3.203   6.642  15.517  0.0491  1.6036  1.3990
20180TIP3    H282032   3.328   6.594  15.588 -0.0731 -0.4880  0.2803
20181TIP3   OH282033   2.934   4.576   5.165 -0.3031 -0.0767  0.1696
20181TIP3    H182034   2.979   4.540   5.242  0.8341  0.4660 -0.2187
20181TIP3    H282035   2.995   4.562   5.093 -0.1103  1.9900 -0.1230
20182TIP3   OH282036   6.516   4.254  14.584  0.1085  0.1557 -0.3453
20182TIP3    H182037   6.484   4.167  14.607  0.1980  0.5971  1.5972
20182TIP3    H282038   6.606   4.256  14.616  0.0700  0.9959 -0.2669
20183TIP3   OH282039   4.181   1.242   5.680  0.7650  0.1497  0.8819
20183TIP3    H182040   4.111   1.305   5.698 -0.0323 -0.8382  1.3841
20183TIP3    H282041   4.179   1.230   5.585  1.5768  1.5830  0.6550
20184TIP3   OH282042   1.477   1.172   1.425 -0.1240 -0.0348  0.1946
20184TIP3    H182043   1.491   1.254   1.473 -0.1110 -0.3752  0.7802
20184TIP3    H282044   1.455   1.200   1.337 -4.6978  0.8397  1.3532
20185TIP3   OH282045   1.420   3.842   5.208  0.7578  0.3622 -0.1654
20185TIP3    H182046   1.359   3.916   5.200 -0.1727 -0.2530  0.9889
20185TIP3    H282047   1.501   3.882   5.239  0.2382  0.9121  0.5237
20186TIP3   OH282048   6.520   2.123   2.671  0.5079  0.1826  0.0546
20186TIP3    H182049   6.598   2.101   2.620  1.7517  0.2942  1.7945
20186TIP3    H282050   6.529   2.216   2.689 -0.0004  0.1812  0.3143
20187TIP3   OH282051   6.314   5.498  13.237  1.1240  0.4575 -0.2086
20187TIP3    H182052   6.292   5.499  13.144  1.5035  1.5829 -0.2948
20187TIP3    H282053   6.304   5.406  13.262 -0.9741  0.4512 -0.8655
20188TIP3   OH282054   5.304   1.066   2.902  0.4889 -0.2295  0.2653
20188TIP3    H182055   5.258   1.034   2.824  0.0357  0.2293  0.3319
20188TIP3    H282056   5.256   1.146   2.926  1.3943  0.3296  0.2690
20189TIP3   OH282057   0.054   4.705  17.063 -0.3673 -0.3262  0.0543
20189TIP3    H182058   0.132   4.670  17.020  0.2608  1.2130 -0.1444
20189TIP3    H282059  -0.016   4.644  17.039  0.0573  0.1254 -2.7404
20190TIP3   OH282060   5.254   0.619   6.466 -0.0602 -0.1050 -0.2888
20190TIP3    H182061   5.256   0.535   6.510 -0.3303  0.5452  1.0143
20190TIP3    H282062   5.345   0.640   6.448  0.0191 -0.5841 -0.4398
20191TIP3   OH282063   5.311   4.563  13.533  0.2921  0.0376 -0.3804
20191TIP3    H182064   5.344   4.626  13.598  0.5212  0.2408 -0.6904
20191TIP3    H282065   5.386   4.546  13.476  0.3880 -0.9398  0.0222
20192TIP3   OH282066   1.486   3.864  13.542  0.0508 -0.2179  0.2620
20192TIP3    H182067   1.437   3.818  13.475 -0.3235 -0.2141  0.5335
20192TIP3    H282068   1.428   3.868  13.618 -0.5910  2.1097 -0.2511
20193TIP3   OH282069   1.839   2.406  13.052 -0.6469 -0.0748 -1.2770
20193TIP3    H182070   1.863   2.414  12.959  0.7697  2.0228 -0.8066
20193TIP3    H282071   1.922   2.387  13.096 -1.1676 -0.2457 -0.3552
20194TIP3   OH282072   5.486   2.286   3.843  0.1189  0.8751 -0.1888
20194TIP3    H182073   5.399   2.323   3.860  0.1870  0.7209  0.5195
20194TIP3    H282074   5.535   2.359   3.804 -0.1521  1.1412 -0.0421
20195TIP3   OH282075   2.855   5.099  15.279 -0.6136  0.2102  0.0199
20195TIP3    H182076   2.896   5.022  15.319  0.7201  1.2114  0.6608
20195TIP3    H282077   2.793   5.063  15.216  1.4980 -1.4167 -1.2596
20196TIP3   OH282078   3.881   0.702  16.804 -0.2473  0.0261 -0.1044
20196TIP3    H182079   3.848   0.764  16.869  1.0370 -0.3732  0.9622
20196TIP3    H282080   3.945   0.752  16.754  1.6235 -0.6466  1.4739
20197TIP3   OH282081   5.130   4.742  13.198  0.0994 -0.0430 -0.3213
20197TIP3    H182082   5.155   4.778  13.283  1.2850  0.3914 -0.8255
20197TIP3    H282083   5.034   4.734  13.202 -0.2511  2.9508 -0.0577
20198TIP3   OH282084   2.883   4.697   2.607 -0.4966  0.3041  0.2653
20198TIP3    H182085   2.869   4.757   2.680  1.9993  1.4168 -0.0490
20198TIP3    H282086   2.890   4.610   2.649  0.3686  0.8506  1.3382
20199TIP3   OH282087   3.922   2.028   6.079 -0.2204  0.2316  0.7017
20199TIP3    H182088   3.864   2.093   6.119  0.9202  1.2204  0.8253
20199TIP3    H282089   3.884   1.944   6.104 -1.9672  0.8317  0.1887
20200TIP3   OH282090   3.746   4.591   0.235 -0.4767 -0.1514  0.4385
20200TIP3    H182091   3.697   4.572   0.155  0.3902  0.1390 -0.1833
20200TIP3    H282092   3.682   4.631   0.294 -0.6292  1.9469 -1.0294
20201TIP3   OH282093   2.173   4.560   5.684  0.2794  0.4689 -0.3836
20201TIP3    H182094   2.128   4.633   5.726 -0.8786 -0.4571  0.0316
20201TIP3    H282095   2.261   4.561   5.722  0.0800  1.2542  0.0750
20202TIP3   OH282096   0.057   6.084  16.179  0.0090  0.5074  0.1507
20202TIP3    H182097  -0.036   6.066  16.165 -0.4545  0.6096  2.5223
20202TIP3    H282098   0.059   6.173  16.214  0.8630  0.1595  1.0527
20203TIP3   OH282099   6.766   6.167  15.405 -0.0215  0.1227  0.1695
20203TIP3    H182100   6.748   6.178  15.312 -0.2751 -0.2254  0.1739
20203TIP3    H282101   6.690   6.118  15.438  0.4602 -0.4898  0.3903
20204TIP3   OH282102   4.953   6.198  13.669  0.4920  0.1117 -0.0222
20204TIP3    H182103   5.047   6.217  13.675  0.4382  0.5573 -0.5014
20204TIP3    H282104   4.946   6.104  13.680  1.0036  0.0693 -0.0633
20205TIP3   OH282105   4.813   6.339  14.181 -0.3094 -0.3017  0.6004
20205TIP3    H182106   4.760   6.265  14.212 -0.7557 -0.4584 -0.4954
20205TIP3    H282107   4.823   6.324  14.087 -0.4379  1.0394  0.3480
20206TIP3   OH282108   5.213   2.328  16.089  0.0838  0.1065 -0.0269
20206TIP3    H182109   5.283   2.363  16.143 -0.1289 -0.9460  0.9560
20206TIP3    H282110   5.138   2.385  16.106 -0.3924 -0.9948  1.9182
20207TIP3   OH282111   0.196   5.825  16.753 -0.0492 -0.3542  0.1113
20207TIP3    H182112   0.151   5.907  16.735 -1.5351 -1.1974 -0.1082
20207TIP3    H282113   0.245   5.843  16.834  1.5675  1.4482 -1.1530
20208TIP3   OH282114   2.722   6.474  16.678  0.1853 -0.3488  0.4440
20208TIP3    H182115   2.763   6.546  16.727 -0.1025 -1.0010  1.6768
20208TIP3    H282116   2.795   6.431  16.634  0.5032  0.0459  0.5754
20209TIP3   OH282117   0.315   1.377   4.289  0.0788 -0.1424  0.5637
20209TIP3    H182118   0.346   1.376   4.198 -0.6327  0.5999  0.2989
20209TIP3    H282119   0.226   1.340   4.284  0.0177 -0.0507  0.9500
20210TIP3   OH282120   2.454   3.313   3.002  0.3646  0.0614  0.1062
20210TIP3    H182121   2.508   3.276   3.071  1.5779  1.3788 -0.0775
20210TIP3    H282122   2.517   3.346   2.937 -0.5064  2.9998  0.5900
20211TIP3   OH282123   4.328   4.460   5.357 -0.2333  0.1826 -0.1370
20211TIP3    H182124   4.298   4.438   5.269 -0.1381 -1.2880  0.1646
20211TIP3    H282125   4.248   4.482   5.405 -0.5142 -0.7641 -0.1387
20212TIP3   OH282126   2.555   5.214  15.766 -0.2115  0.3192  0.6149
20212TIP3    H182127   2.566   5.303  15.734  0.6605  0.0214  0.0197
20212TIP3    H282128   2.574   5.159  15.689 -3.6366 -0.3695  0.1131
20213TIP3   OH282129   4.407   2.612   3.673  0.0907  0.3632  0.2551
20213TIP3    H182130   4.469   2.682   3.653 -1.6908  1.4743 -1.7801
20213TIP3    H282131   4.389   2.571   3.588  0.5977 -2.2210  1.2905
20214TIP3   OH282132   4.000   1.494   1.578 -0.0590 -0.6956 -0.4608
20214TIP3    H182133   4.060   1.454   1.516  0.1996 -0.8555 -0.1096
20214TIP3    H282134   3.931   1.532   1.524 -0.4530 -1.8573 -0.7849
20215TIP3   OH282135   6.045   4.568  14.677 -0.0208 -0.4892 -0.0458
20215TIP3    H182136   5.953   4.574  14.653 -0.2682 -0.3835  0.8692
20215TIP3    H282137   6.044   4.555  14.772  0.8816 -1.5233 -0.1650
20216TIP3   OH282138   1.894   2.973  15.531 -0.8982  0.4644  0.3942
20216TIP3    H182139   1.846   2.922  15.596 -1.0896 -0.0083 -0.1062
20216TIP3    H282140   1.838   2.971  15.453  0.2007 -0.6417 -0.4096
20217TIP3   OH282141   3.284   6.412   5.746 -0.0249 -0.1624  0.4517
20217TIP3    H182142   3.262   6.388   5.656 -0.9697 -0.2260  0.6856
20217TIP3    H282143   3.199   6.417   5.791  0.5336 -2.0366  1.8170
20218TIP3   OH282144   2.774   0.919  16.958 -0.0920  0.1183  0.3170
20218TIP3    H182145   2.814   0.901  16.873 -2.1723 -1.0445 -0.4993
20218TIP3    H282146   2.761   1.013  16.959  1.0564  0.2979 -0.1075
20219TIP3   OH282147   3.530   4.675  12.987 -0.2734 -0.0754  0.1772
20219TIP3    H182148   3.574   4.662  13.071 -1.0142 -1.9511  0.3426
20219TIP3    H282149   3.486   4.760  12.996 -1.3713 -0.7678  2.2110
20220TIP3   OH282150   2.139   5.518  13.549  0.3522  0.2354 -0.5274
20220TIP3    H182151   2.203   5.453  13.580 -0.2499  0.5178  1.4624
20220TIP3    H282152   2.191   5.580  13.498  1.5878  0.1893  0.6192
20221TIP3   OH282153   6.425   6.231  13.421 -0.1367 -0.2625  0.1462
20221TIP3    H182154   6.472   6.160  13.378  0.2976  0.9631 -1.4815
20221TIP3    H282155   6.337   6.227  13.385 -0.4037 -0.5883  0.8185
20222TIP3   OH282156   3.931   6.483   6.022  0.7078 -0.7303 -0.6577
20222TIP3    H182157   3.967   6.420   5.961  0.3447 -2.4362  0.8028
20222TIP3    H282158   4.005   6.539   6.046  1.5177 -1.8187 -0.5456
20223TIP3   OH282159   0.418   0.141  12.964  0.2612  0.2511 -0.0780
20223TIP3    H182160   0.373   0.207  13.017 -0.0321 -0.0356  0.0316
20223TIP3    H282161   0.441   0.072  13.026 -0.8004 -0.4604 -0.4453
20224TIP3   OH282162   4.576   4.039  15.575  0.0615  0.1432 -0.6602
20224TIP3    H182163   4.565   3.950  15.543 -3.4450  0.2299 -0.1178
20224TIP3    H282164   4.551   4.095  15.501  0.7436  0.6343 -0.5301
20225TIP3   OH282165   6.178   0.663  12.892  0.1343 -0.2000 -0.2748
20225TIP3    H182166   6.200   0.675  12.799  0.5076  1.0367 -0.0511
20225TIP3    H282167   6.090   0.701  12.900  1.2126  2.3972  0.3899
20226TIP3   OH282168   3.184   5.101   2.741 -0.3473 -0.1493 -0.2208
20226TIP3    H182169   3.240   5.070   2.670  1.0149  1.1993  0.2133
20226TIP3    H282170   3.114   5.036   2.746  1.3011 -2.0635 -0.6164
20227TIP3   OH282171   0.791   2.260  14.188  0.4117  0.2232  0.3901
20227TIP3    H182172   0.707   2.232  14.152  0.1110  0.7571  0.6603
20227TIP3    H282173   0.856   2.221  14.130  0.0348 -1.3102  0.9658
20228TIP3   OH282174   2.869   0.065  12.613  0.1852  0.3960  0.4427
20228TIP3    H182175   2.923  -0.010  12.638  1.1528  0.9112 -0.0562
20228TIP3    H282176   2.813   0.032  12.542  0.8477  0.2238 -0.0134
20229TIP3   OH282177   4.327   6.285   1.775 -0.1503  0.4393  0.4514
20229TIP3    H182178   4.260   6.277   1.843 -1.4446  0.4040 -0.7819
20229TIP3    H282179   4.307   6.367   1.730  0.8388  0.5876  0.2512
20230TIP3   OH282180   6.043   2.970  15.814 -0.0393 -0.0898 -0.3508
20230TIP3    H182181   5.992   3.049  15.794 -1.0980 -0.7837 -0.4452
20230TIP3    H282182   6.127   2.985  15.770 -0.0993  1.1255 -0.0984
20231TIP3   OH282183   6.290   1.972   1.927  0.1221 -0.3686  0.1832
20231TIP3    H182184   6.294   1.879   1.950  0.5363 -1.1083 -2.6001
20231TIP3    H282185   6.223   1.978   1.860 -0.9663  1.6506  1.3736
20232TIP3   OH282186   4.247   3.195   1.441  0.0117 -0.1982  0.3798
20232TIP3    H182187   4.285   3.268   1.490  1.5879 -0.1159 -0.8754
20232TIP3    H282188   4.230   3.128   1.508  2.8289 -0.3961  1.0333
20233TIP3   OH282189   2.725   0.833   2.014 -0.0516 -0.3028 -0.1874
20233TIP3    H182190   2.803   0.778   2.011  0.2378  0.1243 -0.6064
20233TIP3    H282191   2.758   0.921   2.032 -0.7087 -0.6536  3.3257
20234TIP3   OH282192   6.050   3.528   2.574 -0.4397  0.7777  0.3954
20234TIP3    H182193   6.017   3.530   2.664 -2.3268 -0.8099 -0.2129
20234TIP3    H282194   5.994   3.588   2.526 -0.9862 -0.1613 -0.1748
20235TIP3   OH282195   0.406   5.286   5.798  0.5214 -0.3778 -0.7715
20235TIP3    H182196   0.325   5.277   5.849  0.9612 -1.7458 -0.2912
20235TIP3    H282197   0.432   5.197   5.777  2.6924 -0.0636  0.3215
20236TIP3   OH282198   5.608   4.291  17.199  0.3720 -0.0132 -0.2815
20236TIP3    H182199   5.617   4.247  17.115  0.0020 -1.4734  0.4095
20236TIP3    H282200   5.666   4.243  17.258  1.9449  2.0278 -0.0350
20237TIP3   OH282201   3.302   0.355  11.859  0.0632  0.3750 -0.3719
20237TIP3    H182202   3.286   0.359  11.765  0.6491 -1.2244 -0.5727
20237TIP3    H282203   3.382   0.406  11.872 -0.1332  0.7697 -0.7061
20238TIP3   OH282204   1.000   6.367  16.028  0.6386 -0.2274  0.2918
20238TIP3    H182205   1.083   6.397  16.063  0.0166 -0.7914  2.3746
20238TIP3    H282206   0.960   6.317  16.099 -1.6926  0.4152 -0.4828
20239TIP3   OH282207   0.416   5.962  13.447  0.2755  0.3383 -0.8098
20239TIP3    H182208   0.365   5.905  13.390 -2.9643  2.0469  0.1596
20239TIP3    H282209   0.450   6.030  13.389  1.1180 -0.5475 -1.3864
20240TIP3   OH282210   1.409   1.803   4.942  0.2590  0.0321 -0.2008
20240TIP3    H182211   1.365   1.718   4.952 -0.9303  0.4297 -1.6061
20240TIP3    H282212   1.415   1.837   5.031 -1.6921 -0.3719  0.1480
20241TIP3   OH282213   1.910   1.952   6.241 -0.1045 -0.1808 -0.2382
20241TIP3    H182214   1.947   1.888   6.301  1.5355 -0.4392 -1.4529
20241TIP3    H282215   1.927   2.037   6.282  1.2979 -0.3362 -0.4595
20242TIP3   OH282216   6.784   3.552  11.215 -0.0013 -0.2756 -0.1940
20242TIP3    H182217   6.751   3.591  11.134  1.0139  2.3554  0.5441
20242TIP3    H282218   6.744   3.604  11.284  0.7317 -1.1518  0.9182
20243TIP3   OH282219   2.431   4.576  13.399 -0.1434  0.0081  0.0433
20243TIP3    H182220   2.375   4.616  13.333  0.8266  1.1445 -0.1283
20243TIP3    H282221   2.435   4.483  13.375 -1.4414  0.0225 -0.2794
20244TIP3   OH282222   5.471   4.372  12.973 -0.0821 -0.0829 -0.4478
20244TIP3    H182223   5.561   4.389  12.999  0.1970 -0.1175 -1.3707
20244TIP3    H282224   5.446   4.293  13.021  0.0016  0.5287  0.6463
20245LIG      S82225   2.986   3.146  16.563  0.3067 -0.0562  0.2552
20245LIG     N182226   3.396   3.367  16.101 -0.0967  0.6664  0.2571
20245LIG     N282227   3.567   3.458  15.876 -0.6275  0.0406 -0.1762
20245LIG     N382228   3.212   3.174  16.384  0.3503 -0.6496 -0.2161
20245LIG     C182229   3.274   3.326  16.180 -0.3755  0.5158 -0.0463
20245LIG     C282230   3.375   3.500  16.034  0.3420  0.5560 -0.3296
20245LIG     C382231   3.444   3.272  16.002 -0.2928  0.4101 -0.1692
20245LIG     C482232   3.502   3.561  15.976 -0.4298  0.6793 -0.2859
20245LIG     C582233   3.583   3.326  15.943  0.5375 -0.2828  0.4227
20245LIG     C682234   3.307   3.203  16.270 -0.8953  0.2264 -0.3303
20245LIG     C782235   3.153   3.291  16.092 -0.4456 -0.9013  0.1302
20245LIG     C882236   3.507   3.451  15.734  0.3549  0.2799 -0.0198
20245LIG     C982237   3.212   3.274  16.499  0.0378 -0.4984  0.0099
20245LIG    C1082238   3.205   3.042  16.434  0.2326 -0.7696 -0.8980
20245LIG    C1182239   3.510   3.576  15.655 -0.0046 -0.1515  0.2723
20245LIG    C1282240   3.111   3.269  16.596 -0.3595  0.4112  0.7870
20245LIG    C1382241   3.090   3.009  16.518  0.3214  0.0607  0.4916
20245LIG    C1482242   3.318   3.362  16.514  0.5091  1.4873  0.6221
20245LIG    C1582243   3.313   2.953  16.420 -0.9333  0.3092 -0.3758
20245LIG    C1682244   3.121   3.335  16.717  0.1499  0.2654  0.6632
20245LIG    C1782245   3.073   2.876  16.559  0.0667  0.0166 -0.8322
20245LIG    C1882246   3.334   3.425  16.643  0.1674 -0.2891  0.3983
20245LIG    C1982247   3.296   2.820  16.467 -0.0991  1.0767  0.2305
20245LIG    C2082248   3.241   3.409  16.746 -0.4017 -0.0329 -0.4633
20245LIG    C2182249   3.172   2.779  16.529  0.3401  0.0043 -0.0553
20245LIG     H182250   3.241   3.406  16.250  1.6087 -0.5470  2.2261
20245LIG     H282251   3.324   3.560  16.112  0.5682 -2.4594  2.3665
20245LIG     H382252   3.311   3.499  15.944  1.1542 -0.6123 -0.9184
20245LIG     H482253   3.372   3.265  15.918  0.1027 -0.6138 -0.4363
20245LIG     H582254   3.458   3.164  16.025 -0.0269  0.4873  0.0390
20245LIG     H682255   3.483   3.654  15.919 -0.0999  0.2126 -1.1661
20245LIG     H782256   3.573   3.598  16.054  0.8170  1.0300 -1.5401
20245LIG     H882257   3.622   3.251  15.871  1.3172  0.0628  0.4708
20245LIG     H982258   3.657   3.338  16.025  1.9655 -1.6444 -0.6045
20245LIG    H1082259   3.295   3.112  16.208 -0.2088  1.2879 -2.1045
20245LIG    H1182260   3.411   3.208  16.309 -1.1291  0.5179  0.2758
20245LIG    H1282261   3.071   3.243  16.149 -0.3793 -0.0368  0.9950
20245LIG    H1382262   3.186   3.213  16.021 -1.8908 -1.9162  0.5311
20245LIG    H1482263   3.111   3.386  16.052  1.3167  0.3362  1.0502
20245LIG    H1582264   3.401   3.421  15.749  0.1286  2.2375  3.6654
20245LIG    H1682265   3.573   3.371  15.697  0.0710 -0.0224  0.1177
20245LIG    H1782266   3.440   3.649  15.701  0.9484 -0.2699  2.0062
20245LIG    H1882267   3.469   3.542  15.558  1.9070 -0.6734 -0.4043
20245LIG    H1982268   3.613   3.617  15.642  0.0111 -0.5153 -0.8429
20245LIG    H2082269   3.391   3.369  16.436  0.5231 -3.2947 -0.0471
20245LIG    H2182270   3.401   2.975  16.361 -0.2613 -1.4529 -0.0925
20245LIG    H2282271   3.043   3.318  16.790 -0.1063  2.1428  0.8579
20245LIG    H2382272   2.980   2.853  16.608 -1.1947  1.5885 -2.3759
20245LIG    H2482273   3.422   3.485  16.659  0.8424 -1.4114  1.0762
20245LIG    H2582274   3.378   2.752  16.450 -0.8806  0.5710 -1.8886
20245LIG    H2682275   3.262   3.455  16.841 -1.5637 -0.1979 -0.1025
20245LIG    H2782276   3.166   2.674  16.553  0.8116 -0.2370 -0.9707
   6.81461   6.81461  17.29743
